<event>
 7    1  0.2339217E-009  0.4778727E+02  0.7816164E-02  0.1312668E+00
        -11   -1    0    0    0    0  0.00000000000E+00  0.00000000000E+00  0.45593999997E+02  0.45594000000E+02  0.51100000000E-03 0.  1.
         11   -1    0    0    0    0 -0.00000000000E+00 -0.00000000000E+00 -0.45593999997E+02  0.45594000000E+02  0.51100000000E-03 0. -1.
    9900012    2    1    2    0    0 -0.35119076702E+02 -0.37963389953E+00  0.25497640882E+02  0.47787270042E+02  0.19999995430E+02 0.  0.
         12    1    1    2    0    0  0.35119076702E+02  0.37963389953E+00 -0.25497640882E+02  0.43400729958E+02  0.00000000000E+00 0. -1.
         11    1    3    3    0    0 -0.38335764546E+01  0.49537127135E+01  0.70659600876E+01  0.94426357709E+01  0.51100000000E-03 0. -1.
        -11    1    3    3    0    0 -0.40659494016E+01 -0.44770838032E+01  0.13464995336E+01  0.61959087447E+01  0.51100000000E-03 0.  1.
        -12    1    3    3    0    0 -0.27219550846E+02 -0.85626280986E+00  0.17085181261E+02  0.32148725527E+02  0.00000000000E+00 0.  1.
</event>
<event>
 7    1  0.2339217E-009  0.4778727E+02  0.7816164E-02  0.1312668E+00
        -11   -1    0    0    0    0  0.00000000000E+00  0.00000000000E+00  0.45593999997E+02  0.45594000000E+02  0.51100000000E-03 0.  1.
         11   -1    0    0    0    0 -0.00000000000E+00 -0.00000000000E+00 -0.45593999997E+02  0.45594000000E+02  0.51100000000E-03 0. -1.
    9900012    2    1    2    0    0 -0.37408193881E+02  0.21204796284E+02  0.58827573549E+01  0.47787272022E+02  0.20000004458E+02 0.  0.
         12    1    1    2    0    0  0.37408193881E+02 -0.21204796284E+02 -0.58827573549E+01  0.43400727978E+02  0.00000000000E+00 0. -1.
         11    1    3    3    0    0 -0.11318050877E+01  0.98594380494E-01 -0.10899379885E+01  0.15743788262E+01  0.51100000000E-03 0. -1.
        -11    1    3    3    0    0 -0.24729609188E+02  0.21535412734E+02  0.14670181303E+00  0.32792515821E+02  0.51100000000E-03 0.  1.
        -12    1    3    3    0    0 -0.11546779606E+02 -0.42921083054E+00  0.68259935303E+01  0.13420377375E+02  0.00000000000E+00 0.  1.
</event>
<event>
 7    1  0.2339217E-009  0.4778727E+02  0.7816164E-02  0.1312668E+00
        -11   -1    0    0    0    0  0.00000000000E+00  0.00000000000E+00  0.45593999997E+02  0.45594000000E+02  0.51100000000E-03 0.  1.
         11   -1    0    0    0    0 -0.00000000000E+00 -0.00000000000E+00 -0.45593999997E+02  0.45594000000E+02  0.51100000000E-03 0. -1.
    9900012    2    1    2    0    0 -0.36748612481E+02 -0.86099280301E+01  0.21425028068E+02  0.47787271807E+02  0.20000003478E+02 0.  0.
         12    1    1    2    0    0  0.36748612481E+02  0.86099280301E+01 -0.21425028068E+02  0.43400728193E+02  0.00000000000E+00 0. -1.
         11    1    3    3    0    0 -0.24281245240E+01  0.30157386546E+01 -0.17593617842E+01  0.42527429367E+01  0.51100000000E-03 0. -1.
        -11    1    3    3    0    0 -0.92488899608E+01 -0.22114287303E+01  0.29099401688E+01  0.99448546788E+01  0.51100000000E-03 0.  1.
        -12    1    3    3    0    0 -0.25071597996E+02 -0.94142379543E+01  0.20274449684E+02  0.33589674192E+02  0.00000000000E+00 0.  1.
</event>
<event>
 7    1  0.2339217E-009  0.4778725E+02  0.7816164E-02  0.1312668E+00
        -11   -1    0    0    0    0  0.00000000000E+00  0.00000000000E+00  0.45593999997E+02  0.45594000000E+02  0.51100000000E-03 0.  1.
         11   -1    0    0    0    0 -0.00000000000E+00 -0.00000000000E+00 -0.45593999997E+02  0.45594000000E+02  0.51100000000E-03 0. -1.
    9900012    2    1    2    0    0 -0.22988269468E+02  0.19992098277E+02  0.30910854085E+02  0.47787246240E+02  0.19999886908E+02 0.  0.
         12    1    1    2    0    0  0.22988269468E+02 -0.19992098277E+02 -0.30910854085E+02  0.43400753760E+02  0.00000000000E+00 0. -1.
         11    1    3    3    0    0 -0.82423391999E+01  0.10328271970E+02  0.75236484743E+01  0.15205743783E+02  0.51100000000E-03 0. -1.
        -11    1    3    3    0    0 -0.12440922067E+02  0.13396140777E+02  0.19333246159E+02  0.26608411018E+02  0.51100000000E-03 0.  1.
         12    1    3    3    0    0 -0.23050082012E+01 -0.37323144697E+01  0.40539594513E+01  0.59730914392E+01  0.00000000000E+00 0. -1.
</event>
<event>
 7    1  0.2339217E-009  0.4778727E+02  0.7816164E-02  0.1312668E+00
        -11   -1    0    0    0    0  0.00000000000E+00  0.00000000000E+00  0.45593999997E+02  0.45594000000E+02  0.51100000000E-03 0.  1.
         11   -1    0    0    0    0 -0.00000000000E+00 -0.00000000000E+00 -0.45593999997E+02  0.45594000000E+02  0.51100000000E-03 0. -1.
    9900012    2    1    2    0    0  0.18878125804E+02  0.21671659837E+02  0.32520433567E+02  0.47787273355E+02  0.20000010533E+02 0.  0.
         12    1    1    2    0    0 -0.18878125804E+02 -0.21671659837E+02 -0.32520433567E+02  0.43400726645E+02  0.00000000000E+00 0. -1.
         11    1    3    3    0    0  0.78785651666E+01  0.18974607878E+02  0.26494564710E+02  0.33527145608E+02  0.51100000000E-03 0. -1.
        -11    1    3    3    0    0  0.49538556551E+01  0.31204267795E+01  0.20696731086E+00  0.58583773237E+01  0.51100000000E-03 0.  1.
        -12    1    3    3    0    0  0.60457049822E+01 -0.42337481973E+00  0.58189015461E+01  0.84017504232E+01  0.00000000000E+00 0.  1.
</event>
<event>
 7    1  0.2339217E-009  0.4778727E+02  0.7816164E-02  0.1312668E+00
        -11   -1    0    0    0    0  0.00000000000E+00  0.00000000000E+00  0.45593999997E+02  0.45594000000E+02  0.51100000000E-03 0. -1.
         11   -1    0    0    0    0 -0.00000000000E+00 -0.00000000000E+00 -0.45593999997E+02  0.45594000000E+02  0.51100000000E-03 0.  1.
    9900012    2    1    2    0    0 -0.21207278345E+02 -0.37479130327E+02 -0.54027423767E+01  0.47787268554E+02  0.19999988645E+02 0.  0.
         12    1    1    2    0    0  0.21207278345E+02  0.37479130327E+02  0.54027423767E+01  0.43400731446E+02  0.00000000000E+00 0. -1.
         11    1    3    3    0    0 -0.20424139337E+01 -0.20284409143E+01  0.25347138587E+01  0.38354663115E+01  0.51100000000E-03 0. -1.
        -11    1    3    3    0    0 -0.26902252572E+01 -0.11931763243E+02 -0.90497934359E+01  0.15215224202E+02  0.51100000000E-03 0.  1.
        -12    1    3    3    0    0 -0.16474639154E+02 -0.23518926170E+02  0.11123372005E+01  0.28736578041E+02  0.00000000000E+00 0.  1.
</event>
<event>
 7    1  0.2339217E-009  0.4778727E+02  0.7816164E-02  0.1312668E+00
        -11   -1    0    0    0    0  0.00000000000E+00  0.00000000000E+00  0.45593999997E+02  0.45594000000E+02  0.51100000000E-03 0.  1.
         11   -1    0    0    0    0 -0.00000000000E+00 -0.00000000000E+00 -0.45593999997E+02  0.45594000000E+02  0.51100000000E-03 0. -1.
    9900012    2    1    2    0    0  0.32705156084E+02  0.23346212712E+02  0.16399709303E+02  0.47787270194E+02  0.19999996124E+02 0.  0.
         12    1    1    2    0    0 -0.32705156084E+02 -0.23346212712E+02 -0.16399709303E+02  0.43400729806E+02  0.00000000000E+00 0. -1.
         11    1    3    3    0    0  0.43498097062E+01  0.17626719005E+01  0.10049031054E+02  0.11091027098E+02  0.51100000000E-03 0.  1.
        -11    1    3    3    0    0  0.41815162379E+01  0.82764251385E+00  0.37803203843E+00  0.42793666192E+01  0.51100000000E-03 0. -1.
        -12    1    3    3    0    0  0.24173830139E+02  0.20755898298E+02  0.59726462107E+01  0.32416876477E+02  0.00000000000E+00 0.  1.
</event>
<event>
 7    1  0.2339217E-009  0.4778727E+02  0.7816164E-02  0.1312668E+00
        -11   -1    0    0    0    0  0.00000000000E+00  0.00000000000E+00  0.45593999997E+02  0.45594000000E+02  0.51100000000E-03 0. -1.
         11   -1    0    0    0    0 -0.00000000000E+00 -0.00000000000E+00 -0.45593999997E+02  0.45594000000E+02  0.51100000000E-03 0.  1.
    9900012    2    1    2    0    0  0.38182317126E+02  0.20181257758E+02  0.42954446539E+01  0.47787270161E+02  0.19999995970E+02 0.  0.
         12    1    1    2    0    0 -0.38182317126E+02 -0.20181257758E+02 -0.42954446539E+01  0.43400729839E+02  0.00000000000E+00 0. -1.
         11    1    3    3    0    0  0.15461149146E+02  0.40825812593E+01  0.45833400913E+01  0.16634951437E+02  0.51100000000E-03 0. -1.
        -11    1    3    3    0    0  0.58766240347E+01 -0.13390473073E+01  0.29179543137E+01  0.66964330337E+01  0.51100000000E-03 0.  1.
        -12    1    3    3    0    0  0.16844543945E+02  0.17437723806E+02 -0.32058497511E+01  0.24455885690E+02  0.00000000000E+00 0.  1.
</event>
<event>
 7    1  0.2339217E-009  0.4778727E+02  0.7816164E-02  0.1312668E+00
        -11   -1    0    0    0    0  0.00000000000E+00  0.00000000000E+00  0.45593999997E+02  0.45594000000E+02  0.51100000000E-03 0.  1.
         11   -1    0    0    0    0 -0.00000000000E+00 -0.00000000000E+00 -0.45593999997E+02  0.45594000000E+02  0.51100000000E-03 0. -1.
    9900012    2    1    2    0    0  0.15141125322E+02  0.69580494735E+01  0.40074370162E+02  0.47787271062E+02  0.20000000080E+02 0.  0.
         12    1    1    2    0    0 -0.15141125322E+02 -0.69580494735E+01 -0.40074370162E+02  0.43400728938E+02  0.00000000000E+00 0. -1.
         11    1    3    3    0    0  0.20709646818E+01 -0.26890756877E+01  0.12391801798E+02  0.12848220687E+02  0.51100000000E-03 0. -1.
        -11    1    3    3    0    0  0.18494718215E+01 -0.24825303248E+00  0.15592791557E+02  0.15704054394E+02  0.51100000000E-03 0.  1.
         12    1    3    3    0    0  0.11220688819E+02  0.98953781937E+01  0.12089776806E+02  0.19234995981E+02  0.00000000000E+00 0. -1.
</event>
<event>
 7    1  0.2339217E-009  0.4778727E+02  0.7816164E-02  0.1312668E+00
        -11   -1    0    0    0    0  0.00000000000E+00  0.00000000000E+00  0.45593999997E+02  0.45594000000E+02  0.51100000000E-03 0.  1.
         11   -1    0    0    0    0 -0.00000000000E+00 -0.00000000000E+00 -0.45593999997E+02  0.45594000000E+02  0.51100000000E-03 0. -1.
    9900012    2    1    2    0    0 -0.24563228650E+02  0.69007856640E+01  0.35109117929E+02  0.47787271823E+02  0.20000003551E+02 0.  0.
         12    1    1    2    0    0  0.24563228650E+02 -0.69007856640E+01 -0.35109117929E+02  0.43400728177E+02  0.00000000000E+00 0. -1.
         11    1    3    3    0    0  0.17572743266E+01  0.41076161603E+00  0.34403585324E+01  0.38849459786E+01  0.51100000000E-03 0. -1.
        -11    1    3    3    0    0 -0.80771240671E+01  0.88708454892E+01  0.13063886487E+02  0.17736881442E+02  0.51100000000E-03 0.  1.
         12    1    3    3    0    0 -0.18243378910E+02 -0.23808214413E+01  0.18604872910E+02  0.26165444402E+02  0.00000000000E+00 0. -1.
</event>
<event>
 7    1  0.2339217E-009  0.4778727E+02  0.7816164E-02  0.1312668E+00
        -11   -1    0    0    0    0  0.00000000000E+00  0.00000000000E+00  0.45593999997E+02  0.45594000000E+02  0.51100000000E-03 0.  1.
         11   -1    0    0    0    0 -0.00000000000E+00 -0.00000000000E+00 -0.45593999997E+02  0.45594000000E+02  0.51100000000E-03 0. -1.
    9900012    2    1    2    0    0 -0.36390169313E+02  0.16574085958E+02  0.16872418943E+02  0.47787271101E+02  0.20000000258E+02 0.  0.
         12    1    1    2    0    0  0.36390169313E+02 -0.16574085958E+02 -0.16872418943E+02  0.43400728899E+02  0.00000000000E+00 0. -1.
         11    1    3    3    0    0 -0.14598074278E+02  0.78081103711E+01  0.11723826038E+02  0.20285917712E+02  0.51100000000E-03 0. -1.
        -11    1    3    3    0    0 -0.20235395658E+02  0.25186032768E+01  0.52710899502E+01  0.21061789797E+02  0.51100000000E-03 0.  1.
        -12    1    3    3    0    0 -0.15566993764E+01  0.62473723101E+01 -0.12249704502E+00  0.64395635920E+01  0.00000000000E+00 0.  1.
</event>
<event>
 7    1  0.2339217E-009  0.4778727E+02  0.7816164E-02  0.1312668E+00
        -11   -1    0    0    0    0  0.00000000000E+00  0.00000000000E+00  0.45593999997E+02  0.45594000000E+02  0.51100000000E-03 0.  1.
         11   -1    0    0    0    0 -0.00000000000E+00 -0.00000000000E+00 -0.45593999997E+02  0.45594000000E+02  0.51100000000E-03 0. -1.
    9900012    2    1    2    0    0  0.14117412554E+02  0.66616731121E+01  0.40496221093E+02  0.47787272487E+02  0.20000006576E+02 0.  0.
         12    1    1    2    0    0 -0.14117412554E+02 -0.66616731121E+01 -0.40496221093E+02  0.43400727513E+02  0.00000000000E+00 0. -1.
         11    1    3    3    0    0  0.12992916497E+01  0.44390558952E+01  0.43054149284E+01  0.63190168538E+01  0.51100000000E-03 0. -1.
        -11    1    3    3    0    0  0.15222278974E+02 -0.76371507600E+00  0.33440136874E+02  0.36749745473E+02  0.51100000000E-03 0.  1.
        -12    1    3    3    0    0 -0.24041580696E+01  0.29863322929E+01  0.27506692902E+01  0.47185101602E+01  0.00000000000E+00 0.  1.
</event>
<event>
 7    1  0.2339217E-009  0.4778728E+02  0.7816164E-02  0.1312668E+00
        -11   -1    0    0    0    0  0.00000000000E+00  0.00000000000E+00  0.45593999997E+02  0.45594000000E+02  0.51100000000E-03 0.  1.
         11   -1    0    0    0    0 -0.00000000000E+00 -0.00000000000E+00 -0.45593999997E+02  0.45594000000E+02  0.51100000000E-03 0. -1.
    9900012    2    1    2    0    0  0.23126913998E+02 -0.89434709984E+01  0.35619976707E+02  0.47787279209E+02  0.20000037225E+02 0.  0.
         12    1    1    2    0    0 -0.23126913998E+02  0.89434709984E+01 -0.35619976707E+02  0.43400720791E+02  0.00000000000E+00 0. -1.
         11    1    3    3    0    0  0.59339584661E+01  0.20846201890E+01  0.40573972878E+01  0.74846494522E+01  0.51100000000E-03 0. -1.
        -11    1    3    3    0    0  0.13383637200E+02 -0.86338807604E+01  0.11254291864E+02  0.19501915991E+02  0.51100000000E-03 0.  1.
        -12    1    3    3    0    0  0.38093183312E+01 -0.23942104270E+01  0.20308287556E+02  0.20800713766E+02  0.00000000000E+00 0.  1.
</event>
<event>
 7    1  0.2339217E-009  0.4778728E+02  0.7816164E-02  0.1312668E+00
        -11   -1    0    0    0    0  0.00000000000E+00  0.00000000000E+00  0.45593999997E+02  0.45594000000E+02  0.51100000000E-03 0. -1.
         11   -1    0    0    0    0 -0.00000000000E+00 -0.00000000000E+00 -0.45593999997E+02  0.45594000000E+02  0.51100000000E-03 0.  1.
    9900012    2    1    2    0    0  0.43221384508E+02 -0.22136266002E+01 -0.32609895006E+01  0.47787282563E+02  0.20000052517E+02 0.  0.
         12    1    1    2    0    0 -0.43221384508E+02  0.22136266002E+01  0.32609895006E+01  0.43400717437E+02  0.00000000000E+00 0. -1.
         11    1    3    3    0    0  0.27911925937E+02 -0.28797985873E+01  0.78523720727E-01  0.28060203414E+02  0.51100000000E-03 0. -1.
        -11    1    3    3    0    0  0.13988911554E+02  0.30856494049E+01  0.12434658957E+01  0.14379050261E+02  0.51100000000E-03 0.  1.
         12    1    3    3    0    0  0.13205470178E+01 -0.24194774178E+01 -0.45829791170E+01  0.53480288882E+01  0.00000000000E+00 0. -1.
</event>
<event>
 7    1  0.2339217E-009  0.4778727E+02  0.7816164E-02  0.1312668E+00
        -11   -1    0    0    0    0  0.00000000000E+00  0.00000000000E+00  0.45593999997E+02  0.45594000000E+02  0.51100000000E-03 0.  1.
         11   -1    0    0    0    0 -0.00000000000E+00 -0.00000000000E+00 -0.45593999997E+02  0.45594000000E+02  0.51100000000E-03 0. -1.
    9900012    2    1    2    0    0  0.23025336874E+02 -0.12821972988E+02  0.34482671960E+02  0.47787265042E+02  0.19999972631E+02 0.  0.
         12    1    1    2    0    0 -0.23025336874E+02  0.12821972988E+02 -0.34482671960E+02  0.43400734958E+02  0.00000000000E+00 0. -1.
         11    1    3    3    0    0  0.38492285466E+01 -0.35208666231E+00  0.50612216787E+01  0.63683978020E+01  0.51100000000E-03 0. -1.
        -11    1    3    3    0    0  0.22644066749E+02 -0.97092033550E+01  0.26000547106E+02  0.35819699032E+02  0.51100000000E-03 0.  1.
         12    1    3    3    0    0 -0.34679584217E+01 -0.27606829710E+01  0.34209031748E+01  0.55991682072E+01  0.00000000000E+00 0. -1.
</event>
<event>
 7    1  0.2339217E-009  0.4778727E+02  0.7816164E-02  0.1312668E+00
        -11   -1    0    0    0    0  0.00000000000E+00  0.00000000000E+00  0.45593999997E+02  0.45594000000E+02  0.51100000000E-03 0.  1.
         11   -1    0    0    0    0 -0.00000000000E+00 -0.00000000000E+00 -0.45593999997E+02  0.45594000000E+02  0.51100000000E-03 0. -1.
    9900012    2    1    2    0    0  0.31357431783E+02  0.10182031578E+02  0.28225183208E+02  0.47787271179E+02  0.20000000612E+02 0.  0.
         12    1    1    2    0    0 -0.31357431783E+02 -0.10182031578E+02 -0.28225183208E+02  0.43400728821E+02  0.00000000000E+00 0. -1.
         11    1    3    3    0    0  0.12516265001E+02  0.47314013877E+01  0.71972241584E+01  0.15193521136E+02  0.51100000000E-03 0. -1.
        -11    1    3    3    0    0  0.71832330540E+01  0.86127726200E+01  0.44132357277E+01  0.12052192297E+02  0.51100000000E-03 0.  1.
         12    1    3    3    0    0  0.11657933728E+02 -0.31621424293E+01  0.16614723322E+02  0.20541557745E+02  0.00000000000E+00 0. -1.
</event>
<event>
 7    1  0.2339217E-009  0.4778727E+02  0.7816164E-02  0.1312668E+00
        -11   -1    0    0    0    0  0.00000000000E+00  0.00000000000E+00  0.45593999997E+02  0.45594000000E+02  0.51100000000E-03 0. -1.
         11   -1    0    0    0    0 -0.00000000000E+00 -0.00000000000E+00 -0.45593999997E+02  0.45594000000E+02  0.51100000000E-03 0.  1.
    9900012    2    1    2    0    0  0.24394417545E+02  0.27118308236E+02 -0.23518789217E+02  0.47787266191E+02  0.19999977872E+02 0.  0.
         12    1    1    2    0    0 -0.24394417545E+02 -0.27118308236E+02  0.23518789217E+02  0.43400733809E+02  0.00000000000E+00 0. -1.
         11    1    3    3    0    0  0.71216141068E+01  0.11112871886E+02 -0.14915889311E+02  0.19917255415E+02  0.51100000000E-03 0. -1.
        -11    1    3    3    0    0  0.88001572471E+01  0.14917262569E+02 -0.85786902284E+01  0.19327736971E+02  0.51100000000E-03 0.  1.
        -12    1    3    3    0    0  0.84726461910E+01  0.10881737803E+01 -0.24209676903E-01  0.85422738052E+01  0.00000000000E+00 0.  1.
</event>
<event>
 7    1  0.2339217E-009  0.4778726E+02  0.7816164E-02  0.1312668E+00
        -11   -1    0    0    0    0  0.00000000000E+00  0.00000000000E+00  0.45593999997E+02  0.45594000000E+02  0.51100000000E-03 0.  1.
         11   -1    0    0    0    0 -0.00000000000E+00 -0.00000000000E+00 -0.45593999997E+02  0.45594000000E+02  0.51100000000E-03 0. -1.
    9900012    2    1    2    0    0 -0.21883536701E+02  0.17807697177E+02  0.32979099028E+02  0.47787260030E+02  0.19999949779E+02 0.  0.
         12    1    1    2    0    0  0.21883536701E+02 -0.17807697177E+02 -0.32979099028E+02  0.43400739970E+02  0.00000000000E+00 0. -1.
         11    1    3    3    0    0 -0.98666923809E+01  0.27375392699E+01  0.80292266520E+01  0.13012079799E+02  0.51100000000E-03 0. -1.
        -11    1    3    3    0    0 -0.13991133315E+02  0.13698732888E+02  0.15353953706E+02  0.24882744801E+02  0.51100000000E-03 0.  1.
         12    1    3    3    0    0  0.19742889946E+01  0.13714250190E+01  0.95959186696E+01  0.98924354297E+01  0.00000000000E+00 0. -1.
</event>
<event>
 7    1  0.2339217E-009  0.4778726E+02  0.7816164E-02  0.1312668E+00
        -11   -1    0    0    0    0  0.00000000000E+00  0.00000000000E+00  0.45593999997E+02  0.45594000000E+02  0.51100000000E-03 0.  1.
         11   -1    0    0    0    0 -0.00000000000E+00 -0.00000000000E+00 -0.45593999997E+02  0.45594000000E+02  0.51100000000E-03 0. -1.
    9900012    2    1    2    0    0  0.36415516164E+01 -0.25817843167E+02  0.34695848286E+02  0.47787264842E+02  0.19999971723E+02 0.  0.
         12    1    1    2    0    0 -0.36415516164E+01  0.25817843167E+02 -0.34695848286E+02  0.43400735158E+02  0.00000000000E+00 0. -1.
         11    1    3    3    0    0  0.44057940125E+01 -0.14733819121E+02  0.19750933380E+02  0.25031895981E+02  0.51100000000E-03 0.  1.
        -11    1    3    3    0    0  0.31157242147E+01 -0.89169771531E+01  0.15626328228E+02  0.18259308669E+02  0.51100000000E-03 0. -1.
        -12    1    3    3    0    0 -0.38799666107E+01 -0.21670468927E+01 -0.68141332225E+00  0.44960601921E+01  0.00000000000E+00 0.  1.
</event>
<event>
 7    1  0.2339217E-009  0.4778728E+02  0.7816164E-02  0.1312668E+00
        -11   -1    0    0    0    0  0.00000000000E+00  0.00000000000E+00  0.45593999997E+02  0.45594000000E+02  0.51100000000E-03 0.  1.
         11   -1    0    0    0    0 -0.00000000000E+00 -0.00000000000E+00 -0.45593999997E+02  0.45594000000E+02  0.51100000000E-03 0. -1.
    9900012    2    1    2    0    0  0.18793510804E+02 -0.36405651291E+01  0.38950902330E+02  0.47787279325E+02  0.20000037752E+02 0.  0.
         12    1    1    2    0    0 -0.18793510804E+02  0.36405651291E+01 -0.38950902330E+02  0.43400720675E+02  0.00000000000E+00 0. -1.
         11    1    3    3    0    0  0.46127803237E+01 -0.72240046463E+01  0.13434184335E+02  0.15935535587E+02  0.51100000000E-03 0. -1.
        -11    1    3    3    0    0  0.19772439589E+01 -0.78719285116E-01 -0.11562889636E+01  0.22918758316E+01  0.51100000000E-03 0.  1.
        -12    1    3    3    0    0  0.12203486521E+02  0.36621588024E+01  0.26673006959E+02  0.29559867906E+02  0.00000000000E+00 0.  1.
</event>
<event>
 7    1  0.2339217E-009  0.4778726E+02  0.7816164E-02  0.1312668E+00
        -11   -1    0    0    0    0  0.00000000000E+00  0.00000000000E+00  0.45593999997E+02  0.45594000000E+02  0.51100000000E-03 0.  1.
         11   -1    0    0    0    0 -0.00000000000E+00 -0.00000000000E+00 -0.45593999997E+02  0.45594000000E+02  0.51100000000E-03 0. -1.
    9900012    2    1    2    0    0  0.29300655430E+02 -0.21081330004E+02  0.24097159373E+02  0.47787262988E+02  0.19999963267E+02 0.  0.
         12    1    1    2    0    0 -0.29300655430E+02  0.21081330004E+02 -0.24097159373E+02  0.43400737012E+02  0.00000000000E+00 0. -1.
         11    1    3    3    0    0  0.24924260103E+01 -0.13692774508E+00  0.23077425741E+01  0.33995018273E+01  0.51100000000E-03 0. -1.
        -11    1    3    3    0    0  0.25467709290E+02 -0.10416622103E+02  0.12255743222E+02  0.30121644622E+02  0.51100000000E-03 0.  1.
         12    1    3    3    0    0  0.13405201291E+01 -0.10527780156E+02  0.95336735769E+01  0.14266116539E+02  0.00000000000E+00 0. -1.
</event>
<event>
 7    1  0.2339217E-009  0.4778727E+02  0.7816164E-02  0.1312668E+00
        -11   -1    0    0    0    0  0.00000000000E+00  0.00000000000E+00  0.45593999997E+02  0.45594000000E+02  0.51100000000E-03 0. -1.
         11   -1    0    0    0    0 -0.00000000000E+00 -0.00000000000E+00 -0.45593999997E+02  0.45594000000E+02  0.51100000000E-03 0.  1.
    9900012    2    1    2    0    0  0.12421180093E+02 -0.14339674501E+01 -0.41560571565E+02  0.47787273205E+02  0.20000009851E+02 0.  0.
         12    1    1    2    0    0 -0.12421180093E+02  0.14339674501E+01  0.41560571565E+02  0.43400726795E+02  0.00000000000E+00 0. -1.
         11    1    3    3    0    0 -0.17183563299E+01  0.13064404318E+01 -0.26501641116E+01  0.34180265005E+01  0.51100000000E-03 0. -1.
        -11    1    3    3    0    0  0.11987816088E+02  0.43844848242E+01 -0.30911609802E+02  0.33443370980E+02  0.51100000000E-03 0.  1.
         12    1    3    3    0    0  0.21517203342E+01 -0.71248927061E+01 -0.79987976516E+01  0.10925875724E+02  0.00000000000E+00 0. -1.
</event>
<event>
 7    1  0.2339217E-009  0.4778727E+02  0.7816164E-02  0.1312668E+00
        -11   -1    0    0    0    0  0.00000000000E+00  0.00000000000E+00  0.45593999997E+02  0.45594000000E+02  0.51100000000E-03 0. -1.
         11   -1    0    0    0    0 -0.00000000000E+00 -0.00000000000E+00 -0.45593999997E+02  0.45594000000E+02  0.51100000000E-03 0.  1.
    9900012    2    1    2    0    0 -0.34508048791E+02  0.23108398940E+02 -0.12602375504E+02  0.47787269577E+02  0.19999993310E+02 0.  0.
         12    1    1    2    0    0  0.34508048791E+02 -0.23108398940E+02  0.12602375504E+02  0.43400730423E+02  0.00000000000E+00 0. -1.
         11    1    3    3    0    0 -0.89735016718E+01  0.34121845521E+01 -0.40610010759E+00  0.96089361133E+01  0.51100000000E-03 0. -1.
        -11    1    3    3    0    0 -0.12717755100E+02  0.85658874205E-01 -0.35233752632E+01  0.13197075651E+02  0.51100000000E-03 0.  1.
        -12    1    3    3    0    0 -0.12816792019E+02  0.19610555513E+02 -0.86729001328E+01  0.24981257813E+02  0.00000000000E+00 0.  1.
</event>
<event>
 7    1  0.2339217E-009  0.4778728E+02  0.7816164E-02  0.1312668E+00
        -11   -1    0    0    0    0  0.00000000000E+00  0.00000000000E+00  0.45593999997E+02  0.45594000000E+02  0.51100000000E-03 0. -1.
         11   -1    0    0    0    0 -0.00000000000E+00 -0.00000000000E+00 -0.45593999997E+02  0.45594000000E+02  0.51100000000E-03 0.  1.
    9900012    2    1    2    0    0 -0.22669889697E+02  0.36769933599E+02  0.42036526645E+01  0.47787278676E+02  0.20000034794E+02 0.  0.
         12    1    1    2    0    0  0.22669889697E+02 -0.36769933599E+02 -0.42036526645E+01  0.43400721324E+02  0.00000000000E+00 0. -1.
         11    1    3    3    0    0  0.66400100537E+00 -0.93780995922E+00 -0.36933630496E+00  0.12069773909E+01  0.51100000000E-03 0. -1.
        -11    1    3    3    0    0 -0.13498015442E+02  0.99440980294E+01  0.33729883955E+01  0.17101419750E+02  0.51100000000E-03 0.  1.
         12    1    3    3    0    0 -0.98358752605E+01  0.27763645529E+02  0.12000005740E+01  0.29478881535E+02  0.00000000000E+00 0. -1.
</event>
<event>
 7    1  0.2339217E-009  0.4778727E+02  0.7816164E-02  0.1312668E+00
        -11   -1    0    0    0    0  0.00000000000E+00  0.00000000000E+00  0.45593999997E+02  0.45594000000E+02  0.51100000000E-03 0.  1.
         11   -1    0    0    0    0 -0.00000000000E+00 -0.00000000000E+00 -0.45593999997E+02  0.45594000000E+02  0.51100000000E-03 0. -1.
    9900012    2    1    2    0    0  0.20138723768E+02 -0.29436892837E+02  0.24729025681E+02  0.47787267678E+02  0.19999984653E+02 0.  0.
         12    1    1    2    0    0 -0.20138723768E+02  0.29436892837E+02 -0.24729025681E+02  0.43400732322E+02  0.00000000000E+00 0. -1.
         11    1    3    3    0    0  0.22710047052E+01  0.97248866195E-01 -0.13359524107E+01  0.26366055484E+01  0.51100000000E-03 0. -1.
        -11    1    3    3    0    0  0.13673815887E+02 -0.10306171317E+02  0.10798681842E+02  0.20243565346E+02  0.51100000000E-03 0.  1.
         12    1    3    3    0    0  0.41939031760E+01 -0.19227970386E+02  0.15266296250E+02  0.24907096784E+02  0.00000000000E+00 0. -1.
</event>
<event>
 7    1  0.2339217E-009  0.4778727E+02  0.7816164E-02  0.1312668E+00
        -11   -1    0    0    0    0  0.00000000000E+00  0.00000000000E+00  0.45593999997E+02  0.45594000000E+02  0.51100000000E-03 0.  1.
         11   -1    0    0    0    0 -0.00000000000E+00 -0.00000000000E+00 -0.45593999997E+02  0.45594000000E+02  0.51100000000E-03 0. -1.
    9900012    2    1    2    0    0  0.16512004728E+02 -0.19050306102E+02  0.35327928486E+02  0.47787274270E+02  0.20000014708E+02 0.  0.
         12    1    1    2    0    0 -0.16512004728E+02  0.19050306102E+02 -0.35327928486E+02  0.43400725730E+02  0.00000000000E+00 0. -1.
         11    1    3    3    0    0  0.12034870400E+02 -0.36847179273E+01  0.67706778416E+01  0.14291862385E+02  0.51100000000E-03 0. -1.
        -11    1    3    3    0    0  0.31240084222E+01 -0.82885505798E+01  0.88887254180E+01  0.12548662843E+02  0.51100000000E-03 0.  1.
         12    1    3    3    0    0  0.13531259063E+01 -0.70770375953E+01  0.19668525226E+02  0.20946749042E+02  0.00000000000E+00 0. -1.
</event>
<event>
 7    1  0.2339217E-009  0.4778727E+02  0.7816164E-02  0.1312668E+00
        -11   -1    0    0    0    0  0.00000000000E+00  0.00000000000E+00  0.45593999997E+02  0.45594000000E+02  0.51100000000E-03 0.  1.
         11   -1    0    0    0    0 -0.00000000000E+00 -0.00000000000E+00 -0.45593999997E+02  0.45594000000E+02  0.51100000000E-03 0. -1.
    9900012    2    1    2    0    0 -0.47872294723E+01  0.42778881512E+02  0.55383433774E+01  0.47787268246E+02  0.19999987239E+02 0.  0.
         12    1    1    2    0    0  0.47872294723E+01 -0.42778881512E+02 -0.55383433774E+01  0.43400731754E+02  0.00000000000E+00 0. -1.
         11    1    3    3    0    0  0.21107319543E+01  0.17240984655E+02  0.33303697803E+01  0.17686099185E+02  0.51100000000E-03 0. -1.
        -11    1    3    3    0    0  0.33935335822E+01  0.12546927097E+02 -0.15999861711E+01  0.13095854526E+02  0.51100000000E-03 0.  1.
         12    1    3    3    0    0 -0.10291495009E+02  0.12990969760E+02  0.38079597682E+01  0.17005314535E+02  0.00000000000E+00 0. -1.
</event>
<event>
 7    1  0.3223637E-009  0.4778726E+02  0.7816164E-02  0.1312668E+00
        -11   -1    0    0    0    0  0.00000000000E+00  0.00000000000E+00  0.45593999997E+02  0.45594000000E+02  0.51100000000E-03 0. -1.
         11   -1    0    0    0    0 -0.00000000000E+00 -0.00000000000E+00 -0.45593999997E+02  0.45594000000E+02  0.51100000000E-03 0.  1.
    9900012    2    1    2    0    0  0.13873965858E+02 -0.29959534919E+02 -0.28170266289E+02  0.47787256182E+02  0.19999932235E+02 0.  0.
         12    1    1    2    0    0 -0.13873965858E+02  0.29959534919E+02  0.28170266289E+02  0.43400743818E+02  0.00000000000E+00 0. -1.
         11    1    3    3    0    0  0.67520037167E+01 -0.96838771429E+01 -0.18496247297E+01  0.11949399257E+02  0.51100000000E-03 0. -1.
        -11    1    3    3    0    0  0.95126685483E+01 -0.15692933487E+02 -0.16221237574E+02  0.24492602415E+02  0.51100000000E-03 0.  1.
         12    1    3    3    0    0 -0.23907064069E+01 -0.45827242884E+01 -0.10099403985E+02  0.11345254510E+02  0.00000000000E+00 0. -1.
</event>
<event>
 7    1  0.2339217E-009  0.4778723E+02  0.7816164E-02  0.1312668E+00
        -11   -1    0    0    0    0  0.00000000000E+00  0.00000000000E+00  0.45593999997E+02  0.45594000000E+02  0.51100000000E-03 0.  1.
         11   -1    0    0    0    0 -0.00000000000E+00 -0.00000000000E+00 -0.45593999997E+02  0.45594000000E+02  0.51100000000E-03 0. -1.
    9900012    2    1    2    0    0 -0.81303058895E+01  0.41105662752E+02 -0.11307065651E+02  0.47787226761E+02  0.19999798091E+02 0.  0.
         12    1    1    2    0    0  0.81303058895E+01 -0.41105662752E+02  0.11307065651E+02  0.43400773239E+02  0.00000000000E+00 0. -1.
         11    1    3    3    0    0  0.85294386172E+00  0.88127378045E+00  0.34963901171E+01  0.37052531384E+01  0.51100000000E-03 0. -1.
        -11    1    3    3    0    0 -0.34554509265E+01  0.96196774178E+01 -0.18272544382E+01  0.10383505852E+02  0.51100000000E-03 0.  1.
         12    1    3    3    0    0 -0.55277988248E+01  0.30604711554E+02 -0.12976201330E+02  0.33698467771E+02  0.00000000000E+00 0. -1.
</event>
<event>
 7    1  0.2339217E-009  0.4778727E+02  0.7816164E-02  0.1312668E+00
        -11   -1    0    0    0    0  0.00000000000E+00  0.00000000000E+00  0.45593999997E+02  0.45594000000E+02  0.51100000000E-03 0.  1.
         11   -1    0    0    0    0 -0.00000000000E+00 -0.00000000000E+00 -0.45593999997E+02  0.45594000000E+02  0.51100000000E-03 0. -1.
    9900012    2    1    2    0    0 -0.16580886165E+02 -0.36185241051E+02 -0.17301030003E+02  0.47787273104E+02  0.20000009389E+02 0.  0.
         12    1    1    2    0    0  0.16580886165E+02  0.36185241051E+02  0.17301030003E+02  0.43400726896E+02  0.00000000000E+00 0. -1.
         11    1    3    3    0    0 -0.53789548098E+01 -0.22673007220E+02 -0.79140080325E+01  0.24609549664E+02  0.51100000000E-03 0. -1.
        -11    1    3    3    0    0 -0.18897331344E+01 -0.10978294608E+02 -0.27782176382E+01  0.11480964128E+02  0.51100000000E-03 0.  1.
         12    1    3    3    0    0 -0.93121982205E+01 -0.25339392239E+01 -0.66088043326E+01  0.11696759312E+02  0.00000000000E+00 0. -1.
</event>
<event>
 7    1  0.2339217E-009  0.4778728E+02  0.7816164E-02  0.1312668E+00
        -11   -1    0    0    0    0  0.00000000000E+00  0.00000000000E+00  0.45593999997E+02  0.45594000000E+02  0.51100000000E-03 0. -1.
         11   -1    0    0    0    0 -0.00000000000E+00 -0.00000000000E+00 -0.45593999997E+02  0.45594000000E+02  0.51100000000E-03 0.  1.
    9900012    2    1    2    0    0 -0.12093097178E+02  0.34253037232E+02 -0.23750985298E+02  0.47787275794E+02  0.20000021654E+02 0.  0.
         12    1    1    2    0    0  0.12093097178E+02 -0.34253037232E+02  0.23750985298E+02  0.43400724206E+02  0.00000000000E+00 0. -1.
         11    1    3    3    0    0 -0.56401768253E+01  0.73640223565E+01 -0.60487448856E+01  0.11073740779E+02  0.51100000000E-03 0. -1.
        -11    1    3    3    0    0 -0.11470946201E+02  0.22436842307E+02 -0.15791687188E+02  0.29738390743E+02  0.51100000000E-03 0.  1.
         12    1    3    3    0    0  0.50180258480E+01  0.44521725683E+01 -0.19105532246E+01  0.69751442718E+01  0.00000000000E+00 0. -1.
</event>
<event>
 7    1  0.2339217E-009  0.4778727E+02  0.7816164E-02  0.1312668E+00
        -11   -1    0    0    0    0  0.00000000000E+00  0.00000000000E+00  0.45593999997E+02  0.45594000000E+02  0.51100000000E-03 0.  1.
         11   -1    0    0    0    0 -0.00000000000E+00 -0.00000000000E+00 -0.45593999997E+02  0.45594000000E+02  0.51100000000E-03 0. -1.
    9900012    2    1    2    0    0  0.26248234794E+02 -0.29511994220E+02  0.17991537352E+02  0.47787273636E+02  0.20000011815E+02 0.  0.
         12    1    1    2    0    0 -0.26248234794E+02  0.29511994220E+02 -0.17991537352E+02  0.43400726364E+02  0.00000000000E+00 0. -1.
         11    1    3    3    0    0  0.11913941934E+02 -0.76776513788E+01  0.11688744162E+02  0.18371583585E+02  0.51100000000E-03 0. -1.
        -11    1    3    3    0    0  0.33323870069E+00 -0.46937579251E+01  0.55424228825E+01  0.72705476521E+01  0.51100000000E-03 0.  1.
         12    1    3    3    0    0  0.14001054159E+02 -0.17140584916E+02  0.76037030826E+00  0.22145142398E+02  0.00000000000E+00 0. -1.
</event>
<event>
 7    1  0.2339217E-009  0.4778728E+02  0.7816164E-02  0.1312668E+00
        -11   -1    0    0    0    0  0.00000000000E+00  0.00000000000E+00  0.45593999997E+02  0.45594000000E+02  0.51100000000E-03 0.  1.
         11   -1    0    0    0    0 -0.00000000000E+00 -0.00000000000E+00 -0.45593999997E+02  0.45594000000E+02  0.51100000000E-03 0. -1.
    9900012    2    1    2    0    0 -0.26046259921E+02 -0.28860127571E+02  0.19295277371E+02  0.47787281710E+02  0.20000048627E+02 0.  0.
         12    1    1    2    0    0  0.26046259921E+02  0.28860127571E+02 -0.19295277371E+02  0.43400718290E+02  0.00000000000E+00 0. -1.
         11    1    3    3    0    0 -0.62445780678E+01 -0.64033539643E+00 -0.13519361712E+01  0.64212550437E+01  0.51100000000E-03 0. -1.
        -11    1    3    3    0    0 -0.36790640334E+01 -0.12969499450E+02  0.97833072048E+01  0.16657026394E+02  0.51100000000E-03 0.  1.
        -12    1    3    3    0    0 -0.16122617820E+02 -0.15250292724E+02  0.10863906338E+02  0.24709000272E+02  0.00000000000E+00 0.  1.
</event>
<event>
 7    1  0.2339217E-009  0.4778729E+02  0.7816164E-02  0.1312668E+00
        -11   -1    0    0    0    0  0.00000000000E+00  0.00000000000E+00  0.45593999997E+02  0.45594000000E+02  0.51100000000E-03 0.  1.
         11   -1    0    0    0    0 -0.00000000000E+00 -0.00000000000E+00 -0.45593999997E+02  0.45594000000E+02  0.51100000000E-03 0. -1.
    9900012    2    1    2    0    0 -0.64457573006E+01 -0.19095371798E+02  0.38437489438E+02  0.47787290264E+02  0.20000087630E+02 0.  0.
         12    1    1    2    0    0  0.64457573006E+01  0.19095371798E+02 -0.38437489438E+02  0.43400709736E+02  0.00000000000E+00 0. -1.
         11    1    3    3    0    0  0.21139429647E+01  0.42916275826E+00  0.80670663705E+01  0.83504787658E+01  0.51100000000E-03 0. -1.
        -11    1    3    3    0    0  0.87985461580E+00 -0.44848169874E+01  0.38277355263E+00  0.45863104353E+01  0.51100000000E-03 0.  1.
        -12    1    3    3    0    0 -0.94395548810E+01 -0.15039717569E+02  0.29987649515E+02  0.34850501063E+02  0.00000000000E+00 0.  1.
</event>
<event>
 7    1  0.2339217E-009  0.4778727E+02  0.7816164E-02  0.1312668E+00
        -11   -1    0    0    0    0  0.00000000000E+00  0.00000000000E+00  0.45593999997E+02  0.45594000000E+02  0.51100000000E-03 0.  1.
         11   -1    0    0    0    0 -0.00000000000E+00 -0.00000000000E+00 -0.45593999997E+02  0.45594000000E+02  0.51100000000E-03 0. -1.
    9900012    2    1    2    0    0 -0.61398888372E+01  0.38181881894E+02  0.19699466707E+02  0.47787270416E+02  0.19999997134E+02 0.  0.
         12    1    1    2    0    0  0.61398888372E+01 -0.38181881894E+02 -0.19699466707E+02  0.43400729584E+02  0.00000000000E+00 0. -1.
         11    1    3    3    0    0 -0.43566256766E+01  0.21371373408E+02  0.94165827579E+01  0.23756847849E+02  0.51100000000E-03 0. -1.
        -11    1    3    3    0    0 -0.70934826616E+01  0.12790776539E+02  0.47685568919E+01  0.15383777034E+02  0.51100000000E-03 0.  1.
         12    1    3    3    0    0  0.53102195010E+01  0.40197319465E+01  0.55143270573E+01  0.86466455326E+01  0.00000000000E+00 0. -1.
</event>
<event>
 7    1  0.2339217E-009  0.4778727E+02  0.7816164E-02  0.1312668E+00
        -11   -1    0    0    0    0  0.00000000000E+00  0.00000000000E+00  0.45593999997E+02  0.45594000000E+02  0.51100000000E-03 0.  1.
         11   -1    0    0    0    0 -0.00000000000E+00 -0.00000000000E+00 -0.45593999997E+02  0.45594000000E+02  0.51100000000E-03 0. -1.
    9900012    2    1    2    0    0  0.66328661087E+01 -0.40772271101E+02  0.13313528510E+02  0.47787273682E+02  0.20000012026E+02 0.  0.
         12    1    1    2    0    0 -0.66328661087E+01  0.40772271101E+02 -0.13313528510E+02  0.43400726318E+02  0.00000000000E+00 0. -1.
         11    1    3    3    0    0  0.39181096585E+01 -0.24604066099E+01 -0.22954109834E+01  0.51646970701E+01  0.51100000000E-03 0. -1.
        -11    1    3    3    0    0  0.52374264166E+01 -0.12372090394E+02  0.34920866059E+01  0.13881423749E+02  0.51100000000E-03 0.  1.
        -12    1    3    3    0    0 -0.25226699664E+01 -0.25939774097E+02  0.12116852887E+02  0.28741152863E+02  0.00000000000E+00 0.  1.
</event>
<event>
 7    1  0.2339217E-009  0.4778728E+02  0.7816164E-02  0.1312668E+00
        -11   -1    0    0    0    0  0.00000000000E+00  0.00000000000E+00  0.45593999997E+02  0.45594000000E+02  0.51100000000E-03 0.  1.
         11   -1    0    0    0    0 -0.00000000000E+00 -0.00000000000E+00 -0.45593999997E+02  0.45594000000E+02  0.51100000000E-03 0. -1.
    9900012    2    1    2    0    0 -0.35539940716E+02  0.59665795420E+01  0.24185432836E+02  0.47787278589E+02  0.20000034400E+02 0.  0.
         12    1    1    2    0    0  0.35539940716E+02 -0.59665795420E+01 -0.24185432836E+02  0.43400721411E+02  0.00000000000E+00 0. -1.
         11    1    3    3    0    0 -0.61529305410E+01  0.24552538182E+01 -0.21969523500E+01  0.69795003720E+01  0.51100000000E-03 0. -1.
        -11    1    3    3    0    0 -0.12449145029E+00  0.77852989212E+00 -0.53611845022E+00  0.95343073577E+00  0.51100000000E-03 0.  1.
        -12    1    3    3    0    0 -0.29262518725E+02  0.27327958318E+01  0.26918503636E+02  0.39854347481E+02  0.00000000000E+00 0.  1.
</event>
<event>
 7    1  0.2339217E-009  0.4778727E+02  0.7816164E-02  0.1312668E+00
        -11   -1    0    0    0    0  0.00000000000E+00  0.00000000000E+00  0.45593999997E+02  0.45594000000E+02  0.51100000000E-03 0. -1.
         11   -1    0    0    0    0 -0.00000000000E+00 -0.00000000000E+00 -0.45593999997E+02  0.45594000000E+02  0.51100000000E-03 0.  1.
    9900012    2    1    2    0    0 -0.13962000303E+02  0.41868174754E+01 -0.40879779384E+02  0.47787271256E+02  0.20000000965E+02 0.  0.
         12    1    1    2    0    0  0.13962000303E+02 -0.41868174754E+01  0.40879779384E+02  0.43400728744E+02  0.00000000000E+00 0. -1.
         11    1    3    3    0    0 -0.34680241207E+01  0.35347054364E+01 -0.14873379802E+01  0.51704456628E+01  0.51100000000E-03 0. -1.
        -11    1    3    3    0    0 -0.12162463567E+02  0.33935759067E+01 -0.34750588445E+02  0.36973575362E+02  0.51100000000E-03 0.  1.
         12    1    3    3    0    0  0.16684873852E+01 -0.27414638677E+01 -0.46418529583E+01  0.56432502318E+01  0.00000000000E+00 0. -1.
</event>
<event>
 7    1  0.2339217E-009  0.4778727E+02  0.7816164E-02  0.1312668E+00
        -11   -1    0    0    0    0  0.00000000000E+00  0.00000000000E+00  0.45593999997E+02  0.45594000000E+02  0.51100000000E-03 0. -1.
         11   -1    0    0    0    0 -0.00000000000E+00 -0.00000000000E+00 -0.45593999997E+02  0.45594000000E+02  0.51100000000E-03 0.  1.
    9900012    2    1    2    0    0  0.11153548818E+02  0.26036827556E+02 -0.32883208442E+02  0.47787269155E+02  0.19999991387E+02 0.  0.
         12    1    1    2    0    0 -0.11153548818E+02 -0.26036827556E+02  0.32883208442E+02  0.43400730845E+02  0.00000000000E+00 0. -1.
         11    1    3    3    0    0  0.80145967489E+01  0.15373465521E+01 -0.80666256605E+01  0.11474652294E+02  0.51100000000E-03 0. -1.
        -11    1    3    3    0    0  0.62616466842E+01  0.11037950927E+02 -0.11879577591E+02  0.17383007331E+02  0.51100000000E-03 0.  1.
        -12    1    3    3    0    0 -0.31226946148E+01  0.13461530077E+02 -0.12937005190E+02  0.18929609530E+02  0.00000000000E+00 0.  1.
</event>
<event>
 7    1  0.2339217E-009  0.4778727E+02  0.7816164E-02  0.1312668E+00
        -11   -1    0    0    0    0  0.00000000000E+00  0.00000000000E+00  0.45593999997E+02  0.45594000000E+02  0.51100000000E-03 0. -1.
         11   -1    0    0    0    0 -0.00000000000E+00 -0.00000000000E+00 -0.45593999997E+02  0.45594000000E+02  0.51100000000E-03 0.  1.
    9900012    2    1    2    0    0  0.43385002596E+02 -0.82203235692E+00 -0.83036936279E+00  0.47787266127E+02  0.19999977579E+02 0.  0.
         12    1    1    2    0    0 -0.43385002596E+02  0.82203235692E+00  0.83036936279E+00  0.43400733873E+02  0.00000000000E+00 0. -1.
         11    1    3    3    0    0  0.12493144640E+01  0.42566486571E+01 -0.43930264902E+00  0.44578954114E+01  0.51100000000E-03 0. -1.
        -11    1    3    3    0    0  0.36574405252E+01 -0.52344904194E+00 -0.26026456913E+01  0.45193622283E+01  0.51100000000E-03 0.  1.
        -12    1    3    3    0    0  0.38478247607E+02 -0.45552319721E+01  0.22115789776E+01  0.38810008487E+02  0.00000000000E+00 0.  1.
</event>
<event>
 7    1  0.2339217E-009  0.4778727E+02  0.7816164E-02  0.1312668E+00
        -11   -1    0    0    0    0  0.00000000000E+00  0.00000000000E+00  0.45593999997E+02  0.45594000000E+02  0.51100000000E-03 0. -1.
         11   -1    0    0    0    0 -0.00000000000E+00 -0.00000000000E+00 -0.45593999997E+02  0.45594000000E+02  0.51100000000E-03 0.  1.
    9900012    2    1    2    0    0 -0.42262110031E+02 -0.57956131685E+01 -0.79967664862E+01  0.47787270161E+02  0.19999995973E+02 0.  0.
         12    1    1    2    0    0  0.42262110031E+02  0.57956131685E+01  0.79967664862E+01  0.43400729839E+02  0.00000000000E+00 0. -1.
         11    1    3    3    0    0 -0.15515616125E+02 -0.68378985187E+01 -0.44792433071E+01  0.17537240967E+02  0.51100000000E-03 0. -1.
        -11    1    3    3    0    0 -0.17335508806E+02 -0.15752223561E+01  0.40756640875E+01  0.17877702007E+02  0.51100000000E-03 0.  1.
        -12    1    3    3    0    0 -0.94109851007E+01  0.26175077063E+01 -0.75931872666E+01  0.12372327187E+02  0.00000000000E+00 0.  1.
</event>
<event>
 7    1  0.2339217E-009  0.4778727E+02  0.7816164E-02  0.1312668E+00
        -11   -1    0    0    0    0  0.00000000000E+00  0.00000000000E+00  0.45593999997E+02  0.45594000000E+02  0.51100000000E-03 0. -1.
         11   -1    0    0    0    0 -0.00000000000E+00 -0.00000000000E+00 -0.45593999997E+02  0.45594000000E+02  0.51100000000E-03 0.  1.
    9900012    2    1    2    0    0 -0.18951428320E+02  0.29087033349E+02 -0.26046322860E+02  0.47787273290E+02  0.20000010238E+02 0.  0.
         12    1    1    2    0    0  0.18951428320E+02 -0.29087033349E+02  0.26046322860E+02  0.43400726710E+02  0.00000000000E+00 0. -1.
         11    1    3    3    0    0 -0.85927808552E+01  0.61710977789E+01 -0.20107317707E+01  0.10768536258E+02  0.51100000000E-03 0. -1.
        -11    1    3    3    0    0 -0.11059317536E+02  0.15228600508E+02 -0.10807240534E+02  0.21702885200E+02  0.51100000000E-03 0.  1.
        -12    1    3    3    0    0  0.70067007072E+00  0.76873350617E+01 -0.13228350556E+02  0.15315851832E+02  0.00000000000E+00 0.  1.
</event>
<event>
 7    1  0.2339217E-009  0.4778727E+02  0.7816164E-02  0.1312668E+00
        -11   -1    0    0    0    0  0.00000000000E+00  0.00000000000E+00  0.45593999997E+02  0.45594000000E+02  0.51100000000E-03 0. -1.
         11   -1    0    0    0    0 -0.00000000000E+00 -0.00000000000E+00 -0.45593999997E+02  0.45594000000E+02  0.51100000000E-03 0.  1.
    9900012    2    1    2    0    0  0.15765839927E+02  0.14077669896E+02 -0.37906207475E+02  0.47787273469E+02  0.20000011055E+02 0.  0.
         12    1    1    2    0    0 -0.15765839927E+02 -0.14077669896E+02  0.37906207475E+02  0.43400726531E+02  0.00000000000E+00 0. -1.
         11    1    3    3    0    0  0.26879594737E+01  0.21526534345E+01 -0.20484712769E+02  0.20772156855E+02  0.51100000000E-03 0. -1.
        -11    1    3    3    0    0  0.10258415708E+02  0.72464275662E+01 -0.17513911238E+02  0.21551865172E+02  0.51100000000E-03 0.  1.
         12    1    3    3    0    0  0.28194647458E+01  0.46785888950E+01  0.92416531495E-01  0.54632514418E+01  0.00000000000E+00 0. -1.
</event>
<event>
 7    1  0.2339217E-009  0.4778727E+02  0.7816164E-02  0.1312668E+00
        -11   -1    0    0    0    0  0.00000000000E+00  0.00000000000E+00  0.45593999997E+02  0.45594000000E+02  0.51100000000E-03 0. -1.
         11   -1    0    0    0    0 -0.00000000000E+00 -0.00000000000E+00 -0.45593999997E+02  0.45594000000E+02  0.51100000000E-03 0.  1.
    9900012    2    1    2    0    0  0.29456047847E+02  0.31790121929E+02 -0.23135272740E+01  0.47787274022E+02  0.20000013575E+02 0.  0.
         12    1    1    2    0    0 -0.29456047847E+02 -0.31790121929E+02  0.23135272740E+01  0.43400725978E+02  0.00000000000E+00 0. -1.
         11    1    3    3    0    0  0.98365708754E+01  0.16222979117E+01  0.11558484825E+01  0.10036232514E+02  0.51100000000E-03 0. -1.
        -11    1    3    3    0    0 -0.47581184775E+00  0.32031059309E+01 -0.25290092876E+01  0.41087921287E+01  0.51100000000E-03 0.  1.
         12    1    3    3    0    0  0.20095288819E+02  0.26964718086E+02 -0.94036646901E+00  0.33642249379E+02  0.00000000000E+00 0. -1.
</event>
<event>
 7    1  0.2339217E-009  0.4778727E+02  0.7816164E-02  0.1312668E+00
        -11   -1    0    0    0    0  0.00000000000E+00  0.00000000000E+00  0.45593999997E+02  0.45594000000E+02  0.51100000000E-03 0. -1.
         11   -1    0    0    0    0 -0.00000000000E+00 -0.00000000000E+00 -0.45593999997E+02  0.45594000000E+02  0.51100000000E-03 0.  1.
    9900012    2    1    2    0    0  0.26975659946E+02 -0.99959782790E+00 -0.33984376096E+02  0.47787271389E+02  0.20000001571E+02 0.  0.
         12    1    1    2    0    0 -0.26975659946E+02  0.99959782790E+00  0.33984376096E+02  0.43400728611E+02  0.00000000000E+00 0. -1.
         11    1    3    3    0    0  0.44443423051E+01  0.30856521973E+01 -0.25356241459E+01  0.59751835184E+01  0.51100000000E-03 0. -1.
        -11    1    3    3    0    0 -0.58588082953E+00 -0.43575663222E+01 -0.42446621463E+01  0.61113662626E+01  0.51100000000E-03 0.  1.
         12    1    3    3    0    0  0.23117198470E+02  0.27231629700E+00 -0.27204089804E+02  0.35700721608E+02  0.00000000000E+00 0. -1.
</event>
<event>
 7    1  0.2339217E-009  0.4778727E+02  0.7816164E-02  0.1312668E+00
        -11   -1    0    0    0    0  0.00000000000E+00  0.00000000000E+00  0.45593999997E+02  0.45594000000E+02  0.51100000000E-03 0.  1.
         11   -1    0    0    0    0 -0.00000000000E+00 -0.00000000000E+00 -0.45593999997E+02  0.45594000000E+02  0.51100000000E-03 0. -1.
    9900012    2    1    2    0    0 -0.14900248720E+02 -0.19078987512E+02  0.36022186121E+02  0.47787273401E+02  0.20000010744E+02 0.  0.
         12    1    1    2    0    0  0.14900248720E+02  0.19078987512E+02 -0.36022186121E+02  0.43400726599E+02  0.00000000000E+00 0. -1.
         11    1    3    3    0    0 -0.10368924439E+01 -0.12815851204E+02  0.78664064346E+01  0.15073205979E+02  0.51100000000E-03 0. -1.
        -11    1    3    3    0    0 -0.48754860276E+01 -0.98898648592E+00  0.39227810504E+01  0.63353507957E+01  0.51100000000E-03 0.  1.
        -12    1    3    3    0    0 -0.89878702483E+01 -0.52741498220E+01  0.24232998636E+02  0.26378716626E+02  0.00000000000E+00 0.  1.
</event>
<event>
 7    1  0.2339217E-009  0.4778727E+02  0.7816164E-02  0.1312668E+00
        -11   -1    0    0    0    0  0.00000000000E+00  0.00000000000E+00  0.45593999997E+02  0.45594000000E+02  0.51100000000E-03 0. -1.
         11   -1    0    0    0    0 -0.00000000000E+00 -0.00000000000E+00 -0.45593999997E+02  0.45594000000E+02  0.51100000000E-03 0.  1.
    9900012    2    1    2    0    0 -0.96564651441E+01  0.37341875514E+02 -0.19898752117E+02  0.47787270493E+02  0.19999997484E+02 0.  0.
         12    1    1    2    0    0  0.96564651441E+01 -0.37341875514E+02  0.19898752117E+02  0.43400729507E+02  0.00000000000E+00 0. -1.
         11    1    3    3    0    0  0.72967246358E+00  0.51305911847E+01 -0.74339958165E+01  0.90619910543E+01  0.51100000000E-03 0. -1.
        -11    1    3    3    0    0 -0.21112981207E+01  0.21769885050E+02 -0.12904795551E+02  0.25395259859E+02  0.51100000000E-03 0.  1.
        -12    1    3    3    0    0 -0.82748394869E+01  0.10441399279E+02  0.44003925034E+00  0.13330019579E+02  0.00000000000E+00 0.  1.
</event>
<event>
 7    1  0.2339217E-009  0.4778727E+02  0.7816164E-02  0.1312668E+00
        -11   -1    0    0    0    0  0.00000000000E+00  0.00000000000E+00  0.45593999997E+02  0.45594000000E+02  0.51100000000E-03 0.  1.
         11   -1    0    0    0    0 -0.00000000000E+00 -0.00000000000E+00 -0.45593999997E+02  0.45594000000E+02  0.51100000000E-03 0. -1.
    9900012    2    1    2    0    0 -0.15131799710E+00 -0.36098020690E+02  0.24094259779E+02  0.47787270177E+02  0.19999996046E+02 0.  0.
         12    1    1    2    0    0  0.15131799710E+00  0.36098020690E+02 -0.24094259779E+02  0.43400729823E+02  0.00000000000E+00 0. -1.
         11    1    3    3    0    0  0.35477441617E+01 -0.27018055759E+01  0.47854368781E+01  0.65411503867E+01  0.51100000000E-03 0. -1.
        -11    1    3    3    0    0  0.20065566895E+01 -0.26974157447E+02  0.18159374909E+02  0.32579047516E+02  0.51100000000E-03 0.  1.
         12    1    3    3    0    0 -0.57056188483E+01 -0.64220576671E+01  0.11494479914E+01  0.86670722742E+01  0.00000000000E+00 0. -1.
</event>
<event>
 7    1  0.2339217E-009  0.4778727E+02  0.7816164E-02  0.1312668E+00
        -11   -1    0    0    0    0  0.00000000000E+00  0.00000000000E+00  0.45593999997E+02  0.45594000000E+02  0.51100000000E-03 0.  1.
         11   -1    0    0    0    0 -0.00000000000E+00 -0.00000000000E+00 -0.45593999997E+02  0.45594000000E+02  0.51100000000E-03 0. -1.
    9900012    2    1    2    0    0 -0.16162018744E+02  0.39741065270E+02 -0.65620306946E+01  0.47787269989E+02  0.19999995188E+02 0.  0.
         12    1    1    2    0    0  0.16162018744E+02 -0.39741065270E+02  0.65620306946E+01  0.43400730011E+02  0.00000000000E+00 0. -1.
         11    1    3    3    0    0  0.40789573840E+01  0.47919755290E+01 -0.15326715936E+01  0.64768823739E+01  0.51100000000E-03 0. -1.
        -11    1    3    3    0    0 -0.64642207517E+01  0.77879799975E+01 -0.38611611878E+01  0.10832698110E+02  0.51100000000E-03 0.  1.
        -12    1    3    3    0    0 -0.13776755376E+02  0.27161109743E+02 -0.11681979132E+01  0.30477689505E+02  0.00000000000E+00 0.  1.
</event>
<event>
 7    1  0.2339217E-009  0.4778727E+02  0.7816164E-02  0.1312668E+00
        -11   -1    0    0    0    0  0.00000000000E+00  0.00000000000E+00  0.45593999997E+02  0.45594000000E+02  0.51100000000E-03 0. -1.
         11   -1    0    0    0    0 -0.00000000000E+00 -0.00000000000E+00 -0.45593999997E+02  0.45594000000E+02  0.51100000000E-03 0.  1.
    9900012    2    1    2    0    0  0.12918619969E+02  0.17277040082E+02 -0.37659480076E+02  0.47787270795E+02  0.19999998865E+02 0.  0.
         12    1    1    2    0    0 -0.12918619969E+02 -0.17277040082E+02  0.37659480076E+02  0.43400729205E+02  0.00000000000E+00 0. -1.
         11    1    3    3    0    0  0.11852649699E+01  0.39503457567E+01 -0.25458926517E+01  0.48468189879E+01  0.51100000000E-03 0.  1.
        -11    1    3    3    0    0  0.16189922944E+00 -0.33345953611E+01 -0.10647302437E+02  0.11158440170E+02  0.51100000000E-03 0. -1.
        -12    1    3    3    0    0  0.11571455770E+02  0.16661289686E+02 -0.24466284987E+02  0.31782011637E+02  0.00000000000E+00 0.  1.
</event>
<event>
 7    1  0.2339217E-009  0.4778729E+02  0.7816164E-02  0.1312668E+00
        -11   -1    0    0    0    0  0.00000000000E+00  0.00000000000E+00  0.45593999997E+02  0.45594000000E+02  0.51100000000E-03 0.  1.
         11   -1    0    0    0    0 -0.00000000000E+00 -0.00000000000E+00 -0.45593999997E+02  0.45594000000E+02  0.51100000000E-03 0. -1.
    9900012    2    1    2    0    0 -0.23567372833E+02 -0.91716489961E+01  0.35271543383E+02  0.47787285949E+02  0.20000067955E+02 0.  0.
         12    1    1    2    0    0  0.23567372833E+02  0.91716489961E+01 -0.35271543383E+02  0.43400714051E+02  0.00000000000E+00 0. -1.
         11    1    3    3    0    0 -0.39729477900E+01 -0.28674248386E+01  0.83643010380E+01  0.96937078284E+01  0.51100000000E-03 0.  1.
        -11    1    3    3    0    0 -0.13310714554E+02 -0.27894793009E+01  0.27691738429E+02  0.30851072820E+02  0.51100000000E-03 0. -1.
         12    1    3    3    0    0 -0.62837104891E+01 -0.35147448566E+01 -0.78449608392E+00  0.72425053002E+01  0.00000000000E+00 0. -1.
</event>
<event>
 7    1  0.2339217E-009  0.4778725E+02  0.7816164E-02  0.1312668E+00
        -11   -1    0    0    0    0  0.00000000000E+00  0.00000000000E+00  0.45593999997E+02  0.45594000000E+02  0.51100000000E-03 0.  1.
         11   -1    0    0    0    0 -0.00000000000E+00 -0.00000000000E+00 -0.45593999997E+02  0.45594000000E+02  0.51100000000E-03 0. -1.
    9900012    2    1    2    0    0 -0.16901308452E+02 -0.22347435359E+02  0.33144570790E+02  0.47787254991E+02  0.19999926807E+02 0.  0.
         12    1    1    2    0    0  0.16901308452E+02  0.22347435359E+02 -0.33144570790E+02  0.43400745009E+02  0.00000000000E+00 0. -1.
         11    1    3    3    0    0 -0.11827878292E-04 -0.33954363142E+01 -0.96265433916E+00  0.35292621611E+01  0.51100000000E-03 0. -1.
        -11    1    3    3    0    0  0.79897129812E+00 -0.64600951025E+01  0.87646076579E+01  0.10917395822E+02  0.51100000000E-03 0.  1.
         12    1    3    3    0    0 -0.17700267922E+02 -0.12491903942E+02  0.25342617471E+02  0.33340597008E+02  0.00000000000E+00 0. -1.
</event>
<event>
 7    1  0.2339217E-009  0.4778728E+02  0.7816164E-02  0.1312668E+00
        -11   -1    0    0    0    0  0.00000000000E+00  0.00000000000E+00  0.45593999997E+02  0.45594000000E+02  0.51100000000E-03 0.  1.
         11   -1    0    0    0    0 -0.00000000000E+00 -0.00000000000E+00 -0.45593999997E+02  0.45594000000E+02  0.51100000000E-03 0. -1.
    9900012    2    1    2    0    0  0.78998762516E+01  0.20196166575E+02  0.37594275884E+02  0.47787276868E+02  0.20000026553E+02 0.  0.
         12    1    1    2    0    0 -0.78998762516E+01 -0.20196166575E+02 -0.37594275884E+02  0.43400723132E+02  0.00000000000E+00 0. -1.
         11    1    3    3    0    0 -0.96073510244E+00  0.11338172880E+01 -0.96673259079E+00  0.17728862746E+01  0.51100000000E-03 0. -1.
        -11    1    3    3    0    0  0.12983205596E+01 -0.16999734731E+01  0.81325706296E+01  0.84091766179E+01  0.51100000000E-03 0.  1.
        -12    1    3    3    0    0  0.75622907944E+01  0.20762322760E+02  0.30428437845E+02  0.37605213976E+02  0.00000000000E+00 0.  1.
</event>
<event>
 7    1  0.2339217E-009  0.4778727E+02  0.7816164E-02  0.1312668E+00
        -11   -1    0    0    0    0  0.00000000000E+00  0.00000000000E+00  0.45593999997E+02  0.45594000000E+02  0.51100000000E-03 0. -1.
         11   -1    0    0    0    0 -0.00000000000E+00 -0.00000000000E+00 -0.45593999997E+02  0.45594000000E+02  0.51100000000E-03 0.  1.
    9900012    2    1    2    0    0 -0.39569314005E+02 -0.17428024810E+02 -0.37625388901E+01  0.47787270070E+02  0.19999995556E+02 0.  0.
         12    1    1    2    0    0  0.39569314005E+02  0.17428024810E+02  0.37625388901E+01  0.43400729930E+02  0.00000000000E+00 0. -1.
         11    1    3    3    0    0 -0.12370223813E+02 -0.23657269365E+00  0.22004374291E+01  0.12566635546E+02  0.51100000000E-03 0. -1.
        -11    1    3    3    0    0 -0.23310453731E+02 -0.87245300435E+01 -0.69753280708E+01  0.25848595312E+02  0.51100000000E-03 0.  1.
        -12    1    3    3    0    0 -0.38886364608E+01 -0.84669220729E+01  0.10123517516E+01  0.93720392115E+01  0.00000000000E+00 0.  1.
</event>
<event>
 7    1  0.2339217E-009  0.4778727E+02  0.7816164E-02  0.1312668E+00
        -11   -1    0    0    0    0  0.00000000000E+00  0.00000000000E+00  0.45593999997E+02  0.45594000000E+02  0.51100000000E-03 0.  1.
         11   -1    0    0    0    0 -0.00000000000E+00 -0.00000000000E+00 -0.45593999997E+02  0.45594000000E+02  0.51100000000E-03 0. -1.
    9900012    2    1    2    0    0  0.24381946480E+02  0.31940757012E+02  0.16399146290E+02  0.47787271069E+02  0.20000000114E+02 0.  0.
         12    1    1    2    0    0 -0.24381946480E+02 -0.31940757012E+02 -0.16399146290E+02  0.43400728931E+02  0.00000000000E+00 0. -1.
         11    1    3    3    0    0  0.12902193169E+02  0.16168475889E+02  0.36270345865E+01  0.21000990008E+02  0.51100000000E-03 0. -1.
        -11    1    3    3    0    0  0.62746801739E+01  0.12923585876E+02  0.14693149295E+02  0.20549435994E+02  0.51100000000E-03 0.  1.
        -12    1    3    3    0    0  0.52050731375E+01  0.28486952467E+01 -0.19210375917E+01  0.62368450682E+01  0.00000000000E+00 0.  1.
</event>
<event>
 7    1  0.2380172E-009  0.4778727E+02  0.7816164E-02  0.1312668E+00
        -11   -1    0    0    0    0  0.00000000000E+00  0.00000000000E+00  0.45593999997E+02  0.45594000000E+02  0.51100000000E-03 0. -1.
         11   -1    0    0    0    0 -0.00000000000E+00 -0.00000000000E+00 -0.45593999997E+02  0.45594000000E+02  0.51100000000E-03 0.  1.
    9900012    2    1    2    0    0 -0.29319501700E+02 -0.27843956770E+02 -0.15770367743E+02  0.47787267203E+02  0.19999982484E+02 0.  0.
         12    1    1    2    0    0  0.29319501700E+02  0.27843956770E+02  0.15770367743E+02  0.43400732797E+02  0.00000000000E+00 0. -1.
         11    1    3    3    0    0 -0.21259504223E+01 -0.39169912952E+01  0.22706437907E+01  0.50018306139E+01  0.51100000000E-03 0. -1.
        -11    1    3    3    0    0 -0.21996101305E+02 -0.20837538398E+02 -0.84632177873E+01  0.31458822843E+02  0.51100000000E-03 0.  1.
        -12    1    3    3    0    0 -0.51974499729E+01 -0.30894270774E+01 -0.95777937465E+01  0.11326613745E+02  0.00000000000E+00 0.  1.
</event>
<event>
 7    1  0.2339217E-009  0.4778727E+02  0.7816164E-02  0.1312668E+00
        -11   -1    0    0    0    0  0.00000000000E+00  0.00000000000E+00  0.45593999997E+02  0.45594000000E+02  0.51100000000E-03 0.  1.
         11   -1    0    0    0    0 -0.00000000000E+00 -0.00000000000E+00 -0.45593999997E+02  0.45594000000E+02  0.51100000000E-03 0. -1.
    9900012    2    1    2    0    0  0.24638051316E+02 -0.31610685033E+02  0.16653970314E+02  0.47787266041E+02  0.19999977189E+02 0.  0.
         12    1    1    2    0    0 -0.24638051316E+02  0.31610685033E+02 -0.16653970314E+02  0.43400733959E+02  0.00000000000E+00 0. -1.
         11    1    3    3    0    0 -0.13549251071E+01  0.59189127077E+00 -0.71852743685E+00  0.16439097484E+01  0.51100000000E-03 0. -1.
        -11    1    3    3    0    0  0.17244893518E+01 -0.76081670721E+01  0.86019231980E+00  0.78484393869E+01  0.51100000000E-03 0.  1.
        -12    1    3    3    0    0  0.24268487071E+02 -0.24594409232E+02  0.16512305431E+02  0.38294916906E+02  0.00000000000E+00 0.  1.
</event>
<event>
 7    1  0.2339217E-009  0.4778727E+02  0.7816164E-02  0.1312668E+00
        -11   -1    0    0    0    0  0.00000000000E+00  0.00000000000E+00  0.45593999997E+02  0.45594000000E+02  0.51100000000E-03 0. -1.
         11   -1    0    0    0    0 -0.00000000000E+00 -0.00000000000E+00 -0.45593999997E+02  0.45594000000E+02  0.51100000000E-03 0.  1.
    9900012    2    1    2    0    0  0.26874854727E+02  0.32443463889E+02 -0.10430098892E+02  0.47787272718E+02  0.20000007629E+02 0.  0.
         12    1    1    2    0    0 -0.26874854727E+02 -0.32443463889E+02  0.10430098892E+02  0.43400727282E+02  0.00000000000E+00 0. -1.
         11    1    3    3    0    0  0.61618653378E+01  0.11335204811E+02 -0.91045229373E+01  0.15790750164E+02  0.51100000000E-03 0. -1.
        -11    1    3    3    0    0  0.62138569614E+01  0.11872345702E+02 -0.52011759568E+01  0.14374172755E+02  0.51100000000E-03 0.  1.
         12    1    3    3    0    0  0.14499132428E+02  0.92359133760E+01  0.38756000024E+01  0.17622349799E+02  0.00000000000E+00 0. -1.
</event>
<event>
 7    1  0.2339217E-009  0.4778727E+02  0.7816164E-02  0.1312668E+00
        -11   -1    0    0    0    0  0.00000000000E+00  0.00000000000E+00  0.45593999997E+02  0.45594000000E+02  0.51100000000E-03 0.  1.
         11   -1    0    0    0    0 -0.00000000000E+00 -0.00000000000E+00 -0.45593999997E+02  0.45594000000E+02  0.51100000000E-03 0. -1.
    9900012    2    1    2    0    0 -0.14414005960E+02  0.26472263499E+02  0.31226258125E+02  0.47787268450E+02  0.19999988171E+02 0.  0.
         12    1    1    2    0    0  0.14414005960E+02 -0.26472263499E+02 -0.31226258125E+02  0.43400731550E+02  0.00000000000E+00 0. -1.
         11    1    3    3    0    0  0.14740717004E+01  0.13014727747E+02  0.64205000115E+01  0.14586940953E+02  0.51100000000E-03 0. -1.
        -11    1    3    3    0    0 -0.23091512721E+01  0.59312995998E+01  0.53891142986E+01  0.83399668899E+01  0.51100000000E-03 0.  1.
        -12    1    3    3    0    0 -0.13578926388E+02  0.75262361516E+01  0.19416643815E+02  0.24860360607E+02  0.00000000000E+00 0.  1.
</event>
<event>
 7    1  0.2339217E-009  0.4778727E+02  0.7816164E-02  0.1312668E+00
        -11   -1    0    0    0    0  0.00000000000E+00  0.00000000000E+00  0.45593999997E+02  0.45594000000E+02  0.51100000000E-03 0.  1.
         11   -1    0    0    0    0 -0.00000000000E+00 -0.00000000000E+00 -0.45593999997E+02  0.45594000000E+02  0.51100000000E-03 0. -1.
    9900012    2    1    2    0    0  0.78240858186E+01 -0.40597366153E+02  0.13200784028E+02  0.47787272398E+02  0.20000006171E+02 0.  0.
         12    1    1    2    0    0 -0.78240858186E+01  0.40597366153E+02 -0.13200784028E+02  0.43400727602E+02  0.00000000000E+00 0. -1.
         11    1    3    3    0    0 -0.26004252371E+00 -0.61919908452E+01  0.68479009819E+01  0.92359147278E+01  0.51100000000E-03 0. -1.
        -11    1    3    3    0    0  0.74860758200E+01 -0.65912934753E+01  0.35618821563E+01  0.10591198498E+02  0.51100000000E-03 0.  1.
        -12    1    3    3    0    0  0.59805252233E+00 -0.27814081832E+02  0.27910008902E+01  0.27960159172E+02  0.00000000000E+00 0.  1.
</event>
<event>
 7    1  0.2339217E-009  0.4778727E+02  0.7816164E-02  0.1312668E+00
        -11   -1    0    0    0    0  0.00000000000E+00  0.00000000000E+00  0.45593999997E+02  0.45594000000E+02  0.51100000000E-03 0. -1.
         11   -1    0    0    0    0 -0.00000000000E+00 -0.00000000000E+00 -0.45593999997E+02  0.45594000000E+02  0.51100000000E-03 0.  1.
    9900012    2    1    2    0    0 -0.54163838799E+01  0.42159183842E+02  0.87686518859E+01  0.47787271291E+02  0.20000001125E+02 0.  0.
         12    1    1    2    0    0  0.54163838799E+01 -0.42159183842E+02 -0.87686518859E+01  0.43400728709E+02  0.00000000000E+00 0. -1.
         11    1    3    3    0    0 -0.52300869841E+01  0.20356282733E+02  0.49226276208E+01  0.21586206696E+02  0.51100000000E-03 0. -1.
        -11    1    3    3    0    0  0.22263257612E+01  0.22388367166E+02  0.11384385128E+01  0.22527573178E+02  0.51100000000E-03 0.  1.
         12    1    3    3    0    0 -0.24126226570E+01 -0.58546605727E+00  0.27075857523E+01  0.36734914176E+01  0.00000000000E+00 0. -1.
</event>
<event>
 7    1  0.2339217E-009  0.4778727E+02  0.7816164E-02  0.1312668E+00
        -11   -1    0    0    0    0  0.00000000000E+00  0.00000000000E+00  0.45593999997E+02  0.45594000000E+02  0.51100000000E-03 0.  1.
         11   -1    0    0    0    0 -0.00000000000E+00 -0.00000000000E+00 -0.45593999997E+02  0.45594000000E+02  0.51100000000E-03 0. -1.
    9900012    2    1    2    0    0 -0.35307505430E+02 -0.83241046858E+01  0.23826723841E+02  0.47787269274E+02  0.19999991930E+02 0.  0.
         12    1    1    2    0    0  0.35307505430E+02  0.83241046858E+01 -0.23826723841E+02  0.43400730726E+02  0.00000000000E+00 0. -1.
         11    1    3    3    0    0 -0.61133301105E+01 -0.11303411249E+01 -0.21628384252E+01  0.65824270914E+01  0.51100000000E-03 0. -1.
        -11    1    3    3    0    0 -0.21452598622E+02 -0.22472121815E+01  0.12643494728E+02  0.25002438070E+02  0.51100000000E-03 0.  1.
        -12    1    3    3    0    0 -0.77415766973E+01 -0.49465513794E+01  0.13346067538E+02  0.16202404113E+02  0.00000000000E+00 0.  1.
</event>
<event>
 7    1  0.2339217E-009  0.4778727E+02  0.7816164E-02  0.1312668E+00
        -11   -1    0    0    0    0  0.00000000000E+00  0.00000000000E+00  0.45593999997E+02  0.45594000000E+02  0.51100000000E-03 0.  1.
         11   -1    0    0    0    0 -0.00000000000E+00 -0.00000000000E+00 -0.45593999997E+02  0.45594000000E+02  0.51100000000E-03 0. -1.
    9900012    2    1    2    0    0  0.38528743526E+01  0.42072036437E+02  0.99359182453E+01  0.47787270027E+02  0.19999995363E+02 0.  0.
         12    1    1    2    0    0 -0.38528743526E+01 -0.42072036437E+02 -0.99359182453E+01  0.43400729973E+02  0.00000000000E+00 0. -1.
         11    1    3    3    0    0 -0.34209820584E+01  0.14523876859E+02  0.63351260042E+01  0.16210488549E+02  0.51100000000E-03 0.  1.
        -11    1    3    3    0    0  0.15268672508E+01  0.22718797537E+02 -0.96519085244E+00  0.22790495360E+02  0.51100000000E-03 0. -1.
         12    1    3    3    0    0  0.57469891602E+01  0.48293620418E+01  0.45659830936E+01  0.87862861181E+01  0.00000000000E+00 0. -1.
</event>
<event>
 7    1  0.2339217E-009  0.4778727E+02  0.7816164E-02  0.1312668E+00
        -11   -1    0    0    0    0  0.00000000000E+00  0.00000000000E+00  0.45593999997E+02  0.45594000000E+02  0.51100000000E-03 0.  1.
         11   -1    0    0    0    0 -0.00000000000E+00 -0.00000000000E+00 -0.45593999997E+02  0.45594000000E+02  0.51100000000E-03 0. -1.
    9900012    2    1    2    0    0 -0.38561917144E+01 -0.35887734773E+02  0.24100276327E+02  0.47787273731E+02  0.20000012249E+02 0.  0.
         12    1    1    2    0    0  0.38561917144E+01  0.35887734773E+02 -0.24100276327E+02  0.43400726269E+02  0.00000000000E+00 0. -1.
         11    1    3    3    0    0 -0.18201298373E+01 -0.13605273488E+02  0.10698627302E+02  0.17403360760E+02  0.51100000000E-03 0.  1.
        -11    1    3    3    0    0 -0.69394157338E+01 -0.49803136071E+01  0.77492811387E+01  0.11533012303E+02  0.51100000000E-03 0. -1.
         12    1    3    3    0    0  0.49033538567E+01 -0.17302147677E+02  0.56523678856E+01  0.18850900668E+02  0.00000000000E+00 0. -1.
</event>
<event>
 7    1  0.2339217E-009  0.4778727E+02  0.7816164E-02  0.1312668E+00
        -11   -1    0    0    0    0  0.00000000000E+00  0.00000000000E+00  0.45593999997E+02  0.45594000000E+02  0.51100000000E-03 0.  1.
         11   -1    0    0    0    0 -0.00000000000E+00 -0.00000000000E+00 -0.45593999997E+02  0.45594000000E+02  0.51100000000E-03 0. -1.
    9900012    2    1    2    0    0 -0.22634555924E+02 -0.36961062964E+02 -0.22759215934E+01  0.47787272858E+02  0.20000008270E+02 0.  0.
         12    1    1    2    0    0  0.22634555924E+02  0.36961062964E+02  0.22759215934E+01  0.43400727142E+02  0.00000000000E+00 0. -1.
         11    1    3    3    0    0 -0.30331603487E+01 -0.59593054228E+00 -0.46607671580E+01  0.55926689223E+01  0.51100000000E-03 0. -1.
        -11    1    3    3    0    0 -0.10602080162E+02 -0.12051522967E+02 -0.81663725356E+00  0.16072031802E+02  0.51100000000E-03 0.  1.
         12    1    3    3    0    0 -0.89993154133E+01 -0.24313609456E+02  0.32014828181E+01  0.26122572134E+02  0.00000000000E+00 0. -1.
</event>
<event>
 7    1  0.2339217E-009  0.4778727E+02  0.7816164E-02  0.1312668E+00
        -11   -1    0    0    0    0  0.00000000000E+00  0.00000000000E+00  0.45593999997E+02  0.45594000000E+02  0.51100000000E-03 0.  1.
         11   -1    0    0    0    0 -0.00000000000E+00 -0.00000000000E+00 -0.45593999997E+02  0.45594000000E+02  0.51100000000E-03 0. -1.
    9900012    2    1    2    0    0  0.72383124456E+01  0.75354579370E+01  0.42124181377E+02  0.47787274775E+02  0.20000017009E+02 0.  0.
         12    1    1    2    0    0 -0.72383124456E+01 -0.75354579370E+01 -0.42124181377E+02  0.43400725225E+02  0.00000000000E+00 0. -1.
         11    1    3    3    0    0  0.89465304299E+00  0.21738441563E+01  0.80829721119E+00  0.24858292632E+01  0.51100000000E-03 0. -1.
        -11    1    3    3    0    0 -0.27377817014E+01  0.85218647694E+01  0.20785847493E+02  0.22631152955E+02  0.51100000000E-03 0.  1.
         12    1    3    3    0    0  0.90814411040E+01 -0.31602509887E+01  0.20530036673E+02  0.22670292557E+02  0.00000000000E+00 0. -1.
</event>
<event>
 7    1  0.2339217E-009  0.4778728E+02  0.7816164E-02  0.1312668E+00
        -11   -1    0    0    0    0  0.00000000000E+00  0.00000000000E+00  0.45593999997E+02  0.45594000000E+02  0.51100000000E-03 0. -1.
         11   -1    0    0    0    0 -0.00000000000E+00 -0.00000000000E+00 -0.45593999997E+02  0.45594000000E+02  0.51100000000E-03 0.  1.
    9900012    2    1    2    0    0  0.35508423252E+01 -0.27103795026E+02 -0.33710510696E+02  0.47787277456E+02  0.20000029231E+02 0.  0.
         12    1    1    2    0    0 -0.35508423252E+01  0.27103795026E+02  0.33710510696E+02  0.43400722544E+02  0.00000000000E+00 0. -1.
         11    1    3    3    0    0 -0.47258370780E+01 -0.52544549569E+01 -0.62751533882E+01  0.94509461584E+01  0.51100000000E-03 0. -1.
        -11    1    3    3    0    0  0.10441016511E+01  0.17804736813E+01 -0.20554354092E+01  0.29129108758E+01  0.51100000000E-03 0.  1.
        -12    1    3    3    0    0  0.72325777521E+01 -0.23629813750E+02 -0.25379921898E+02  0.35423420422E+02  0.00000000000E+00 0.  1.
</event>
<event>
 7    1  0.2339217E-009  0.4778727E+02  0.7816164E-02  0.1312668E+00
        -11   -1    0    0    0    0  0.00000000000E+00  0.00000000000E+00  0.45593999997E+02  0.45594000000E+02  0.51100000000E-03 0. -1.
         11   -1    0    0    0    0 -0.00000000000E+00 -0.00000000000E+00 -0.45593999997E+02  0.45594000000E+02  0.51100000000E-03 0.  1.
    9900012    2    1    2    0    0 -0.11014368304E+02 -0.28365095811E+02 -0.30947186963E+02  0.47787270162E+02  0.19999995978E+02 0.  0.
         12    1    1    2    0    0  0.11014368304E+02  0.28365095811E+02  0.30947186963E+02  0.43400729838E+02  0.00000000000E+00 0. -1.
         11    1    3    3    0    0 -0.84358900880E+01 -0.16255266046E+02 -0.13304901532E+02  0.22636658783E+02  0.51100000000E-03 0. -1.
        -11    1    3    3    0    0 -0.40851203749E+01 -0.34080583397E+01  0.11195734765E+00  0.53212409110E+01  0.51100000000E-03 0.  1.
        -12    1    3    3    0    0  0.15066421588E+01 -0.87017714245E+01 -0.17754242779E+02  0.19829370468E+02  0.00000000000E+00 0.  1.
</event>
<event>
 7    1  0.2339217E-009  0.4778727E+02  0.7816164E-02  0.1312668E+00
        -11   -1    0    0    0    0  0.00000000000E+00  0.00000000000E+00  0.45593999997E+02  0.45594000000E+02  0.51100000000E-03 0.  1.
         11   -1    0    0    0    0 -0.00000000000E+00 -0.00000000000E+00 -0.45593999997E+02  0.45594000000E+02  0.51100000000E-03 0. -1.
    9900012    2    1    2    0    0 -0.14983587225E+01 -0.27094873648E+02  0.33871020541E+02  0.47787270866E+02  0.19999999186E+02 0.  0.
         12    1    1    2    0    0  0.14983587225E+01  0.27094873648E+02 -0.33871020541E+02  0.43400729134E+02  0.00000000000E+00 0. -1.
         11    1    3    3    0    0  0.29868635895E+01 -0.45057650790E+00  0.23997764331E+01  0.38578880857E+01  0.51100000000E-03 0. -1.
        -11    1    3    3    0    0  0.51079863623E+01 -0.13010092674E+02  0.14179133596E+02  0.19909843442E+02  0.51100000000E-03 0.  1.
        -12    1    3    3    0    0 -0.95932086743E+01 -0.13634204466E+02  0.17292110512E+02  0.24019539339E+02  0.00000000000E+00 0.  1.
</event>
<event>
 7    1  0.2339217E-009  0.4778727E+02  0.7816164E-02  0.1312668E+00
        -11   -1    0    0    0    0  0.00000000000E+00  0.00000000000E+00  0.45593999997E+02  0.45594000000E+02  0.51100000000E-03 0.  1.
         11   -1    0    0    0    0 -0.00000000000E+00 -0.00000000000E+00 -0.45593999997E+02  0.45594000000E+02  0.51100000000E-03 0. -1.
    9900012    2    1    2    0    0 -0.29312111115E+02 -0.85146527126E+01  0.30853269120E+02  0.47787269773E+02  0.19999994203E+02 0.  0.
         12    1    1    2    0    0  0.29312111115E+02  0.85146527126E+01 -0.30853269120E+02  0.43400730227E+02  0.00000000000E+00 0. -1.
         11    1    3    3    0    0 -0.54498860049E+01 -0.43742867413E+01  0.98812216578E+01  0.12102651927E+02  0.51100000000E-03 0.  1.
        -11    1    3    3    0    0 -0.33479471063E+00 -0.22716574678E+01  0.88676753389E+01  0.91601409010E+01  0.51100000000E-03 0. -1.
        -12    1    3    3    0    0 -0.23527430400E+02 -0.18687085034E+01  0.12104372123E+02  0.26524476945E+02  0.00000000000E+00 0.  1.
</event>
<event>
 7    1  0.2339217E-009  0.4778727E+02  0.7816164E-02  0.1312668E+00
        -11   -1    0    0    0    0  0.00000000000E+00  0.00000000000E+00  0.45593999997E+02  0.45594000000E+02  0.51100000000E-03 0. -1.
         11   -1    0    0    0    0 -0.00000000000E+00 -0.00000000000E+00 -0.45593999997E+02  0.45594000000E+02  0.51100000000E-03 0.  1.
    9900012    2    1    2    0    0  0.20058599736E+02 -0.70807049046E+01 -0.37830403083E+02  0.47787271864E+02  0.20000003736E+02 0.  0.
         12    1    1    2    0    0 -0.20058599736E+02  0.70807049046E+01  0.37830403083E+02  0.43400728136E+02  0.00000000000E+00 0. -1.
         11    1    3    3    0    0  0.10537431719E+01 -0.51785687338E+01 -0.12068336265E+02  0.13174698830E+02  0.51100000000E-03 0. -1.
        -11    1    3    3    0    0  0.13843677895E+02 -0.39995018319E+01 -0.25179395849E+02  0.29011125593E+02  0.51100000000E-03 0.  1.
         12    1    3    3    0    0  0.51611786692E+01  0.20973656611E+01 -0.58267096876E+00  0.56014474406E+01  0.00000000000E+00 0. -1.
</event>
<event>
 7    1  0.2339217E-009  0.4778726E+02  0.7816164E-02  0.1312668E+00
        -11   -1    0    0    0    0  0.00000000000E+00  0.00000000000E+00  0.45593999997E+02  0.45594000000E+02  0.51100000000E-03 0.  1.
         11   -1    0    0    0    0 -0.00000000000E+00 -0.00000000000E+00 -0.45593999997E+02  0.45594000000E+02  0.51100000000E-03 0. -1.
    9900012    2    1    2    0    0 -0.20086087649E+01 -0.14410669714E+02  0.40889142738E+02  0.47787263778E+02  0.19999966870E+02 0.  0.
         12    1    1    2    0    0  0.20086087649E+01  0.14410669714E+02 -0.40889142738E+02  0.43400736222E+02  0.00000000000E+00 0. -1.
         11    1    3    3    0    0  0.32328919206E+01 -0.33272136298E+01  0.29010717862E+02  0.29379307205E+02  0.51100000000E-03 0. -1.
        -11    1    3    3    0    0  0.51418705096E+00 -0.52692988214E+01  0.73463185165E+01  0.90552909616E+01  0.51100000000E-03 0.  1.
         12    1    3    3    0    0 -0.57556877364E+01 -0.58141572625E+01  0.45321063593E+01  0.93526656117E+01  0.00000000000E+00 0. -1.
</event>
<event>
 7    1  0.2339217E-009  0.4778727E+02  0.7816164E-02  0.1312668E+00
        -11   -1    0    0    0    0  0.00000000000E+00  0.00000000000E+00  0.45593999997E+02  0.45594000000E+02  0.51100000000E-03 0.  1.
         11   -1    0    0    0    0 -0.00000000000E+00 -0.00000000000E+00 -0.45593999997E+02  0.45594000000E+02  0.51100000000E-03 0. -1.
    9900012    2    1    2    0    0 -0.22370820534E+02  0.28356143242E+02  0.24064477412E+02  0.47787267932E+02  0.19999985808E+02 0.  0.
         12    1    1    2    0    0  0.22370820534E+02 -0.28356143242E+02 -0.24064477412E+02  0.43400732068E+02  0.00000000000E+00 0. -1.
         11    1    3    3    0    0  0.15127744735E+01  0.66014226786E+01  0.74709623991E+01  0.10083776446E+02  0.51100000000E-03 0. -1.
        -11    1    3    3    0    0 -0.20061936339E+01 -0.89034181503E+00  0.21124434505E+01  0.30462992363E+01  0.51100000000E-03 0.  1.
        -12    1    3    3    0    0 -0.21877401373E+02  0.22645062379E+02  0.14481071563E+02  0.34657192249E+02  0.00000000000E+00 0.  1.
</event>
<event>
 7    1  0.2339217E-009  0.4778727E+02  0.7816164E-02  0.1312668E+00
        -11   -1    0    0    0    0  0.00000000000E+00  0.00000000000E+00  0.45593999997E+02  0.45594000000E+02  0.51100000000E-03 0.  1.
         11   -1    0    0    0    0 -0.00000000000E+00 -0.00000000000E+00 -0.45593999997E+02  0.45594000000E+02  0.51100000000E-03 0. -1.
    9900012    2    1    2    0    0  0.42221540705E+01 -0.41655065382E+02  0.11430316011E+02  0.47787272113E+02  0.20000004872E+02 0.  0.
         12    1    1    2    0    0 -0.42221540705E+01  0.41655065382E+02 -0.11430316011E+02  0.43400727887E+02  0.00000000000E+00 0. -1.
         11    1    3    3    0    0  0.31774296486E+01 -0.21288259376E+01  0.40625297771E+01  0.55796153537E+01  0.51100000000E-03 0. -1.
        -11    1    3    3    0    0 -0.16889679070E+01 -0.32071534459E+01 -0.25831089598E+01  0.44509434927E+01  0.51100000000E-03 0.  1.
        -12    1    3    3    0    0  0.27336923289E+01 -0.36319085999E+02  0.99508951935E+01  0.37756713267E+02  0.00000000000E+00 0.  1.
</event>
<event>
 7    1  0.2339217E-009  0.4778727E+02  0.7816164E-02  0.1312668E+00
        -11   -1    0    0    0    0  0.00000000000E+00  0.00000000000E+00  0.45593999997E+02  0.45594000000E+02  0.51100000000E-03 0.  1.
         11   -1    0    0    0    0 -0.00000000000E+00 -0.00000000000E+00 -0.45593999997E+02  0.45594000000E+02  0.51100000000E-03 0. -1.
    9900012    2    1    2    0    0  0.38906263179E+01  0.12304443682E+01  0.43208476539E+02  0.47787269461E+02  0.19999992781E+02 0.  0.
         12    1    1    2    0    0 -0.38906263179E+01 -0.12304443682E+01 -0.43208476539E+02  0.43400730539E+02  0.00000000000E+00 0. -1.
         11    1    3    3    0    0  0.30382858061E+01 -0.83217101211E+01  0.25993373032E+02  0.27461563718E+02  0.51100000000E-03 0. -1.
        -11    1    3    3    0    0 -0.10612223430E+01  0.35890384446E+01  0.30152331556E+01  0.48061440949E+01  0.51100000000E-03 0.  1.
        -12    1    3    3    0    0  0.19135628547E+01  0.59631160448E+01  0.14199870351E+02  0.15519561648E+02  0.00000000000E+00 0.  1.
</event>
<event>
 7    1  0.2339217E-009  0.4778727E+02  0.7816164E-02  0.1312668E+00
        -11   -1    0    0    0    0  0.00000000000E+00  0.00000000000E+00  0.45593999997E+02  0.45594000000E+02  0.51100000000E-03 0. -1.
         11   -1    0    0    0    0 -0.00000000000E+00 -0.00000000000E+00 -0.45593999997E+02  0.45594000000E+02  0.51100000000E-03 0.  1.
    9900012    2    1    2    0    0 -0.21099024688E+01 -0.42704588399E+02 -0.74491354532E+01  0.47787272151E+02  0.20000005047E+02 0.  0.
         12    1    1    2    0    0  0.21099024688E+01  0.42704588399E+02  0.74491354532E+01  0.43400727849E+02  0.00000000000E+00 0. -1.
         11    1    3    3    0    0  0.17360220105E+01 -0.65655598369E+01 -0.62936939690E+01  0.92590999795E+01  0.51100000000E-03 0. -1.
        -11    1    3    3    0    0 -0.40498485334E+01 -0.11274275961E+02 -0.56739877711E+01  0.13255365294E+02  0.51100000000E-03 0.  1.
         12    1    3    3    0    0  0.20392405412E+00 -0.24864752601E+02  0.45185462870E+01  0.25272806878E+02  0.00000000000E+00 0. -1.
</event>
<event>
 7    1  0.2339217E-009  0.4778727E+02  0.7816164E-02  0.1312668E+00
        -11   -1    0    0    0    0  0.00000000000E+00  0.00000000000E+00  0.45593999997E+02  0.45594000000E+02  0.51100000000E-03 0. -1.
         11   -1    0    0    0    0 -0.00000000000E+00 -0.00000000000E+00 -0.45593999997E+02  0.45594000000E+02  0.51100000000E-03 0.  1.
    9900012    2    1    2    0    0  0.36142720415E+02 -0.22326270808E+02 -0.88805805525E+01  0.47787270534E+02  0.19999997674E+02 0.  0.
         12    1    1    2    0    0 -0.36142720415E+02  0.22326270808E+02  0.88805805525E+01  0.43400729466E+02  0.00000000000E+00 0. -1.
         11    1    3    3    0    0  0.17405090116E+02 -0.93695990853E+01 -0.13945373852E+01  0.19815935096E+02  0.51100000000E-03 0. -1.
        -11    1    3    3    0    0  0.72311322551E+01 -0.78537760582E+01  0.35301506902E+01  0.11244244582E+02  0.51100000000E-03 0.  1.
        -12    1    3    3    0    0  0.11506498044E+02 -0.51028956646E+01 -0.11016193858E+02  0.16727090856E+02  0.00000000000E+00 0.  1.
</event>
<event>
 7    1  0.2339217E-009  0.4778725E+02  0.7816164E-02  0.1312668E+00
        -11   -1    0    0    0    0  0.00000000000E+00  0.00000000000E+00  0.45593999997E+02  0.45594000000E+02  0.51100000000E-03 0. -1.
         11   -1    0    0    0    0 -0.00000000000E+00 -0.00000000000E+00 -0.45593999997E+02  0.45594000000E+02  0.51100000000E-03 0.  1.
    9900012    2    1    2    0    0 -0.39349083244E+02  0.18250647185E+02 -0.14793414850E+01  0.47787252010E+02  0.19999913216E+02 0.  0.
         12    1    1    2    0    0  0.39349083244E+02 -0.18250647185E+02  0.14793414850E+01  0.43400747990E+02  0.00000000000E+00 0. -1.
         11    1    3    3    0    0 -0.10979652762E+02  0.19326086691E+01  0.56734578734E+01  0.12509031759E+02  0.51100000000E-03 0. -1.
        -11    1    3    3    0    0 -0.14702211378E+02  0.76735436795E+01  0.19864217041E+01  0.16702819027E+02  0.51100000000E-03 0.  1.
         12    1    3    3    0    0 -0.13667219105E+02  0.86444948362E+01 -0.91392210625E+01  0.18575401225E+02  0.00000000000E+00 0. -1.
</event>
<event>
 7    1  0.2339217E-009  0.4778728E+02  0.7816164E-02  0.1312668E+00
        -11   -1    0    0    0    0  0.00000000000E+00  0.00000000000E+00  0.45593999997E+02  0.45594000000E+02  0.51100000000E-03 0.  1.
         11   -1    0    0    0    0 -0.00000000000E+00 -0.00000000000E+00 -0.45593999997E+02  0.45594000000E+02  0.51100000000E-03 0. -1.
    9900012    2    1    2    0    0  0.40690905673E+02  0.67223882095E+01  0.13516001983E+02  0.47787278608E+02  0.20000034485E+02 0.  0.
         12    1    1    2    0    0 -0.40690905673E+02 -0.67223882095E+01 -0.13516001983E+02  0.43400721392E+02  0.00000000000E+00 0. -1.
         11    1    3    3    0    0  0.29574455350E+01 -0.49711701563E-01  0.65883839855E+01  0.72218944293E+01  0.51100000000E-03 0. -1.
        -11    1    3    3    0    0  0.11983274814E+02  0.47902686916E+01  0.71185081164E+01  0.14738341408E+02  0.51100000000E-03 0.  1.
         12    1    3    3    0    0  0.25750185324E+02  0.19818312195E+01 -0.19089011864E+00  0.25827042770E+02  0.00000000000E+00 0. -1.
</event>
<event>
 7    1  0.2339217E-009  0.4778727E+02  0.7816164E-02  0.1312668E+00
        -11   -1    0    0    0    0  0.00000000000E+00  0.00000000000E+00  0.45593999997E+02  0.45594000000E+02  0.51100000000E-03 0.  1.
         11   -1    0    0    0    0 -0.00000000000E+00 -0.00000000000E+00 -0.45593999997E+02  0.45594000000E+02  0.51100000000E-03 0. -1.
    9900012    2    1    2    0    0  0.16508733765E+02 -0.15453615184E+02  0.37044177691E+02  0.47787267131E+02  0.19999982157E+02 0.  0.
         12    1    1    2    0    0 -0.16508733765E+02  0.15453615184E+02 -0.37044177691E+02  0.43400732869E+02  0.00000000000E+00 0. -1.
         11    1    3    3    0    0  0.30467254690E+01 -0.11814593483E+02  0.19862231742E+02  0.23310414095E+02  0.51100000000E-03 0. -1.
        -11    1    3    3    0    0  0.48820333644E+01 -0.56658664341E+01  0.36395024232E+01  0.83175880140E+01  0.51100000000E-03 0.  1.
         12    1    3    3    0    0  0.85799749315E+01  0.20268447331E+01  0.13542443526E+02  0.16159265022E+02  0.00000000000E+00 0. -1.
</event>
<event>
 7    1  0.4134238E-009  0.4778725E+02  0.7816164E-02  0.1312668E+00
        -11   -1    0    0    0    0  0.00000000000E+00  0.00000000000E+00  0.45593999997E+02  0.45594000000E+02  0.51100000000E-03 0.  1.
         11   -1    0    0    0    0 -0.00000000000E+00 -0.00000000000E+00 -0.45593999997E+02  0.45594000000E+02  0.51100000000E-03 0. -1.
    9900012    2    1    2    0    0  0.16564175160E+02 -0.38095356779E+02  0.12569674456E+02  0.47787253200E+02  0.19999918640E+02 0.  0.
         12    1    1    2    0    0 -0.16564175160E+02  0.38095356779E+02 -0.12569674456E+02  0.43400746800E+02  0.00000000000E+00 0. -1.
         11    1    3    3    0    0 -0.63991860925E+00  0.17339274957E+00 -0.80844303986E+00  0.10455339697E+01  0.51100000000E-03 0. -1.
        -11    1    3    3    0    0  0.15699945980E+02 -0.23731533306E+02  0.25819354506E+01  0.28571670721E+02  0.51100000000E-03 0.  1.
        -12    1    3    3    0    0  0.15041477883E+01 -0.14537216223E+02  0.10796182045E+02  0.18170048510E+02  0.00000000000E+00 0.  1.
</event>
<event>
 7    1  0.2339217E-009  0.4778727E+02  0.7816164E-02  0.1312668E+00
        -11   -1    0    0    0    0  0.00000000000E+00  0.00000000000E+00  0.45593999997E+02  0.45594000000E+02  0.51100000000E-03 0.  1.
         11   -1    0    0    0    0 -0.00000000000E+00 -0.00000000000E+00 -0.45593999997E+02  0.45594000000E+02  0.51100000000E-03 0. -1.
    9900012    2    1    2    0    0  0.25558594363E+02  0.25394281621E+02  0.24197353269E+02  0.47787272010E+02  0.20000004402E+02 0.  0.
         12    1    1    2    0    0 -0.25558594363E+02 -0.25394281621E+02 -0.24197353269E+02  0.43400727990E+02  0.00000000000E+00 0. -1.
         11    1    3    3    0    0  0.54619844401E+01  0.21263676110E+01  0.89328903678E+01  0.10684158545E+02  0.51100000000E-03 0. -1.
        -11    1    3    3    0    0  0.18339553269E+02  0.15932002179E+02  0.16625858354E+02  0.29437851039E+02  0.51100000000E-03 0.  1.
         12    1    3    3    0    0  0.17570566537E+01  0.73359118303E+01 -0.13613954525E+01  0.76652624250E+01  0.00000000000E+00 0. -1.
</event>
<event>
 7    1  0.2339217E-009  0.4778727E+02  0.7816164E-02  0.1312668E+00
        -11   -1    0    0    0    0  0.00000000000E+00  0.00000000000E+00  0.45593999997E+02  0.45594000000E+02  0.51100000000E-03 0.  1.
         11   -1    0    0    0    0 -0.00000000000E+00 -0.00000000000E+00 -0.45593999997E+02  0.45594000000E+02  0.51100000000E-03 0. -1.
    9900012    2    1    2    0    0 -0.25326778316E+02  0.32851780955E+02  0.12764709881E+02  0.47787273852E+02  0.20000012803E+02 0.  0.
         12    1    1    2    0    0  0.25326778316E+02 -0.32851780955E+02 -0.12764709881E+02  0.43400726148E+02  0.00000000000E+00 0. -1.
         11    1    3    3    0    0  0.11101958335E+01  0.46361405020E+00 -0.90835412947E+00  0.15075079642E+01  0.51100000000E-03 0. -1.
        -11    1    3    3    0    0 -0.99874977655E+01  0.29067271310E+01  0.41808741971E+01  0.11210659371E+02  0.51100000000E-03 0.  1.
        -12    1    3    3    0    0 -0.16449476384E+02  0.29481439773E+02  0.94921898138E+01  0.35069106517E+02  0.00000000000E+00 0.  1.
</event>
<event>
 7    1  0.2339217E-009  0.4778726E+02  0.7816164E-02  0.1312668E+00
        -11   -1    0    0    0    0  0.00000000000E+00  0.00000000000E+00  0.45593999997E+02  0.45594000000E+02  0.51100000000E-03 0.  1.
         11   -1    0    0    0    0 -0.00000000000E+00 -0.00000000000E+00 -0.45593999997E+02  0.45594000000E+02  0.51100000000E-03 0. -1.
    9900012    2    1    2    0    0  0.35166844362E+02 -0.22779217861E+02  0.11314794568E+02  0.47787259397E+02  0.19999946895E+02 0.  0.
         12    1    1    2    0    0 -0.35166844362E+02  0.22779217861E+02 -0.11314794568E+02  0.43400740603E+02  0.00000000000E+00 0. -1.
         11    1    3    3    0    0  0.17415232013E+02 -0.50040828303E+01  0.47615549298E+01  0.18735088915E+02  0.51100000000E-03 0. -1.
        -11    1    3    3    0    0  0.68464545095E+01  0.33276064482E+00  0.34945897696E+01  0.76939474210E+01  0.51100000000E-03 0.  1.
         12    1    3    3    0    0  0.10905157839E+02 -0.18107895676E+02  0.30586498688E+01  0.21358223061E+02  0.00000000000E+00 0. -1.
</event>
<event>
 7    1  0.2339217E-009  0.4778726E+02  0.7816164E-02  0.1312668E+00
        -11   -1    0    0    0    0  0.00000000000E+00  0.00000000000E+00  0.45593999997E+02  0.45594000000E+02  0.51100000000E-03 0.  1.
         11   -1    0    0    0    0 -0.00000000000E+00 -0.00000000000E+00 -0.45593999997E+02  0.45594000000E+02  0.51100000000E-03 0. -1.
    9900012    2    1    2    0    0 -0.13451080108E+02  0.22509249530E+01  0.41202259739E+02  0.47787257762E+02  0.19999939440E+02 0.  0.
         12    1    1    2    0    0  0.13451080108E+02 -0.22509249530E+01 -0.41202259739E+02  0.43400742238E+02  0.00000000000E+00 0. -1.
         11    1    3    3    0    0 -0.11280266616E+02  0.20889371082E+01  0.12612468039E+02  0.17049411236E+02  0.51100000000E-03 0. -1.
        -11    1    3    3    0    0 -0.23494031359E+01  0.32928766702E+01  0.32071671079E+01  0.51622333325E+01  0.51100000000E-03 0.  1.
        -12    1    3    3    0    0  0.17858964388E+00 -0.31308888254E+01  0.25382624591E+02  0.25575613194E+02  0.00000000000E+00 0.  1.
</event>
<event>
 7    1  0.2339217E-009  0.4778727E+02  0.7816164E-02  0.1312668E+00
        -11   -1    0    0    0    0  0.00000000000E+00  0.00000000000E+00  0.45593999997E+02  0.45594000000E+02  0.51100000000E-03 0.  1.
         11   -1    0    0    0    0 -0.00000000000E+00 -0.00000000000E+00 -0.45593999997E+02  0.45594000000E+02  0.51100000000E-03 0. -1.
    9900012    2    1    2    0    0 -0.19991837075E+02 -0.18875372969E+02  0.33580800005E+02  0.47787269783E+02  0.19999994248E+02 0.  0.
         12    1    1    2    0    0  0.19991837075E+02  0.18875372969E+02 -0.33580800005E+02  0.43400730217E+02  0.00000000000E+00 0. -1.
         11    1    3    3    0    0 -0.75587491638E+01 -0.37613421986E+01  0.42534062325E+01  0.94537743202E+01  0.51100000000E-03 0. -1.
        -11    1    3    3    0    0 -0.15740379046E+02 -0.13378926881E+02  0.26738743401E+02  0.33789282560E+02  0.51100000000E-03 0.  1.
         12    1    3    3    0    0  0.33072911345E+01 -0.17351038898E+01  0.25886503721E+01  0.45442129028E+01  0.00000000000E+00 0. -1.
</event>
<event>
 7    1  0.2339217E-009  0.4778726E+02  0.7816164E-02  0.1312668E+00
        -11   -1    0    0    0    0  0.00000000000E+00  0.00000000000E+00  0.45593999997E+02  0.45594000000E+02  0.51100000000E-03 0.  1.
         11   -1    0    0    0    0 -0.00000000000E+00 -0.00000000000E+00 -0.45593999997E+02  0.45594000000E+02  0.51100000000E-03 0. -1.
    9900012    2    1    2    0    0  0.35567661062E+02  0.23514954318E+02 -0.81001564639E+01  0.47787261242E+02  0.19999955306E+02 0.  0.
         12    1    1    2    0    0 -0.35567661062E+02 -0.23514954318E+02  0.81001564639E+01  0.43400738758E+02  0.00000000000E+00 0. -1.
         11    1    3    3    0    0  0.84660725506E+01 -0.15961979004E+01 -0.37758525879E+01  0.94063433488E+01  0.51100000000E-03 0. -1.
        -11    1    3    3    0    0  0.15495442062E+01  0.10272204803E+01  0.19691412191E+01  0.27080964835E+01  0.51100000000E-03 0.  1.
        -12    1    3    3    0    0  0.25552044305E+02  0.24083931739E+02 -0.62934450951E+01  0.35672821410E+02  0.00000000000E+00 0.  1.
</event>
<event>
 7    1  0.2339217E-009  0.4778727E+02  0.7816164E-02  0.1312668E+00
        -11   -1    0    0    0    0  0.00000000000E+00  0.00000000000E+00  0.45593999997E+02  0.45594000000E+02  0.51100000000E-03 0.  1.
         11   -1    0    0    0    0 -0.00000000000E+00 -0.00000000000E+00 -0.45593999997E+02  0.45594000000E+02  0.51100000000E-03 0. -1.
    9900012    2    1    2    0    0  0.34254880987E+02 -0.13136147109E+02  0.23187669764E+02  0.47787271189E+02  0.20000000657E+02 0.  0.
         12    1    1    2    0    0 -0.34254880987E+02  0.13136147109E+02 -0.23187669764E+02  0.43400728811E+02  0.00000000000E+00 0. -1.
         11    1    3    3    0    0  0.11623019417E+02  0.80668070202E+00  0.15014107576E+02  0.19004440025E+02  0.51100000000E-03 0. -1.
        -11    1    3    3    0    0  0.98081306856E+00 -0.11827378167E+01  0.26320555700E+01  0.30477171462E+01  0.51100000000E-03 0.  1.
        -12    1    3    3    0    0  0.21651048501E+02 -0.12760089994E+02  0.55415066180E+01  0.25735114017E+02  0.00000000000E+00 0.  1.
</event>
<event>
 7    1  0.2339217E-009  0.4778728E+02  0.7816164E-02  0.1312668E+00
        -11   -1    0    0    0    0  0.00000000000E+00  0.00000000000E+00  0.45593999997E+02  0.45594000000E+02  0.51100000000E-03 0.  1.
         11   -1    0    0    0    0 -0.00000000000E+00 -0.00000000000E+00 -0.45593999997E+02  0.45594000000E+02  0.51100000000E-03 0. -1.
    9900012    2    1    2    0    0  0.94143033672E+01  0.41678651988E+02 -0.76081266270E+01  0.47787277308E+02  0.20000028557E+02 0.  0.
         12    1    1    2    0    0 -0.94143033672E+01 -0.41678651988E+02  0.76081266270E+01  0.43400722692E+02  0.00000000000E+00 0. -1.
         11    1    3    3    0    0  0.81429002402E+01  0.11632820997E+02 -0.36044931716E+01  0.14649973378E+02  0.51100000000E-03 0. -1.
        -11    1    3    3    0    0  0.15042672376E+01  0.21940513652E+02 -0.88328296178E+01  0.23699532454E+02  0.51100000000E-03 0.  1.
         12    1    3    3    0    0 -0.23286411064E+00  0.81053173386E+01  0.48291961623E+01  0.94377714757E+01  0.00000000000E+00 0. -1.
</event>
<event>
 7    1  0.2339217E-009  0.4778724E+02  0.7816164E-02  0.1312668E+00
        -11   -1    0    0    0    0  0.00000000000E+00  0.00000000000E+00  0.45593999997E+02  0.45594000000E+02  0.51100000000E-03 0.  1.
         11   -1    0    0    0    0 -0.00000000000E+00 -0.00000000000E+00 -0.45593999997E+02  0.45594000000E+02  0.51100000000E-03 0. -1.
    9900012    2    1    2    0    0 -0.27822235206E+02 -0.93690745189E+01  0.31965125923E+02  0.47787244194E+02  0.19999877580E+02 0.  0.
         12    1    1    2    0    0  0.27822235206E+02  0.93690745189E+01 -0.31965125923E+02  0.43400755806E+02  0.00000000000E+00 0. -1.
         11    1    3    3    0    0 -0.10680554738E+01  0.39242559007E+00  0.42005254154E+01  0.43519138738E+01  0.51100000000E-03 0. -1.
        -11    1    3    3    0    0 -0.25432998016E+02 -0.94674005876E+01  0.30229176766E+02  0.40623542314E+02  0.51100000000E-03 0.  1.
        -12    1    3    3    0    0 -0.13211817170E+01 -0.29409952141E+00 -0.24645762585E+01  0.28117880062E+01  0.00000000000E+00 0.  1.
</event>
<event>
 7    1  0.2339217E-009  0.4778726E+02  0.7816164E-02  0.1312668E+00
        -11   -1    0    0    0    0  0.00000000000E+00  0.00000000000E+00  0.45593999997E+02  0.45594000000E+02  0.51100000000E-03 0.  1.
         11   -1    0    0    0    0 -0.00000000000E+00 -0.00000000000E+00 -0.45593999997E+02  0.45594000000E+02  0.51100000000E-03 0. -1.
    9900012    2    1    2    0    0 -0.17633660042E+02 -0.29684669502E+02  0.26296358703E+02  0.47787262092E+02  0.19999959183E+02 0.  0.
         12    1    1    2    0    0  0.17633660042E+02  0.29684669502E+02 -0.26296358703E+02  0.43400737908E+02  0.00000000000E+00 0. -1.
         11    1    3    3    0    0 -0.87382624986E+01 -0.26687718344E+01  0.76358078256E+01  0.11907356382E+02  0.51100000000E-03 0. -1.
        -11    1    3    3    0    0  0.13478893390E+01  0.37398139864E+00  0.73075573530E+00  0.15781862889E+01  0.51100000000E-03 0.  1.
        -12    1    3    3    0    0 -0.10243286882E+02 -0.27389879066E+02  0.17929795142E+02  0.34301719421E+02  0.00000000000E+00 0.  1.
</event>
<event>
 7    1  0.2471144E-009  0.4778728E+02  0.7816164E-02  0.1312668E+00
        -11   -1    0    0    0    0  0.00000000000E+00  0.00000000000E+00  0.45593999997E+02  0.45594000000E+02  0.51100000000E-03 0. -1.
         11   -1    0    0    0    0 -0.00000000000E+00 -0.00000000000E+00 -0.45593999997E+02  0.45594000000E+02  0.51100000000E-03 0.  1.
    9900012    2    1    2    0    0 -0.32780825903E+02  0.27720151366E+02  0.63744456222E+01  0.47787275402E+02  0.20000019870E+02 0.  0.
         12    1    1    2    0    0  0.32780825903E+02 -0.27720151366E+02 -0.63744456222E+01  0.43400724598E+02  0.00000000000E+00 0. -1.
         11    1    3    3    0    0 -0.25333455861E+01  0.46449066238E+00 -0.32257622625E+01  0.41278485764E+01  0.51100000000E-03 0. -1.
        -11    1    3    3    0    0 -0.16250810982E+02  0.14585943098E+02 -0.12714504060E+01  0.21873618357E+02  0.51100000000E-03 0.  1.
        -12    1    3    3    0    0 -0.13996669334E+02  0.12669717606E+02  0.10871658291E+02  0.21785808469E+02  0.00000000000E+00 0.  1.
</event>
<event>
 7    1  0.2339217E-009  0.4778727E+02  0.7816164E-02  0.1312668E+00
        -11   -1    0    0    0    0  0.00000000000E+00  0.00000000000E+00  0.45593999997E+02  0.45594000000E+02  0.51100000000E-03 0.  1.
         11   -1    0    0    0    0 -0.00000000000E+00 -0.00000000000E+00 -0.45593999997E+02  0.45594000000E+02  0.51100000000E-03 0. -1.
    9900012    2    1    2    0    0  0.38480779079E+02  0.58887342063E+01  0.19187916392E+02  0.47787266313E+02  0.19999978428E+02 0.  0.
         12    1    1    2    0    0 -0.38480779079E+02 -0.58887342063E+01 -0.19187916392E+02  0.43400733687E+02  0.00000000000E+00 0. -1.
         11    1    3    3    0    0 -0.62015625368E-01 -0.22328664406E+01  0.17342695244E+01  0.28279373267E+01  0.51100000000E-03 0. -1.
        -11    1    3    3    0    0  0.33492229151E+01 -0.97408515131E+00  0.58343364678E+01  0.67974714635E+01  0.51100000000E-03 0.  1.
        -12    1    3    3    0    0  0.35193571789E+02  0.90956857983E+01  0.11619310400E+02  0.38161857523E+02  0.00000000000E+00 0.  1.
</event>
<event>
 7    1  0.2339217E-009  0.4778727E+02  0.7816164E-02  0.1312668E+00
        -11   -1    0    0    0    0  0.00000000000E+00  0.00000000000E+00  0.45593999997E+02  0.45594000000E+02  0.51100000000E-03 0. -1.
         11   -1    0    0    0    0 -0.00000000000E+00 -0.00000000000E+00 -0.45593999997E+02  0.45594000000E+02  0.51100000000E-03 0.  1.
    9900012    2    1    2    0    0  0.17304951921E+01 -0.41495746603E+02 -0.12598875657E+02  0.47787271117E+02  0.20000000330E+02 0.  0.
         12    1    1    2    0    0 -0.17304951921E+01  0.41495746603E+02  0.12598875657E+02  0.43400728883E+02  0.00000000000E+00 0. -1.
         11    1    3    3    0    0  0.97199232157E+01 -0.19884016960E+02 -0.91162956552E+01  0.23936538691E+02  0.51100000000E-03 0. -1.
        -11    1    3    3    0    0 -0.43076454839E+00 -0.81027761484E+01 -0.10905548318E+01  0.81871759178E+01  0.51100000000E-03 0.  1.
         12    1    3    3    0    0 -0.75586634752E+01 -0.13508953495E+02 -0.23920251696E+01  0.15663556508E+02  0.00000000000E+00 0. -1.
</event>
<event>
 7    1  0.2339217E-009  0.4778728E+02  0.7816164E-02  0.1312668E+00
        -11   -1    0    0    0    0  0.00000000000E+00  0.00000000000E+00  0.45593999997E+02  0.45594000000E+02  0.51100000000E-03 0.  1.
         11   -1    0    0    0    0 -0.00000000000E+00 -0.00000000000E+00 -0.45593999997E+02  0.45594000000E+02  0.51100000000E-03 0. -1.
    9900012    2    1    2    0    0 -0.44325836183E-01 -0.36367613433E+02 -0.23685806389E+02  0.47787277703E+02  0.20000030361E+02 0.  0.
         12    1    1    2    0    0  0.44325836183E-01  0.36367613433E+02  0.23685806389E+02  0.43400722297E+02  0.00000000000E+00 0. -1.
         11    1    3    3    0    0  0.47699001356E+01 -0.14431668360E+02 -0.79703154993E+01  0.17162486078E+02  0.51100000000E-03 0.  1.
        -11    1    3    3    0    0  0.44446056338E+01 -0.78215285671E+01 -0.29718997634E+01  0.94743346379E+01  0.51100000000E-03 0. -1.
         12    1    3    3    0    0 -0.92588316056E+01 -0.14114416506E+02 -0.12743591126E+02  0.21150456988E+02  0.00000000000E+00 0. -1.
</event>
<event>
 7    1  0.2339217E-009  0.4778727E+02  0.7816164E-02  0.1312668E+00
        -11   -1    0    0    0    0  0.00000000000E+00  0.00000000000E+00  0.45593999997E+02  0.45594000000E+02  0.51100000000E-03 0.  1.
         11   -1    0    0    0    0 -0.00000000000E+00 -0.00000000000E+00 -0.45593999997E+02  0.45594000000E+02  0.51100000000E-03 0. -1.
    9900012    2    1    2    0    0  0.28592899543E+02 -0.80170338819E+01  0.31651167942E+02  0.47787272257E+02  0.20000005529E+02 0.  0.
         12    1    1    2    0    0 -0.28592899543E+02  0.80170338819E+01 -0.31651167942E+02  0.43400727743E+02  0.00000000000E+00 0. -1.
         11    1    3    3    0    0  0.37888194008E+01 -0.42145484809E+01  0.23459407408E+01  0.61335967890E+01  0.51100000000E-03 0. -1.
        -11    1    3    3    0    0  0.26736161801E+02 -0.51721751601E+01  0.26864905368E+02  0.38253063726E+02  0.51100000000E-03 0.  1.
        -12    1    3    3    0    0 -0.19320816589E+01  0.13696897591E+01  0.24403218328E+01  0.34006117421E+01  0.00000000000E+00 0.  1.
</event>
<event>
 7    1  0.2339217E-009  0.4778726E+02  0.7816164E-02  0.1312668E+00
        -11   -1    0    0    0    0  0.00000000000E+00  0.00000000000E+00  0.45593999997E+02  0.45594000000E+02  0.51100000000E-03 0.  1.
         11   -1    0    0    0    0 -0.00000000000E+00 -0.00000000000E+00 -0.45593999997E+02  0.45594000000E+02  0.51100000000E-03 0. -1.
    9900012    2    1    2    0    0  0.37546032129E+02  0.86092312265E+01  0.19995014465E+02  0.47787262744E+02  0.19999962155E+02 0.  0.
         12    1    1    2    0    0 -0.37546032129E+02 -0.86092312265E+01 -0.19995014465E+02  0.43400737256E+02  0.00000000000E+00 0. -1.
         11    1    3    3    0    0  0.37928481986E+00  0.96063459072E+00 -0.79576030653E+00  0.13038061658E+01  0.51100000000E-03 0. -1.
        -11    1    3    3    0    0  0.17096640464E+02 -0.32582150390E+01  0.14856679871E+02  0.22883007177E+02  0.51100000000E-03 0.  1.
         12    1    3    3    0    0  0.20070106845E+02  0.10906811675E+02  0.59340949003E+01  0.23600449401E+02  0.00000000000E+00 0. -1.
</event>
<event>
 7    1  0.2339217E-009  0.4778727E+02  0.7816164E-02  0.1312668E+00
        -11   -1    0    0    0    0  0.00000000000E+00  0.00000000000E+00  0.45593999997E+02  0.45594000000E+02  0.51100000000E-03 0.  1.
         11   -1    0    0    0    0 -0.00000000000E+00 -0.00000000000E+00 -0.45593999997E+02  0.45594000000E+02  0.51100000000E-03 0. -1.
    9900012    2    1    2    0    0 -0.33679478498E+01  0.35358911345E+02  0.24940475940E+02  0.47787273919E+02  0.20000013108E+02 0.  0.
         12    1    1    2    0    0  0.33679478498E+01 -0.35358911345E+02 -0.24940475940E+02  0.43400726081E+02  0.00000000000E+00 0. -1.
         11    1    3    3    0    0  0.18939734236E+01  0.11894222040E+02  0.14199675302E+02  0.18619624922E+02  0.51100000000E-03 0. -1.
        -11    1    3    3    0    0  0.23551472331E+01  0.15434895497E+02  0.88257396341E+01  0.17935339357E+02  0.51100000000E-03 0.  1.
         12    1    3    3    0    0 -0.76170685066E+01  0.80297938080E+01  0.19150610036E+01  0.11232309641E+02  0.00000000000E+00 0. -1.
</event>
<event>
 7    1  0.2339217E-009  0.4778727E+02  0.7816164E-02  0.1312668E+00
        -11   -1    0    0    0    0  0.00000000000E+00  0.00000000000E+00  0.45593999997E+02  0.45594000000E+02  0.51100000000E-03 0.  1.
         11   -1    0    0    0    0 -0.00000000000E+00 -0.00000000000E+00 -0.45593999997E+02  0.45594000000E+02  0.51100000000E-03 0. -1.
    9900012    2    1    2    0    0 -0.75651217012E+01 -0.39655244837E+02  0.15932785026E+02  0.47787272493E+02  0.20000006606E+02 0.  0.
         12    1    1    2    0    0  0.75651217012E+01  0.39655244837E+02 -0.15932785026E+02  0.43400727507E+02  0.00000000000E+00 0. -1.
         11    1    3    3    0    0 -0.90032667078E+00 -0.15298247706E+02  0.43307985581E+01  0.15924910908E+02  0.51100000000E-03 0. -1.
        -11    1    3    3    0    0  0.91201757064E+00 -0.20362412949E+02  0.11269023487E+02  0.23290567356E+02  0.51100000000E-03 0.  1.
         12    1    3    3    0    0 -0.75768126010E+01 -0.39945841815E+01  0.33296298097E+00  0.85717942300E+01  0.00000000000E+00 0. -1.
</event>
<event>
 7    1  0.2339217E-009  0.4778727E+02  0.7816164E-02  0.1312668E+00
        -11   -1    0    0    0    0  0.00000000000E+00  0.00000000000E+00  0.45593999997E+02  0.45594000000E+02  0.51100000000E-03 0. -1.
         11   -1    0    0    0    0 -0.00000000000E+00 -0.00000000000E+00 -0.45593999997E+02  0.45594000000E+02  0.51100000000E-03 0.  1.
    9900012    2    1    2    0    0  0.25325138259E+02  0.29075154717E+02 -0.19922249224E+02  0.47787271160E+02  0.20000000529E+02 0.  0.
         12    1    1    2    0    0 -0.25325138259E+02 -0.29075154717E+02  0.19922249224E+02  0.43400728840E+02  0.00000000000E+00 0. -1.
         11    1    3    3    0    0  0.13438464084E+01  0.68408814283E+01 -0.15130169203E+01  0.71339191436E+01  0.51100000000E-03 0. -1.
        -11    1    3    3    0    0 -0.56502993837E+00  0.69907037924E+01 -0.59090258898E+01  0.91709206502E+01  0.51100000000E-03 0.  1.
        -12    1    3    3    0    0  0.24546321789E+02  0.15243569496E+02 -0.12500206414E+02  0.31482431367E+02  0.00000000000E+00 0.  1.
</event>
<event>
 7    1  0.2339217E-009  0.4778727E+02  0.7816164E-02  0.1312668E+00
        -11   -1    0    0    0    0  0.00000000000E+00  0.00000000000E+00  0.45593999997E+02  0.45594000000E+02  0.51100000000E-03 0. -1.
         11   -1    0    0    0    0 -0.00000000000E+00 -0.00000000000E+00 -0.45593999997E+02  0.45594000000E+02  0.51100000000E-03 0.  1.
    9900012    2    1    2    0    0  0.37386413596E+02  0.56032692948E+01 -0.21318605025E+02  0.47787268802E+02  0.19999989774E+02 0.  0.
         12    1    1    2    0    0 -0.37386413596E+02 -0.56032692948E+01  0.21318605025E+02  0.43400731198E+02  0.00000000000E+00 0. -1.
         11    1    3    3    0    0  0.21691046005E+02  0.35264621841E+01 -0.31178696363E+01  0.22195912318E+02  0.51100000000E-03 0.  1.
        -11    1    3    3    0    0  0.10180351296E+02  0.27587335336E+01 -0.58808933802E+01  0.12076219211E+02  0.51100000000E-03 0. -1.
        -12    1    3    3    0    0  0.55150162952E+01 -0.68192642286E+00 -0.12319842008E+02  0.13515137272E+02  0.00000000000E+00 0.  1.
</event>
<event>
 7    1  0.2339217E-009  0.4778727E+02  0.7816164E-02  0.1312668E+00
        -11   -1    0    0    0    0  0.00000000000E+00  0.00000000000E+00  0.45593999997E+02  0.45594000000E+02  0.51100000000E-03 0.  1.
         11   -1    0    0    0    0 -0.00000000000E+00 -0.00000000000E+00 -0.45593999997E+02  0.45594000000E+02  0.51100000000E-03 0. -1.
    9900012    2    1    2    0    0 -0.16389994729E+02 -0.48134718651E+01  0.39897644237E+02  0.47787268966E+02  0.19999990525E+02 0.  0.
         12    1    1    2    0    0  0.16389994729E+02  0.48134718651E+01 -0.39897644237E+02  0.43400731034E+02  0.00000000000E+00 0. -1.
         11    1    3    3    0    0 -0.11713701751E+02 -0.78902178760E+01  0.26523794887E+02  0.30049593047E+02  0.51100000000E-03 0. -1.
        -11    1    3    3    0    0 -0.78662985953E+01  0.13211032146E+01  0.97975268085E+01  0.12633902767E+02  0.51100000000E-03 0.  1.
         12    1    3    3    0    0  0.31900056177E+01  0.17556427963E+01  0.35763225416E+01  0.51037731523E+01  0.00000000000E+00 0. -1.
</event>
<event>
 7    1  0.2339217E-009  0.4778727E+02  0.7816164E-02  0.1312668E+00
        -11   -1    0    0    0    0  0.00000000000E+00  0.00000000000E+00  0.45593999997E+02  0.45594000000E+02  0.51100000000E-03 0. -1.
         11   -1    0    0    0    0 -0.00000000000E+00 -0.00000000000E+00 -0.45593999997E+02  0.45594000000E+02  0.51100000000E-03 0.  1.
    9900012    2    1    2    0    0 -0.36892518920E+02 -0.19253277548E+02  0.12323837861E+02  0.47787266962E+02  0.19999981386E+02 0.  0.
         12    1    1    2    0    0  0.36892518920E+02  0.19253277548E+02 -0.12323837861E+02  0.43400733038E+02  0.00000000000E+00 0. -1.
         11    1    3    3    0    0 -0.72304371313E+00  0.64741818720E+00 -0.19064634698E+01  0.21392862695E+01  0.51100000000E-03 0. -1.
        -11    1    3    3    0    0 -0.70222817022E+01  0.58028997704E+00 -0.57672159308E+00  0.70697796868E+01  0.51100000000E-03 0.  1.
        -12    1    3    3    0    0 -0.29147193505E+02 -0.20480985712E+02  0.14807022924E+02  0.38578201006E+02  0.00000000000E+00 0.  1.
</event>
<event>
 7    1  0.2339217E-009  0.4778726E+02  0.7816164E-02  0.1312668E+00
        -11   -1    0    0    0    0  0.00000000000E+00  0.00000000000E+00  0.45593999997E+02  0.45594000000E+02  0.51100000000E-03 0.  1.
         11   -1    0    0    0    0 -0.00000000000E+00 -0.00000000000E+00 -0.45593999997E+02  0.45594000000E+02  0.51100000000E-03 0. -1.
    9900012    2    1    2    0    0  0.34796838188E+01  0.12986030775E+02  0.41265955049E+02  0.47787259904E+02  0.19999949205E+02 0.  0.
         12    1    1    2    0    0 -0.34796838188E+01 -0.12986030775E+02 -0.41265955049E+02  0.43400740096E+02  0.00000000000E+00 0. -1.
         11    1    3    3    0    0  0.10572531757E+01  0.14218106389E+01 -0.13596240848E+01  0.22333624165E+01  0.51100000000E-03 0. -1.
        -11    1    3    3    0    0 -0.35798571742E+00 -0.18062526124E+01  0.10278907774E+02  0.10442540283E+02  0.51100000000E-03 0.  1.
        -12    1    3    3    0    0  0.27804163605E+01  0.13370472749E+02  0.32346671360E+02  0.35111357204E+02  0.00000000000E+00 0.  1.
</event>
<event>
 7    1  0.2339217E-009  0.4778725E+02  0.7816164E-02  0.1312668E+00
        -11   -1    0    0    0    0  0.00000000000E+00  0.00000000000E+00  0.45593999997E+02  0.45594000000E+02  0.51100000000E-03 0. -1.
         11   -1    0    0    0    0 -0.00000000000E+00 -0.00000000000E+00 -0.45593999997E+02  0.45594000000E+02  0.51100000000E-03 0.  1.
    9900012    2    1    2    0    0  0.39391209593E+02 -0.76585119094E+01 -0.16531941036E+02  0.47787248022E+02  0.19999895031E+02 0.  0.
         12    1    1    2    0    0 -0.39391209593E+02  0.76585119094E+01  0.16531941036E+02  0.43400751978E+02  0.00000000000E+00 0. -1.
         11    1    3    3    0    0  0.98986995219E+01 -0.34471994433E+01  0.23926164508E+01  0.10751374329E+02  0.51100000000E-03 0. -1.
        -11    1    3    3    0    0  0.11392754579E+01  0.21659610436E+01 -0.18069814622E+00  0.24539738981E+01  0.51100000000E-03 0.  1.
        -12    1    3    3    0    0  0.28353234613E+02 -0.63772735097E+01 -0.18743859340E+02  0.34581899795E+02  0.00000000000E+00 0.  1.
</event>
<event>
 7    1  0.2339217E-009  0.4778727E+02  0.7816164E-02  0.1312668E+00
        -11   -1    0    0    0    0  0.00000000000E+00  0.00000000000E+00  0.45593999997E+02  0.45594000000E+02  0.51100000000E-03 0. -1.
         11   -1    0    0    0    0 -0.00000000000E+00 -0.00000000000E+00 -0.45593999997E+02  0.45594000000E+02  0.51100000000E-03 0.  1.
    9900012    2    1    2    0    0  0.31343419073E+02 -0.15426455047E+02  0.25753411214E+02  0.47787267015E+02  0.19999981627E+02 0.  0.
         12    1    1    2    0    0 -0.31343419073E+02  0.15426455047E+02 -0.25753411214E+02  0.43400732985E+02  0.00000000000E+00 0. -1.
         11    1    3    3    0    0  0.15967743452E+01  0.31486713113E+01  0.43529227434E+01  0.56046191670E+01  0.51100000000E-03 0. -1.
        -11    1    3    3    0    0  0.16821532131E+00 -0.24870258989E+01  0.46959969843E+00  0.25365563968E+01  0.51100000000E-03 0.  1.
        -12    1    3    3    0    0  0.29578429406E+02 -0.16088100460E+02  0.20930888773E+02  0.39646091451E+02  0.00000000000E+00 0.  1.
</event>
<event>
 7    1  0.2339217E-009  0.4778727E+02  0.7816164E-02  0.1312668E+00
        -11   -1    0    0    0    0  0.00000000000E+00  0.00000000000E+00  0.45593999997E+02  0.45594000000E+02  0.51100000000E-03 0.  1.
         11   -1    0    0    0    0 -0.00000000000E+00 -0.00000000000E+00 -0.45593999997E+02  0.45594000000E+02  0.51100000000E-03 0. -1.
    9900012    2    1    2    0    0  0.34846124989E+02 -0.25872080001E+02 -0.81169120861E-01  0.47787267993E+02  0.19999986088E+02 0.  0.
         12    1    1    2    0    0 -0.34846124989E+02  0.25872080001E+02  0.81169120861E-01  0.43400732007E+02  0.00000000000E+00 0. -1.
         11    1    3    3    0    0  0.42244007840E+01 -0.54542391882E+01  0.14036745905E+01  0.70402123351E+01  0.51100000000E-03 0. -1.
        -11    1    3    3    0    0  0.28573577901E+02 -0.20705133693E+02 -0.59884609982E+01  0.35791250058E+02  0.51100000000E-03 0.  1.
         12    1    3    3    0    0  0.20481463041E+01  0.28729288078E+00  0.45036172868E+01  0.49558056004E+01  0.00000000000E+00 0. -1.
</event>
<event>
 7    1  0.2339217E-009  0.4778727E+02  0.7816164E-02  0.1312668E+00
        -11   -1    0    0    0    0  0.00000000000E+00  0.00000000000E+00  0.45593999997E+02  0.45594000000E+02  0.51100000000E-03 0.  1.
         11   -1    0    0    0    0 -0.00000000000E+00 -0.00000000000E+00 -0.45593999997E+02  0.45594000000E+02  0.51100000000E-03 0. -1.
    9900012    2    1    2    0    0 -0.18133624522E+02 -0.38626818993E+02  0.79223440713E+01  0.47787273976E+02  0.20000013367E+02 0.  0.
         12    1    1    2    0    0  0.18133624522E+02  0.38626818993E+02 -0.79223440713E+01  0.43400726024E+02  0.00000000000E+00 0. -1.
         11    1    3    3    0    0 -0.25109433661E+00 -0.82857456661E+01 -0.39546214135E+00  0.82989770559E+01  0.51100000000E-03 0. -1.
        -11    1    3    3    0    0 -0.25886885406E+01 -0.18934900566E+02  0.70408302904E+01  0.20366763592E+02  0.51100000000E-03 0.  1.
        -12    1    3    3    0    0 -0.15293841644E+02 -0.11406172761E+02  0.12769759222E+01  0.19121533328E+02  0.00000000000E+00 0.  1.
</event>
<event>
 7    1  0.2339217E-009  0.4778728E+02  0.7816164E-02  0.1312668E+00
        -11   -1    0    0    0    0  0.00000000000E+00  0.00000000000E+00  0.45593999997E+02  0.45594000000E+02  0.51100000000E-03 0.  1.
         11   -1    0    0    0    0 -0.00000000000E+00 -0.00000000000E+00 -0.45593999997E+02  0.45594000000E+02  0.51100000000E-03 0. -1.
    9900012    2    1    2    0    0  0.33902361511E+02 -0.25465446478E+02  0.92608574881E+01  0.47787279248E+02  0.20000037405E+02 0.  0.
         12    1    1    2    0    0 -0.33902361511E+02  0.25465446478E+02 -0.92608574881E+01  0.43400720752E+02  0.00000000000E+00 0. -1.
         11    1    3    3    0    0  0.34402093216E+01 -0.19106456472E+01  0.49465840888E+01  0.63209414943E+01  0.51100000000E-03 0. -1.
        -11    1    3    3    0    0  0.19615175059E+02 -0.60847495362E+01  0.38655714769E+01  0.20897892540E+02  0.51100000000E-03 0.  1.
         12    1    3    3    0    0  0.10846977131E+02 -0.17470051295E+02  0.44870192240E+00  0.20568445214E+02  0.00000000000E+00 0. -1.
</event>
<event>
 7    1  0.2339217E-009  0.4778727E+02  0.7816164E-02  0.1312668E+00
        -11   -1    0    0    0    0  0.00000000000E+00  0.00000000000E+00  0.45593999997E+02  0.45594000000E+02  0.51100000000E-03 0.  1.
         11   -1    0    0    0    0 -0.00000000000E+00 -0.00000000000E+00 -0.45593999997E+02  0.45594000000E+02  0.51100000000E-03 0. -1.
    9900012    2    1    2    0    0  0.29304717154E+02  0.13145980239E+02  0.29189720065E+02  0.47787274183E+02  0.20000014311E+02 0.  0.
         12    1    1    2    0    0 -0.29304717154E+02 -0.13145980239E+02 -0.29189720065E+02  0.43400725817E+02  0.00000000000E+00 0. -1.
         11    1    3    3    0    0  0.10097677748E+02  0.10328571844E+02  0.60483535836E+01  0.15659663904E+02  0.51100000000E-03 0. -1.
        -11    1    3    3    0    0  0.17310966912E+02  0.58079384961E+01  0.16541460347E+02  0.24637809068E+02  0.51100000000E-03 0.  1.
         12    1    3    3    0    0  0.18960724939E+01 -0.29905301021E+01  0.65999061347E+01  0.74898012110E+01  0.00000000000E+00 0. -1.
</event>
<event>
 7    1  0.2339217E-009  0.4778728E+02  0.7816164E-02  0.1312668E+00
        -11   -1    0    0    0    0  0.00000000000E+00  0.00000000000E+00  0.45593999997E+02  0.45594000000E+02  0.51100000000E-03 0.  1.
         11   -1    0    0    0    0 -0.00000000000E+00 -0.00000000000E+00 -0.45593999997E+02  0.45594000000E+02  0.51100000000E-03 0. -1.
    9900012    2    1    2    0    0 -0.27370189653E+02 -0.27400784619E+02  0.19588073380E+02  0.47787275373E+02  0.20000019737E+02 0.  0.
         12    1    1    2    0    0  0.27370189653E+02  0.27400784619E+02 -0.19588073380E+02  0.43400724627E+02  0.00000000000E+00 0. -1.
         11    1    3    3    0    0 -0.99028334422E+01  0.10659238802E+01  0.52588352888E+01  0.11263110261E+02  0.51100000000E-03 0. -1.
        -11    1    3    3    0    0 -0.58716291876E+00 -0.27323379289E+01  0.15886108602E+01  0.32146719237E+01  0.51100000000E-03 0.  1.
        -12    1    3    3    0    0 -0.16880193292E+02 -0.25734370570E+02  0.12740627231E+02  0.33309493188E+02  0.00000000000E+00 0.  1.
</event>
<event>
 7    1  0.2339217E-009  0.4778727E+02  0.7816164E-02  0.1312668E+00
        -11   -1    0    0    0    0  0.00000000000E+00  0.00000000000E+00  0.45593999997E+02  0.45594000000E+02  0.51100000000E-03 0.  1.
         11   -1    0    0    0    0 -0.00000000000E+00 -0.00000000000E+00 -0.45593999997E+02  0.45594000000E+02  0.51100000000E-03 0. -1.
    9900012    2    1    2    0    0  0.24450562666E+02 -0.11151584054E+01  0.35840616392E+02  0.47787269864E+02  0.19999994618E+02 0.  0.
         12    1    1    2    0    0 -0.24450562666E+02  0.11151584054E+01 -0.35840616392E+02  0.43400730136E+02  0.00000000000E+00 0. -1.
         11    1    3    3    0    0  0.28567665273E+01 -0.27356204189E+01  0.10788686100E+02  0.11490886915E+02  0.51100000000E-03 0. -1.
        -11    1    3    3    0    0  0.21154809150E+01 -0.51990830429E+01  0.58498337202E+01  0.81071745265E+01  0.51100000000E-03 0.  1.
        -12    1    3    3    0    0  0.19478315223E+02  0.68195450563E+01  0.19202096572E+02  0.28189208423E+02  0.00000000000E+00 0.  1.
</event>
<event>
 7    1  0.2339217E-009  0.4778727E+02  0.7816164E-02  0.1312668E+00
        -11   -1    0    0    0    0  0.00000000000E+00  0.00000000000E+00  0.45593999997E+02  0.45594000000E+02  0.51100000000E-03 0.  1.
         11   -1    0    0    0    0 -0.00000000000E+00 -0.00000000000E+00 -0.45593999997E+02  0.45594000000E+02  0.51100000000E-03 0. -1.
    9900012    2    1    2    0    0 -0.11872142482E+02  0.16439139345E+01  0.41712980545E+02  0.47787274591E+02  0.20000016169E+02 0.  0.
         12    1    1    2    0    0  0.11872142482E+02 -0.16439139345E+01 -0.41712980545E+02  0.43400725409E+02  0.00000000000E+00 0. -1.
         11    1    3    3    0    0 -0.85582345386E+01 -0.23168052035E+01  0.92870541461E+01  0.12839795160E+02  0.51100000000E-03 0. -1.
        -11    1    3    3    0    0 -0.57393008728E+01 -0.19565149849E+01  0.10686166005E+02  0.12286645985E+02  0.51100000000E-03 0.  1.
        -12    1    3    3    0    0  0.24253929298E+01  0.59172341230E+01  0.21739760393E+02  0.22660833446E+02  0.00000000000E+00 0.  1.
</event>
<event>
 7    1  0.2339217E-009  0.4778729E+02  0.7816164E-02  0.1312668E+00
        -11   -1    0    0    0    0  0.00000000000E+00  0.00000000000E+00  0.45593999997E+02  0.45594000000E+02  0.51100000000E-03 0.  1.
         11   -1    0    0    0    0 -0.00000000000E+00 -0.00000000000E+00 -0.45593999997E+02  0.45594000000E+02  0.51100000000E-03 0. -1.
    9900012    2    1    2    0    0 -0.38269233653E+02  0.67422601860E+01  0.19329483958E+02  0.47787294167E+02  0.20000105423E+02 0.  0.
         12    1    1    2    0    0  0.38269233653E+02 -0.67422601860E+01 -0.19329483958E+02  0.43400705833E+02  0.00000000000E+00 0. -1.
         11    1    3    3    0    0 -0.15856728617E+02 -0.39427911981E+01  0.53335001182E+01  0.17188009443E+02  0.51100000000E-03 0. -1.
        -11    1    3    3    0    0 -0.18246267672E+02  0.34244493488E+01  0.11604660238E+02  0.21893407154E+02  0.51100000000E-03 0.  1.
        -12    1    3    3    0    0 -0.41662373643E+01  0.72606020352E+01  0.23913236009E+01  0.87058775695E+01  0.00000000000E+00 0.  1.
</event>
<event>
 7    1  0.2339217E-009  0.4778727E+02  0.7816164E-02  0.1312668E+00
        -11   -1    0    0    0    0  0.00000000000E+00  0.00000000000E+00  0.45593999997E+02  0.45594000000E+02  0.51100000000E-03 0.  1.
         11   -1    0    0    0    0 -0.00000000000E+00 -0.00000000000E+00 -0.45593999997E+02  0.45594000000E+02  0.51100000000E-03 0. -1.
    9900012    2    1    2    0    0  0.42057744804E+02  0.95364645000E+01 -0.48810849028E+01  0.47787273705E+02  0.20000012130E+02 0.  0.
         12    1    1    2    0    0 -0.42057744804E+02 -0.95364645000E+01  0.48810849028E+01  0.43400726295E+02  0.00000000000E+00 0. -1.
         11    1    3    3    0    0 -0.51865978994E+00 -0.46845539663E+00 -0.67657324977E+00  0.97273329323E+00  0.51100000000E-03 0. -1.
        -11    1    3    3    0    0  0.28051861074E+02  0.10430266195E+02 -0.94206891642E+01  0.31375894365E+02  0.51100000000E-03 0.  1.
        -12    1    3    3    0    0  0.14524543519E+02 -0.42534629819E+00  0.52161775112E+01  0.15438646046E+02  0.00000000000E+00 0.  1.
</event>
<event>
 7    1  0.2339217E-009  0.4778727E+02  0.7816164E-02  0.1312668E+00
        -11   -1    0    0    0    0  0.00000000000E+00  0.00000000000E+00  0.45593999997E+02  0.45594000000E+02  0.51100000000E-03 0.  1.
         11   -1    0    0    0    0 -0.00000000000E+00 -0.00000000000E+00 -0.45593999997E+02  0.45594000000E+02  0.51100000000E-03 0. -1.
    9900012    2    1    2    0    0  0.36413513022E+02  0.19728323055E+02 -0.12979687975E+02  0.47787274648E+02  0.20000016428E+02 0.  0.
         12    1    1    2    0    0 -0.36413513022E+02 -0.19728323055E+02  0.12979687975E+02  0.43400725352E+02  0.00000000000E+00 0. -1.
         11    1    3    3    0    0  0.16585794782E+02  0.45483126549E+01 -0.95898016109E+01  0.19691115554E+02  0.51100000000E-03 0. -1.
        -11    1    3    3    0    0  0.20590758785E+02  0.10522115221E+02 -0.34270424386E+01  0.23376032088E+02  0.51100000000E-03 0.  1.
        -12    1    3    3    0    0 -0.76304054476E+00  0.46578951790E+01  0.37156074311E-01  0.47201270052E+01  0.00000000000E+00 0.  1.
</event>
<event>
 7    1  0.2567838E-009  0.4778727E+02  0.7816164E-02  0.1312668E+00
        -11   -1    0    0    0    0  0.00000000000E+00  0.00000000000E+00  0.45593999997E+02  0.45594000000E+02  0.51100000000E-03 0.  1.
         11   -1    0    0    0    0 -0.00000000000E+00 -0.00000000000E+00 -0.45593999997E+02  0.45594000000E+02  0.51100000000E-03 0. -1.
    9900012    2    1    2    0    0 -0.14325664650E+02  0.29521009597E+02  0.28406135503E+02  0.47787271785E+02  0.20000003379E+02 0.  0.
         12    1    1    2    0    0  0.14325664650E+02 -0.29521009597E+02 -0.28406135503E+02  0.43400728215E+02  0.00000000000E+00 0. -1.
         11    1    3    3    0    0  0.22879520040E+01  0.58900668043E+01  0.27421399995E+01  0.68881741681E+01  0.51100000000E-03 0. -1.
        -11    1    3    3    0    0 -0.65349569117E+01  0.13910401515E+01  0.21970398557E+01  0.70333234626E+01  0.51100000000E-03 0.  1.
        -12    1    3    3    0    0 -0.10078659742E+02  0.22239902642E+02  0.23466955648E+02  0.33865774155E+02  0.00000000000E+00 0.  1.
</event>
<event>
 7    1  0.2339217E-009  0.4778727E+02  0.7816164E-02  0.1312668E+00
        -11   -1    0    0    0    0  0.00000000000E+00  0.00000000000E+00  0.45593999997E+02  0.45594000000E+02  0.51100000000E-03 0.  1.
         11   -1    0    0    0    0 -0.00000000000E+00 -0.00000000000E+00 -0.45593999997E+02  0.45594000000E+02  0.51100000000E-03 0. -1.
    9900012    2    1    2    0    0  0.14297613403E+02  0.66167266523E+01  0.40440330198E+02  0.47787272735E+02  0.20000007706E+02 0.  0.
         12    1    1    2    0    0 -0.14297613403E+02 -0.66167266523E+01 -0.40440330198E+02  0.43400727265E+02  0.00000000000E+00 0. -1.
         11    1    3    3    0    0  0.12344261470E+02  0.39230525003E+00  0.15578060398E+02  0.19879905952E+02  0.51100000000E-03 0. -1.
        -11    1    3    3    0    0  0.47913090950E+01  0.33328149724E+01  0.22440690759E+02  0.23187257287E+02  0.51100000000E-03 0.  1.
        -12    1    3    3    0    0 -0.28379571617E+01  0.28916064298E+01  0.24215790414E+01  0.47201094956E+01  0.00000000000E+00 0.  1.
</event>
<event>
 7    1  0.2339217E-009  0.4778727E+02  0.7816164E-02  0.1312668E+00
        -11   -1    0    0    0    0  0.00000000000E+00  0.00000000000E+00  0.45593999997E+02  0.45594000000E+02  0.51100000000E-03 0. -1.
         11   -1    0    0    0    0 -0.00000000000E+00 -0.00000000000E+00 -0.45593999997E+02  0.45594000000E+02  0.51100000000E-03 0.  1.
    9900012    2    1    2    0    0  0.32028765744E+02 -0.23928583409E+02 -0.16887994182E+02  0.47787270898E+02  0.19999999332E+02 0.  0.
         12    1    1    2    0    0 -0.32028765744E+02  0.23928583409E+02  0.16887994182E+02  0.43400729102E+02  0.00000000000E+00 0. -1.
         11    1    3    3    0    0  0.26226451986E+02 -0.15291774787E+02 -0.34803660942E+01  0.30557783105E+02  0.51100000000E-03 0. -1.
        -11    1    3    3    0    0  0.10410597910E+01 -0.49612109106E+00 -0.53343220278E+00  0.12706265390E+01  0.51100000000E-03 0.  1.
        -12    1    3    3    0    0  0.47612539679E+01 -0.81406875314E+01 -0.12874195885E+02  0.15958861254E+02  0.00000000000E+00 0.  1.
</event>
<event>
 7    1  0.2339217E-009  0.4778727E+02  0.7816164E-02  0.1312668E+00
        -11   -1    0    0    0    0  0.00000000000E+00  0.00000000000E+00  0.45593999997E+02  0.45594000000E+02  0.51100000000E-03 0. -1.
         11   -1    0    0    0    0 -0.00000000000E+00 -0.00000000000E+00 -0.45593999997E+02  0.45594000000E+02  0.51100000000E-03 0.  1.
    9900012    2    1    2    0    0 -0.93061420483E+01  0.41196572968E+02 -0.99930729097E+01  0.47787269472E+02  0.19999992832E+02 0.  0.
         12    1    1    2    0    0  0.93061420483E+01 -0.41196572968E+02  0.99930729097E+01  0.43400730528E+02  0.00000000000E+00 0. -1.
         11    1    3    3    0    0 -0.93185619832E+01  0.16234287262E+02 -0.40513007161E+01  0.19152042139E+02  0.51100000000E-03 0.  1.
        -11    1    3    3    0    0 -0.27121027973E+01 -0.88628638564E-01  0.12548834541E+00  0.27164506631E+01  0.51100000000E-03 0. -1.
        -12    1    3    3    0    0  0.27245227323E+01  0.25050914345E+02 -0.60672605390E+01  0.25918776670E+02  0.00000000000E+00 0.  1.
</event>
<event>
 7    1  0.2339217E-009  0.4778726E+02  0.7816164E-02  0.1312668E+00
        -11   -1    0    0    0    0  0.00000000000E+00  0.00000000000E+00  0.45593999997E+02  0.45594000000E+02  0.51100000000E-03 0.  1.
         11   -1    0    0    0    0 -0.00000000000E+00 -0.00000000000E+00 -0.45593999997E+02  0.45594000000E+02  0.51100000000E-03 0. -1.
    9900012    2    1    2    0    0  0.40660917216E+02 -0.14383329874E+02  0.48408530919E+01  0.47787260078E+02  0.19999950001E+02 0.  0.
         12    1    1    2    0    0 -0.40660917216E+02  0.14383329874E+02 -0.48408530919E+01  0.43400739922E+02  0.00000000000E+00 0. -1.
         11    1    3    3    0    0  0.21564051767E+02 -0.48495161079E+01  0.29119967712E+00  0.22104545519E+02  0.51100000000E-03 0. -1.
        -11    1    3    3    0    0  0.18159622780E+02 -0.84566923899E+01 -0.89679335794E+00  0.20052226417E+02  0.51100000000E-03 0.  1.
         12    1    3    3    0    0  0.93724266953E+00 -0.10771213764E+01  0.54464467727E+01  0.56304881431E+01  0.00000000000E+00 0. -1.
</event>
<event>
 7    1  0.2339217E-009  0.4778727E+02  0.7816164E-02  0.1312668E+00
        -11   -1    0    0    0    0  0.00000000000E+00  0.00000000000E+00  0.45593999997E+02  0.45594000000E+02  0.51100000000E-03 0.  1.
         11   -1    0    0    0    0 -0.00000000000E+00 -0.00000000000E+00 -0.45593999997E+02  0.45594000000E+02  0.51100000000E-03 0. -1.
    9900012    2    1    2    0    0  0.23496136964E+02  0.29362712204E+02  0.21665321094E+02  0.47787268919E+02  0.19999990311E+02 0.  0.
         12    1    1    2    0    0 -0.23496136964E+02 -0.29362712204E+02 -0.21665321094E+02  0.43400731081E+02  0.00000000000E+00 0. -1.
         11    1    3    3    0    0 -0.40576913789E+00 -0.11495042688E+01  0.53530009254E+00  0.13313733914E+01  0.51100000000E-03 0. -1.
        -11    1    3    3    0    0  0.24063957600E+02  0.31190611016E+02  0.22169462289E+02  0.45204129561E+02  0.51100000000E-03 0.  1.
        -12    1    3    3    0    0 -0.16205149830E+00 -0.67839454313E+00 -0.10394412877E+01  0.12517659665E+01  0.00000000000E+00 0.  1.
</event>
<event>
 7    1  0.2339217E-009  0.4778728E+02  0.7816164E-02  0.1312668E+00
        -11   -1    0    0    0    0  0.00000000000E+00  0.00000000000E+00  0.45593999997E+02  0.45594000000E+02  0.51100000000E-03 0. -1.
         11   -1    0    0    0    0 -0.00000000000E+00 -0.00000000000E+00 -0.45593999997E+02  0.45594000000E+02  0.51100000000E-03 0.  1.
    9900012    2    1    2    0    0 -0.24647477970E+02 -0.35334470382E+02 -0.52535488330E+01  0.47787277162E+02  0.20000027894E+02 0.  0.
         12    1    1    2    0    0  0.24647477970E+02  0.35334470382E+02  0.52535488330E+01  0.43400722838E+02  0.00000000000E+00 0. -1.
         11    1    3    3    0    0  0.39818598757E-01 -0.11835279597E+02 -0.43758259248E+01  0.12618370792E+02  0.51100000000E-03 0. -1.
        -11    1    3    3    0    0 -0.87089372339E+01 -0.62057734346E+01  0.34353701741E+01  0.11232051467E+02  0.51100000000E-03 0.  1.
        -12    1    3    3    0    0 -0.15978359335E+02 -0.17293417350E+02 -0.43130930823E+01  0.23936854903E+02  0.00000000000E+00 0.  1.
</event>
<event>
 7    1  0.2339217E-009  0.4778727E+02  0.7816164E-02  0.1312668E+00
        -11   -1    0    0    0    0  0.00000000000E+00  0.00000000000E+00  0.45593999997E+02  0.45594000000E+02  0.51100000000E-03 0.  1.
         11   -1    0    0    0    0 -0.00000000000E+00 -0.00000000000E+00 -0.45593999997E+02  0.45594000000E+02  0.51100000000E-03 0. -1.
    9900012    2    1    2    0    0  0.38503496743E+02 -0.10861807666E+02 -0.16826327369E+02  0.47787269362E+02  0.19999992329E+02 0.  0.
         12    1    1    2    0    0 -0.38503496743E+02  0.10861807666E+02  0.16826327369E+02  0.43400730638E+02  0.00000000000E+00 0. -1.
         11    1    3    3    0    0  0.10108209015E+02 -0.40942468073E+01 -0.48563034431E+01  0.11938275831E+02  0.51100000000E-03 0. -1.
        -11    1    3    3    0    0  0.29862034707E+02 -0.68775435662E+01 -0.13709759730E+02  0.33570809261E+02  0.51100000000E-03 0.  1.
         12    1    3    3    0    0 -0.14667469794E+01  0.10998270791E+00  0.17397358046E+01  0.22781842699E+01  0.00000000000E+00 0. -1.
</event>
<event>
 7    1  0.2339217E-009  0.4778727E+02  0.7816164E-02  0.1312668E+00
        -11   -1    0    0    0    0  0.00000000000E+00  0.00000000000E+00  0.45593999997E+02  0.45594000000E+02  0.51100000000E-03 0.  1.
         11   -1    0    0    0    0 -0.00000000000E+00 -0.00000000000E+00 -0.45593999997E+02  0.45594000000E+02  0.51100000000E-03 0. -1.
    9900012    2    1    2    0    0 -0.16738398088E+02  0.98098374222E+01  0.38822884996E+02  0.47787270971E+02  0.19999999666E+02 0.  0.
         12    1    1    2    0    0  0.16738398088E+02 -0.98098374222E+01 -0.38822884996E+02  0.43400729029E+02  0.00000000000E+00 0. -1.
         11    1    3    3    0    0 -0.53419319329E+01 -0.36821095327E+01  0.50234180996E+01  0.82054187614E+01  0.51100000000E-03 0. -1.
        -11    1    3    3    0    0 -0.53208483460E+01  0.17575928685E+01  0.18677397198E+02  0.19499890415E+02  0.51100000000E-03 0.  1.
         12    1    3    3    0    0 -0.60756178088E+01  0.11734354086E+02  0.15122069698E+02  0.20081961795E+02  0.00000000000E+00 0. -1.
</event>
<event>
 7    1  0.2339217E-009  0.4778727E+02  0.7816164E-02  0.1312668E+00
        -11   -1    0    0    0    0  0.00000000000E+00  0.00000000000E+00  0.45593999997E+02  0.45594000000E+02  0.51100000000E-03 0. -1.
         11   -1    0    0    0    0 -0.00000000000E+00 -0.00000000000E+00 -0.45593999997E+02  0.45594000000E+02  0.51100000000E-03 0.  1.
    9900012    2    1    2    0    0 -0.34053444884E+02  0.19270440359E+02 -0.18778611481E+02  0.47787271559E+02  0.20000002345E+02 0.  0.
         12    1    1    2    0    0  0.34053444884E+02 -0.19270440359E+02  0.18778611481E+02  0.43400728441E+02  0.00000000000E+00 0. -1.
         11    1    3    3    0    0 -0.33521258379E+01 -0.20670925416E+01  0.14971504870E+00  0.39410701675E+01  0.51100000000E-03 0. -1.
        -11    1    3    3    0    0 -0.23688517361E+02  0.90336342019E+01 -0.11250167659E+02  0.27736594497E+02  0.51100000000E-03 0.  1.
         12    1    3    3    0    0 -0.70128016848E+01  0.12303898699E+02 -0.76781588700E+01  0.16109606894E+02  0.00000000000E+00 0. -1.
</event>
<event>
 7    1  0.2339217E-009  0.4778727E+02  0.7816164E-02  0.1312668E+00
        -11   -1    0    0    0    0  0.00000000000E+00  0.00000000000E+00  0.45593999997E+02  0.45594000000E+02  0.51100000000E-03 0.  1.
         11   -1    0    0    0    0 -0.00000000000E+00 -0.00000000000E+00 -0.45593999997E+02  0.45594000000E+02  0.51100000000E-03 0. -1.
    9900012    2    1    2    0    0  0.76216916018E+01 -0.36247589918E+02  0.22619579639E+02  0.47787270273E+02  0.19999996483E+02 0.  0.
         12    1    1    2    0    0 -0.76216916018E+01  0.36247589918E+02 -0.22619579639E+02  0.43400729727E+02  0.00000000000E+00 0. -1.
         11    1    3    3    0    0 -0.42502609788E+01 -0.62132040455E+01  0.13109193827E+01  0.76411473477E+01  0.51100000000E-03 0. -1.
        -11    1    3    3    0    0  0.79685222670E+01 -0.28316558110E+02  0.16535701992E+02  0.33745433038E+02  0.51100000000E-03 0.  1.
         12    1    3    3    0    0  0.39034303136E+01 -0.17178277631E+01  0.47729582645E+01  0.64006898872E+01  0.00000000000E+00 0. -1.
</event>
<event>
 7    1  0.2339217E-009  0.4778726E+02  0.7816164E-02  0.1312668E+00
        -11   -1    0    0    0    0  0.00000000000E+00  0.00000000000E+00  0.45593999997E+02  0.45594000000E+02  0.51100000000E-03 0.  1.
         11   -1    0    0    0    0 -0.00000000000E+00 -0.00000000000E+00 -0.45593999997E+02  0.45594000000E+02  0.51100000000E-03 0. -1.
    9900012    2    1    2    0    0  0.28925077315E+02 -0.27701020529E+02  0.16721781878E+02  0.47787255476E+02  0.19999929018E+02 0.  0.
         12    1    1    2    0    0 -0.28925077315E+02  0.27701020529E+02 -0.16721781878E+02  0.43400744524E+02  0.00000000000E+00 0. -1.
         11    1    3    3    0    0 -0.18240959296E+01 -0.23697978948E+01  0.15607802376E+01  0.33733222843E+01  0.51100000000E-03 0. -1.
        -11    1    3    3    0    0  0.14796111863E+02 -0.18849783550E+02  0.52001603113E+01  0.24521030436E+02  0.51100000000E-03 0.  1.
        -12    1    3    3    0    0  0.15953061382E+02 -0.64814390847E+01  0.99608413295E+01  0.19892902756E+02  0.00000000000E+00 0.  1.
</event>
<event>
 7    1  0.2339217E-009  0.4778727E+02  0.7816164E-02  0.1312668E+00
        -11   -1    0    0    0    0  0.00000000000E+00  0.00000000000E+00  0.45593999997E+02  0.45594000000E+02  0.51100000000E-03 0.  1.
         11   -1    0    0    0    0 -0.00000000000E+00 -0.00000000000E+00 -0.45593999997E+02  0.45594000000E+02  0.51100000000E-03 0. -1.
    9900012    2    1    2    0    0 -0.11089090468E+02  0.24696103855E+02  0.33922820705E+02  0.47787271462E+02  0.20000001904E+02 0.  0.
         12    1    1    2    0    0  0.11089090468E+02 -0.24696103855E+02 -0.33922820705E+02  0.43400728538E+02  0.00000000000E+00 0. -1.
         11    1    3    3    0    0 -0.30018836032E+01  0.30120280463E+00  0.55390047005E+01  0.63073450540E+01  0.51100000000E-03 0. -1.
        -11    1    3    3    0    0 -0.10540335953E+02  0.13441951452E+02  0.23936933185E+02  0.29406827632E+02  0.51100000000E-03 0.  1.
         12    1    3    3    0    0  0.24531290880E+01  0.10952949599E+02  0.44468828197E+01  0.12073098776E+02  0.00000000000E+00 0. -1.
</event>
<event>
 7    1  0.2339217E-009  0.4778727E+02  0.7816164E-02  0.1312668E+00
        -11   -1    0    0    0    0  0.00000000000E+00  0.00000000000E+00  0.45593999997E+02  0.45594000000E+02  0.51100000000E-03 0. -1.
         11   -1    0    0    0    0 -0.00000000000E+00 -0.00000000000E+00 -0.45593999997E+02  0.45594000000E+02  0.51100000000E-03 0.  1.
    9900012    2    1    2    0    0 -0.29153643696E+02  0.31090623354E+02 -0.81891181584E+01  0.47787268929E+02  0.19999990357E+02 0.  0.
         12    1    1    2    0    0  0.29153643696E+02 -0.31090623354E+02  0.81891181584E+01  0.43400731071E+02  0.00000000000E+00 0. -1.
         11    1    3    3    0    0 -0.18391923392E+01 -0.82145543763E+00  0.59916579567E+00  0.21015273990E+01  0.51100000000E-03 0. -1.
        -11    1    3    3    0    0 -0.45376680581E+01  0.14972589754E+02 -0.72919471308E+01  0.17260978204E+02  0.51100000000E-03 0.  1.
        -12    1    3    3    0    0 -0.22776783298E+02  0.16939489037E+02 -0.14963368233E+01  0.28424763326E+02  0.00000000000E+00 0.  1.
</event>
<event>
 7    1  0.2339217E-009  0.4778727E+02  0.7816164E-02  0.1312668E+00
        -11   -1    0    0    0    0  0.00000000000E+00  0.00000000000E+00  0.45593999997E+02  0.45594000000E+02  0.51100000000E-03 0.  1.
         11   -1    0    0    0    0 -0.00000000000E+00 -0.00000000000E+00 -0.45593999997E+02  0.45594000000E+02  0.51100000000E-03 0. -1.
    9900012    2    1    2    0    0 -0.17975289871E+02 -0.24613279342E+02 -0.30898201054E+02  0.47787269657E+02  0.19999993675E+02 0.  0.
         12    1    1    2    0    0  0.17975289871E+02  0.24613279342E+02  0.30898201054E+02  0.43400730343E+02  0.00000000000E+00 0. -1.
         11    1    3    3    0    0  0.18894818457E+01 -0.17709564881E-01 -0.28634654096E+00  0.19111383719E+01  0.51100000000E-03 0. -1.
        -11    1    3    3    0    0 -0.12011147580E+02 -0.88112361220E+01 -0.71365346110E+01  0.16517738184E+02  0.51100000000E-03 0.  1.
         12    1    3    3    0    0 -0.78536241368E+01 -0.15784333656E+02 -0.23475319902E+02  0.29358393102E+02  0.00000000000E+00 0. -1.
</event>
<event>
 7    1  0.2339217E-009  0.4778727E+02  0.7816164E-02  0.1312668E+00
        -11   -1    0    0    0    0  0.00000000000E+00  0.00000000000E+00  0.45593999997E+02  0.45594000000E+02  0.51100000000E-03 0.  1.
         11   -1    0    0    0    0 -0.00000000000E+00 -0.00000000000E+00 -0.45593999997E+02  0.45594000000E+02  0.51100000000E-03 0. -1.
    9900012    2    1    2    0    0  0.71399964299E+01  0.42057037014E+02 -0.79906028093E+01  0.47787266772E+02  0.19999980522E+02 0.  0.
         12    1    1    2    0    0 -0.71399964299E+01 -0.42057037014E+02  0.79906028093E+01  0.43400733228E+02  0.00000000000E+00 0. -1.
         11    1    3    3    0    0  0.50862901934E+01  0.86285104237E+01  0.35685309488E+01  0.10632777316E+02  0.51100000000E-03 0. -1.
        -11    1    3    3    0    0  0.65744937028E+01  0.15884883055E+02 -0.58368509475E+01  0.18155503473E+02  0.51100000000E-03 0.  1.
         12    1    3    3    0    0 -0.45207874663E+01  0.17543643536E+02 -0.57222828106E+01  0.18998985983E+02  0.00000000000E+00 0. -1.
</event>
<event>
 7    1  0.2339217E-009  0.4778727E+02  0.7816164E-02  0.1312668E+00
        -11   -1    0    0    0    0  0.00000000000E+00  0.00000000000E+00  0.45593999997E+02  0.45594000000E+02  0.51100000000E-03 0. -1.
         11   -1    0    0    0    0 -0.00000000000E+00 -0.00000000000E+00 -0.45593999997E+02  0.45594000000E+02  0.51100000000E-03 0.  1.
    9900012    2    1    2    0    0  0.86903558172E+01  0.23693580636E+02 -0.35308854446E+02  0.47787271321E+02  0.20000001260E+02 0.  0.
         12    1    1    2    0    0 -0.86903558172E+01 -0.23693580636E+02  0.35308854446E+02  0.43400728679E+02  0.00000000000E+00 0. -1.
         11    1    3    3    0    0  0.28339670443E+01  0.10343266201E+02 -0.44515512306E+01  0.11611667991E+02  0.51100000000E-03 0. -1.
        -11    1    3    3    0    0 -0.34005025567E+01  0.17576431089E+01 -0.43101086994E+01  0.57645263637E+01  0.51100000000E-03 0.  1.
        -12    1    3    3    0    0  0.92568913296E+01  0.11592671327E+02 -0.26547194516E+02  0.30411076966E+02  0.00000000000E+00 0.  1.
</event>
<event>
 7    1  0.2339217E-009  0.4778728E+02  0.7816164E-02  0.1312668E+00
        -11   -1    0    0    0    0  0.00000000000E+00  0.00000000000E+00  0.45593999997E+02  0.45594000000E+02  0.51100000000E-03 0.  1.
         11   -1    0    0    0    0 -0.00000000000E+00 -0.00000000000E+00 -0.45593999997E+02  0.45594000000E+02  0.51100000000E-03 0. -1.
    9900012    2    1    2    0    0 -0.19757325122E+02 -0.23038150364E+02  0.31024410770E+02  0.47787281898E+02  0.20000049484E+02 0.  0.
         12    1    1    2    0    0  0.19757325122E+02  0.23038150364E+02 -0.31024410770E+02  0.43400718102E+02  0.00000000000E+00 0. -1.
         11    1    3    3    0    0 -0.73443395778E+01 -0.15551506463E+02  0.92602310410E+01  0.19533063157E+02  0.51100000000E-03 0.  1.
        -11    1    3    3    0    0 -0.27675813977E+01 -0.73747364055E+01  0.13113259612E+02  0.15297183458E+02  0.51100000000E-03 0. -1.
         12    1    3    3    0    0 -0.96454041468E+01 -0.11190749566E+00  0.86509201172E+01  0.12957035283E+02  0.00000000000E+00 0. -1.
</event>
<event>
 7    1  0.2339217E-009  0.4778726E+02  0.7816164E-02  0.1312668E+00
        -11   -1    0    0    0    0  0.00000000000E+00  0.00000000000E+00  0.45593999997E+02  0.45594000000E+02  0.51100000000E-03 0. -1.
         11   -1    0    0    0    0 -0.00000000000E+00 -0.00000000000E+00 -0.45593999997E+02  0.45594000000E+02  0.51100000000E-03 0.  1.
    9900012    2    1    2    0    0 -0.32532944030E+02  0.28589285669E+02 -0.28079440571E+01  0.47787259774E+02  0.19999948613E+02 0.  0.
         12    1    1    2    0    0  0.32532944030E+02 -0.28589285669E+02  0.28079440571E+01  0.43400740226E+02  0.00000000000E+00 0. -1.
         11    1    3    3    0    0 -0.52499946569E+01  0.78528141542E+01  0.28798415181E+01  0.98753542452E+01  0.51100000000E-03 0.  1.
        -11    1    3    3    0    0 -0.27055254084E+02  0.22063050627E+02 -0.31668602123E+01  0.35054157819E+02  0.51100000000E-03 0. -1.
         12    1    3    3    0    0 -0.22769528977E+00 -0.13265791126E+01 -0.25209253630E+01  0.28577477098E+01  0.00000000000E+00 0. -1.
</event>
<event>
 7    1  0.2339217E-009  0.4778727E+02  0.7816164E-02  0.1312668E+00
        -11   -1    0    0    0    0  0.00000000000E+00  0.00000000000E+00  0.45593999997E+02  0.45594000000E+02  0.51100000000E-03 0.  1.
         11   -1    0    0    0    0 -0.00000000000E+00 -0.00000000000E+00 -0.45593999997E+02  0.45594000000E+02  0.51100000000E-03 0. -1.
    9900012    2    1    2    0    0  0.12998019350E+02 -0.40577462446E+02  0.82549494060E+01  0.47787272411E+02  0.20000006230E+02 0.  0.
         12    1    1    2    0    0 -0.12998019350E+02  0.40577462446E+02 -0.82549494060E+01  0.43400727589E+02  0.00000000000E+00 0. -1.
         11    1    3    3    0    0  0.13865694005E+01 -0.43862189943E+01  0.29910796422E+01  0.54870802305E+01  0.51100000000E-03 0. -1.
        -11    1    3    3    0    0  0.80610062731E+01 -0.30474797384E+02  0.11072189486E+02  0.33410873649E+02  0.51100000000E-03 0.  1.
         12    1    3    3    0    0  0.35504436769E+01 -0.57164460675E+01 -0.58083197226E+01  0.88893185310E+01  0.00000000000E+00 0. -1.
</event>
<event>
 7    1  0.2339217E-009  0.4778727E+02  0.7816164E-02  0.1312668E+00
        -11   -1    0    0    0    0  0.00000000000E+00  0.00000000000E+00  0.45593999997E+02  0.45594000000E+02  0.51100000000E-03 0. -1.
         11   -1    0    0    0    0 -0.00000000000E+00 -0.00000000000E+00 -0.45593999997E+02  0.45594000000E+02  0.51100000000E-03 0.  1.
    9900012    2    1    2    0    0  0.44392266438E+01  0.39376726837E+02 -0.17702825385E+02  0.47787269866E+02  0.19999994626E+02 0.  0.
         12    1    1    2    0    0 -0.44392266438E+01 -0.39376726837E+02  0.17702825385E+02  0.43400730134E+02  0.00000000000E+00 0. -1.
         11    1    3    3    0    0  0.44244871761E+01  0.44771841348E+01 -0.89122709020E+01  0.10910996171E+02  0.51100000000E-03 0. -1.
        -11    1    3    3    0    0  0.30985390651E-01  0.11100280390E+02 -0.67457681312E+01  0.12989325340E+02  0.51100000000E-03 0.  1.
        -12    1    3    3    0    0 -0.16245922990E-01  0.23799262312E+02 -0.20447863516E+01  0.23886948355E+02  0.00000000000E+00 0.  1.
</event>
<event>
 7    1  0.2339217E-009  0.4778725E+02  0.7816164E-02  0.1312668E+00
        -11   -1    0    0    0    0  0.00000000000E+00  0.00000000000E+00  0.45593999997E+02  0.45594000000E+02  0.51100000000E-03 0. -1.
         11   -1    0    0    0    0 -0.00000000000E+00 -0.00000000000E+00 -0.45593999997E+02  0.45594000000E+02  0.51100000000E-03 0.  1.
    9900012    2    1    2    0    0  0.11207627624E+02 -0.39770877136E+02 -0.13277492381E+02  0.47787246676E+02  0.19999888895E+02 0.  0.
         12    1    1    2    0    0 -0.11207627624E+02  0.39770877136E+02  0.13277492381E+02  0.43400753324E+02  0.00000000000E+00 0. -1.
         11    1    3    3    0    0  0.25671293503E+01  0.13176701017E+01 -0.77200127750E-01  0.28865840918E+01  0.51100000000E-03 0. -1.
        -11    1    3    3    0    0  0.33814527036E+01 -0.65341562996E+01 -0.52976213905E+01  0.90661024477E+01  0.51100000000E-03 0.  1.
        -12    1    3    3    0    0  0.52590455700E+01 -0.34554390938E+02 -0.79026708626E+01  0.35834560137E+02  0.00000000000E+00 0.  1.
</event>
<event>
 7    1  0.2339217E-009  0.4778728E+02  0.7816164E-02  0.1312668E+00
        -11   -1    0    0    0    0  0.00000000000E+00  0.00000000000E+00  0.45593999997E+02  0.45594000000E+02  0.51100000000E-03 0.  1.
         11   -1    0    0    0    0 -0.00000000000E+00 -0.00000000000E+00 -0.45593999997E+02  0.45594000000E+02  0.51100000000E-03 0. -1.
    9900012    2    1    2    0    0 -0.27455278534E+02 -0.13663573720E+02  0.30710540075E+02  0.47787276067E+02  0.20000022899E+02 0.  0.
         12    1    1    2    0    0  0.27455278534E+02  0.13663573720E+02 -0.30710540075E+02  0.43400723933E+02  0.00000000000E+00 0. -1.
         11    1    3    3    0    0  0.24782998893E+01 -0.15585514452E+01  0.88651142371E-02  0.29276495351E+01  0.51100000000E-03 0. -1.
        -11    1    3    3    0    0 -0.43032334244E+01 -0.34208776244E+01  0.36690718626E+01  0.66092594305E+01  0.51100000000E-03 0.  1.
        -12    1    3    3    0    0 -0.25630344999E+02 -0.86841446505E+01  0.27032603098E+02  0.38250367101E+02  0.00000000000E+00 0.  1.
</event>
<event>
 7    1  0.2339217E-009  0.4778730E+02  0.7816164E-02  0.1312668E+00
        -11   -1    0    0    0    0  0.00000000000E+00  0.00000000000E+00  0.45593999997E+02  0.45594000000E+02  0.51100000000E-03 0.  1.
         11   -1    0    0    0    0 -0.00000000000E+00 -0.00000000000E+00 -0.45593999997E+02  0.45594000000E+02  0.51100000000E-03 0. -1.
    9900012    2    1    2    0    0 -0.40933667065E+01 -0.29148960476E+02  0.31893625643E+02  0.47787298341E+02  0.20000124457E+02 0.  0.
         12    1    1    2    0    0  0.40933667065E+01  0.29148960476E+02 -0.31893625643E+02  0.43400701659E+02  0.00000000000E+00 0. -1.
         11    1    3    3    0    0 -0.10301915101E+02 -0.17004205287E+02  0.15364366326E+02  0.25126404539E+02  0.51100000000E-03 0. -1.
        -11    1    3    3    0    0  0.33885240809E+01 -0.91061109615E+01  0.61871780383E+01  0.11518876882E+02  0.51100000000E-03 0.  1.
         12    1    3    3    0    0  0.28200243140E+01 -0.30386442273E+01  0.10342081279E+02  0.11142016920E+02  0.00000000000E+00 0. -1.
</event>
<event>
 7    1  0.2339217E-009  0.4778727E+02  0.7816164E-02  0.1312668E+00
        -11   -1    0    0    0    0  0.00000000000E+00  0.00000000000E+00  0.45593999997E+02  0.45594000000E+02  0.51100000000E-03 0. -1.
         11   -1    0    0    0    0 -0.00000000000E+00 -0.00000000000E+00 -0.45593999997E+02  0.45594000000E+02  0.51100000000E-03 0.  1.
    9900012    2    1    2    0    0  0.29834693582E+02  0.22916076612E+02 -0.21641808048E+02  0.47787270006E+02  0.19999995266E+02 0.  0.
         12    1    1    2    0    0 -0.29834693582E+02 -0.22916076612E+02  0.21641808048E+02  0.43400729994E+02  0.00000000000E+00 0. -1.
         11    1    3    3    0    0  0.84362854912E+00 -0.10961173901E+01 -0.42593193086E+01  0.44782790997E+01  0.51100000000E-03 0.  1.
        -11    1    3    3    0    0  0.90133179483E+01  0.10870404472E+02 -0.12594626180E+02  0.18921686043E+02  0.51100000000E-03 0. -1.
        -12    1    3    3    0    0  0.19977747085E+02  0.13141789530E+02 -0.47878625588E+01  0.24387304863E+02  0.00000000000E+00 0.  1.
</event>
<event>
 7    1  0.2339217E-009  0.4778727E+02  0.7816164E-02  0.1312668E+00
        -11   -1    0    0    0    0  0.00000000000E+00  0.00000000000E+00  0.45593999997E+02  0.45594000000E+02  0.51100000000E-03 0.  1.
         11   -1    0    0    0    0 -0.00000000000E+00 -0.00000000000E+00 -0.45593999997E+02  0.45594000000E+02  0.51100000000E-03 0. -1.
    9900012    2    1    2    0    0 -0.29916414205E+01 -0.11147532027E+02  0.41837851193E+02  0.47787272113E+02  0.20000004872E+02 0.  0.
         12    1    1    2    0    0  0.29916414205E+01  0.11147532027E+02 -0.41837851193E+02  0.43400727887E+02  0.00000000000E+00 0. -1.
         11    1    3    3    0    0  0.20579085347E+01 -0.47741888462E+01  0.49101034273E+01  0.71510126978E+01  0.51100000000E-03 0. -1.
        -11    1    3    3    0    0  0.49943846395E+01 -0.37990670938E+01  0.17881930409E+02  0.18950995333E+02  0.51100000000E-03 0.  1.
        -12    1    3    3    0    0 -0.10043934595E+02 -0.25742760871E+01  0.19045817357E+02  0.21685264082E+02  0.00000000000E+00 0.  1.
</event>
<event>
 7    1  0.2339217E-009  0.4778727E+02  0.7816164E-02  0.1312668E+00
        -11   -1    0    0    0    0  0.00000000000E+00  0.00000000000E+00  0.45593999997E+02  0.45594000000E+02  0.51100000000E-03 0. -1.
         11   -1    0    0    0    0 -0.00000000000E+00 -0.00000000000E+00 -0.45593999997E+02  0.45594000000E+02  0.51100000000E-03 0.  1.
    9900012    2    1    2    0    0  0.36969991674E+02  0.28225901101E+01 -0.22558274462E+02  0.47787273669E+02  0.20000011967E+02 0.  0.
         12    1    1    2    0    0 -0.36969991674E+02 -0.28225901101E+01  0.22558274462E+02  0.43400726331E+02  0.00000000000E+00 0. -1.
         11    1    3    3    0    0  0.17277664440E+02 -0.16063986527E+01 -0.14340179679E+02  0.22510863125E+02  0.51100000000E-03 0. -1.
        -11    1    3    3    0    0  0.74356804324E+01  0.32450130974E+01 -0.99535127703E+01  0.12841022943E+02  0.51100000000E-03 0.  1.
         12    1    3    3    0    0  0.12256646802E+02  0.11839756655E+01  0.17354179869E+01  0.12435387601E+02  0.00000000000E+00 0. -1.
</event>
<event>
 7    1  0.2339217E-009  0.4778727E+02  0.7816164E-02  0.1312668E+00
        -11   -1    0    0    0    0  0.00000000000E+00  0.00000000000E+00  0.45593999997E+02  0.45594000000E+02  0.51100000000E-03 0.  1.
         11   -1    0    0    0    0 -0.00000000000E+00 -0.00000000000E+00 -0.45593999997E+02  0.45594000000E+02  0.51100000000E-03 0. -1.
    9900012    2    1    2    0    0 -0.33855967454E+02  0.16478381342E+02  0.21583789384E+02  0.47787267886E+02  0.19999985598E+02 0.  0.
         12    1    1    2    0    0  0.33855967454E+02 -0.16478381342E+02 -0.21583789384E+02  0.43400732114E+02  0.00000000000E+00 0. -1.
         11    1    3    3    0    0 -0.35501425840E+01 -0.22838255546E+00  0.16137285573E-01  0.35575176221E+01  0.51100000000E-03 0. -1.
        -11    1    3    3    0    0 -0.18622299756E+01  0.89364453985E+01  0.49955627274E+01  0.10405940806E+02  0.51100000000E-03 0.  1.
        -12    1    3    3    0    0 -0.28443594894E+02  0.77703184990E+01  0.16572089371E+02  0.33823809457E+02  0.00000000000E+00 0.  1.
</event>
<event>
 7    1  0.2339217E-009  0.4778727E+02  0.7816164E-02  0.1312668E+00
        -11   -1    0    0    0    0  0.00000000000E+00  0.00000000000E+00  0.45593999997E+02  0.45594000000E+02  0.51100000000E-03 0.  1.
         11   -1    0    0    0    0 -0.00000000000E+00 -0.00000000000E+00 -0.45593999997E+02  0.45594000000E+02  0.51100000000E-03 0. -1.
    9900012    2    1    2    0    0  0.39617594996E+01 -0.41137687353E+02  0.13252097718E+02  0.47787274740E+02  0.20000016852E+02 0.  0.
         12    1    1    2    0    0 -0.39617594996E+01  0.41137687353E+02 -0.13252097718E+02  0.43400725260E+02  0.00000000000E+00 0. -1.
         11    1    3    3    0    0  0.36527576965E+01 -0.64455840093E+01  0.21115438478E+01  0.77036880578E+01  0.51100000000E-03 0. -1.
        -11    1    3    3    0    0  0.26033077684E+01 -0.27461974907E+02  0.15183809397E+02  0.31487860283E+02  0.51100000000E-03 0.  1.
         12    1    3    3    0    0 -0.22943059654E+01 -0.72301284373E+01 -0.40432555269E+01  0.85957263997E+01  0.00000000000E+00 0. -1.
</event>
<event>
 7    1  0.2637282E-009  0.4778727E+02  0.7816164E-02  0.1312668E+00
        -11   -1    0    0    0    0  0.00000000000E+00  0.00000000000E+00  0.45593999997E+02  0.45594000000E+02  0.51100000000E-03 0. -1.
         11   -1    0    0    0    0 -0.00000000000E+00 -0.00000000000E+00 -0.45593999997E+02  0.45594000000E+02  0.51100000000E-03 0.  1.
    9900012    2    1    2    0    0  0.35291975825E+02  0.32195398621E+01 -0.25054629975E+02  0.47787268696E+02  0.19999989293E+02 0.  0.
         12    1    1    2    0    0 -0.35291975825E+02 -0.32195398621E+01  0.25054629975E+02  0.43400731304E+02  0.00000000000E+00 0. -1.
         11    1    3    3    0    0  0.81426782721E+01 -0.17241374964E+01  0.55280002380E+00  0.83415494769E+01  0.51100000000E-03 0. -1.
        -11    1    3    3    0    0  0.76641465571E+00  0.31166810231E+01 -0.48980969283E+01  0.58559752223E+01  0.51100000000E-03 0.  1.
        -12    1    3    3    0    0  0.26382882897E+02  0.18269963354E+01 -0.20709333070E+02  0.33589743997E+02  0.00000000000E+00 0.  1.
</event>
<event>
 7    1  0.2339217E-009  0.4778724E+02  0.7816164E-02  0.1312668E+00
        -11   -1    0    0    0    0  0.00000000000E+00  0.00000000000E+00  0.45593999997E+02  0.45594000000E+02  0.51100000000E-03 0. -1.
         11   -1    0    0    0    0 -0.00000000000E+00 -0.00000000000E+00 -0.45593999997E+02  0.45594000000E+02  0.51100000000E-03 0.  1.
    9900012    2    1    2    0    0 -0.13729687353E+02 -0.41164560557E+02 -0.77471787663E+00  0.47787244840E+02  0.19999880525E+02 0.  0.
         12    1    1    2    0    0  0.13729687353E+02  0.41164560557E+02  0.77471787663E+00  0.43400755160E+02  0.00000000000E+00 0. -1.
         11    1    3    3    0    0  0.24152336799E+01 -0.10973423640E+02  0.18074710844E+01  0.11380524245E+02  0.51100000000E-03 0. -1.
        -11    1    3    3    0    0  0.18786775454E+01 -0.20688081209E+01 -0.99612084482E+00  0.29667580554E+01  0.51100000000E-03 0.  1.
        -12    1    3    3    0    0 -0.18023598578E+02 -0.28122328796E+02 -0.15860681163E+01  0.33439962540E+02  0.00000000000E+00 0.  1.
</event>
<event>
 7    1  0.2339217E-009  0.4778728E+02  0.7816164E-02  0.1312668E+00
        -11   -1    0    0    0    0  0.00000000000E+00  0.00000000000E+00  0.45593999997E+02  0.45594000000E+02  0.51100000000E-03 0. -1.
         11   -1    0    0    0    0 -0.00000000000E+00 -0.00000000000E+00 -0.45593999997E+02  0.45594000000E+02  0.51100000000E-03 0.  1.
    9900012    2    1    2    0    0 -0.31596359158E+02 -0.23959735408E+02 -0.17641543382E+02  0.47787275516E+02  0.20000020388E+02 0.  0.
         12    1    1    2    0    0  0.31596359158E+02  0.23959735408E+02  0.17641543382E+02  0.43400724484E+02  0.00000000000E+00 0. -1.
         11    1    3    3    0    0 -0.13965517966E+02 -0.56085193195E+01 -0.51281680354E+01  0.15899348687E+02  0.51100000000E-03 0. -1.
        -11    1    3    3    0    0 -0.18120756926E+02 -0.18805793053E+02 -0.79828071276E+01  0.27308330118E+02  0.51100000000E-03 0.  1.
        -12    1    3    3    0    0  0.48991573446E+00  0.45457696508E+00 -0.45305682192E+01  0.45795967107E+01  0.00000000000E+00 0.  1.
</event>
<event>
 7    1  0.2339217E-009  0.4778727E+02  0.7816164E-02  0.1312668E+00
        -11   -1    0    0    0    0  0.00000000000E+00  0.00000000000E+00  0.45593999997E+02  0.45594000000E+02  0.51100000000E-03 0.  1.
         11   -1    0    0    0    0 -0.00000000000E+00 -0.00000000000E+00 -0.45593999997E+02  0.45594000000E+02  0.51100000000E-03 0. -1.
    9900012    2    1    2    0    0  0.20946837001E+02 -0.34240187322E+02  0.16506442952E+02  0.47787273427E+02  0.20000010862E+02 0.  0.
         12    1    1    2    0    0 -0.20946837001E+02  0.34240187322E+02 -0.16506442952E+02  0.43400726573E+02  0.00000000000E+00 0. -1.
         11    1    3    3    0    0 -0.12704732020E+01 -0.74243583551E+01  0.28893489468E+01  0.80674368135E+01  0.51100000000E-03 0. -1.
        -11    1    3    3    0    0  0.21244191718E+02 -0.28240634913E+02  0.11908428865E+02  0.37291551595E+02  0.51100000000E-03 0.  1.
         12    1    3    3    0    0  0.97311848482E+00  0.14248059463E+01  0.17086651402E+01  0.24282850186E+01  0.00000000000E+00 0. -1.
</event>
<event>
 7    1  0.2339217E-009  0.4778727E+02  0.7816164E-02  0.1312668E+00
        -11   -1    0    0    0    0  0.00000000000E+00  0.00000000000E+00  0.45593999997E+02  0.45594000000E+02  0.51100000000E-03 0.  1.
         11   -1    0    0    0    0 -0.00000000000E+00 -0.00000000000E+00 -0.45593999997E+02  0.45594000000E+02  0.51100000000E-03 0. -1.
    9900012    2    1    2    0    0 -0.41388083701E+01  0.40426589317E+02  0.15237592032E+02  0.47787273400E+02  0.20000010739E+02 0.  0.
         12    1    1    2    0    0  0.41388083701E+01 -0.40426589317E+02 -0.15237592032E+02  0.43400726600E+02  0.00000000000E+00 0. -1.
         11    1    3    3    0    0  0.50719035269E+01  0.17429207726E+02  0.73821089950E-01  0.18152325944E+02  0.51100000000E-03 0. -1.
        -11    1    3    3    0    0 -0.77550045346E+00  0.95419717214E+01  0.53610286945E+01  0.10972294847E+02  0.51100000000E-03 0.  1.
         12    1    3    3    0    0 -0.84352114435E+01  0.13455409869E+02  0.98027422474E+01  0.18662652609E+02  0.00000000000E+00 0. -1.
</event>
<event>
 7    1  0.2339217E-009  0.4778727E+02  0.7816164E-02  0.1312668E+00
        -11   -1    0    0    0    0  0.00000000000E+00  0.00000000000E+00  0.45593999997E+02  0.45594000000E+02  0.51100000000E-03 0.  1.
         11   -1    0    0    0    0 -0.00000000000E+00 -0.00000000000E+00 -0.45593999997E+02  0.45594000000E+02  0.51100000000E-03 0. -1.
    9900012    2    1    2    0    0 -0.42951858956E+02 -0.62011391373E+01 -0.55406434166E+00  0.47787270724E+02  0.19999998540E+02 0.  0.
         12    1    1    2    0    0  0.42951858956E+02  0.62011391373E+01  0.55406434166E+00  0.43400729276E+02  0.00000000000E+00 0. -1.
         11    1    3    3    0    0 -0.73402812795E+01  0.12552621920E+01 -0.29754001674E+01  0.80192530107E+01  0.51100000000E-03 0. -1.
        -11    1    3    3    0    0 -0.29365132467E+02  0.74779725568E+00  0.21440204437E+01  0.29452793237E+02  0.51100000000E-03 0.  1.
        -12    1    3    3    0    0 -0.62464452093E+01 -0.82041985851E+01  0.27731538207E+00  0.10315224476E+02  0.00000000000E+00 0.  1.
</event>
<event>
 7    1  0.2365912E-009  0.4778728E+02  0.7816164E-02  0.1312668E+00
        -11   -1    0    0    0    0  0.00000000000E+00  0.00000000000E+00  0.45593999997E+02  0.45594000000E+02  0.51100000000E-03 0.  1.
         11   -1    0    0    0    0 -0.00000000000E+00 -0.00000000000E+00 -0.45593999997E+02  0.45594000000E+02  0.51100000000E-03 0. -1.
    9900012    2    1    2    0    0 -0.14675189677E+02 -0.39755368100E+02 -0.93686891537E+01  0.47787276259E+02  0.20000023775E+02 0.  0.
         12    1    1    2    0    0  0.14675189677E+02  0.39755368100E+02  0.93686891537E+01  0.43400723741E+02  0.00000000000E+00 0. -1.
         11    1    3    3    0    0  0.17431068606E+01 -0.45655481079E+01 -0.57959818798E+00  0.49212381952E+01  0.51100000000E-03 0. -1.
        -11    1    3    3    0    0 -0.10964798938E+02 -0.23129229753E+02 -0.13346413422E+02  0.28867193079E+02  0.51100000000E-03 0.  1.
        -12    1    3    3    0    0 -0.54534975991E+01 -0.12060590238E+02  0.45573224560E+01  0.13998844985E+02  0.00000000000E+00 0.  1.
</event>
<event>
 7    1  0.2339217E-009  0.4778727E+02  0.7816164E-02  0.1312668E+00
        -11   -1    0    0    0    0  0.00000000000E+00  0.00000000000E+00  0.45593999997E+02  0.45594000000E+02  0.51100000000E-03 0.  1.
         11   -1    0    0    0    0 -0.00000000000E+00 -0.00000000000E+00 -0.45593999997E+02  0.45594000000E+02  0.51100000000E-03 0. -1.
    9900012    2    1    2    0    0 -0.15520819907E+01 -0.56368811395E+01  0.43005116719E+02  0.47787268999E+02  0.19999990672E+02 0.  0.
         12    1    1    2    0    0  0.15520819907E+01  0.56368811395E+01 -0.43005116719E+02  0.43400731001E+02  0.00000000000E+00 0. -1.
         11    1    3    3    0    0 -0.89307994223E+00 -0.47049181577E+00  0.16348706439E+02  0.16379839951E+02  0.51100000000E-03 0. -1.
        -11    1    3    3    0    0  0.45254769854E+01  0.85423319679E+00  0.21378498458E+02  0.21868924365E+02  0.51100000000E-03 0.  1.
         12    1    3    3    0    0 -0.51844790339E+01 -0.60206225206E+01  0.52779118221E+01  0.95385046831E+01  0.00000000000E+00 0. -1.
</event>
<event>
 7    1  0.2339217E-009  0.4778721E+02  0.7816164E-02  0.1312668E+00
        -11   -1    0    0    0    0  0.00000000000E+00  0.00000000000E+00  0.45593999997E+02  0.45594000000E+02  0.51100000000E-03 0.  1.
         11   -1    0    0    0    0 -0.00000000000E+00 -0.00000000000E+00 -0.45593999997E+02  0.45594000000E+02  0.51100000000E-03 0. -1.
    9900012    2    1    2    0    0 -0.12716912722E+02 -0.46923032673E+01  0.41229737591E+02  0.47787206909E+02  0.19999707578E+02 0.  0.
         12    1    1    2    0    0  0.12716912722E+02  0.46923032673E+01 -0.41229737591E+02  0.43400793091E+02  0.00000000000E+00 0. -1.
         11    1    3    3    0    0 -0.37123308141E+01  0.35456348901E+01  0.10202642927E+02  0.11421333101E+02  0.51100000000E-03 0.  1.
        -11    1    3    3    0    0 -0.73378162939E+01 -0.99721063743E+01  0.12186325722E+02  0.17372190085E+02  0.51100000000E-03 0. -1.
         12    1    3    3    0    0 -0.16667656138E+01  0.17341682169E+01  0.18840768942E+02  0.18993683723E+02  0.00000000000E+00 0. -1.
</event>
<event>
 7    1  0.2339217E-009  0.4778726E+02  0.7816164E-02  0.1312668E+00
        -11   -1    0    0    0    0  0.00000000000E+00  0.00000000000E+00  0.45593999997E+02  0.45594000000E+02  0.51100000000E-03 0. -1.
         11   -1    0    0    0    0 -0.00000000000E+00 -0.00000000000E+00 -0.45593999997E+02  0.45594000000E+02  0.51100000000E-03 0.  1.
    9900012    2    1    2    0    0 -0.25208550296E+02  0.19046544411E+02 -0.29755370344E+02  0.47787263527E+02  0.19999965726E+02 0.  0.
         12    1    1    2    0    0  0.25208550296E+02 -0.19046544411E+02  0.29755370344E+02  0.43400736473E+02  0.00000000000E+00 0. -1.
         11    1    3    3    0    0 -0.71295433224E+01  0.80882122222E+01 -0.18537164383E+01  0.10940101911E+02  0.51100000000E-03 0. -1.
        -11    1    3    3    0    0 -0.12496294632E+02  0.50687280733E+01 -0.88248467873E+01  0.16116057362E+02  0.51100000000E-03 0.  1.
        -12    1    3    3    0    0 -0.55827123411E+01  0.58896041160E+01 -0.19076807119E+02  0.20731104254E+02  0.00000000000E+00 0.  1.
</event>
<event>
 7    1  0.2339217E-009  0.4778727E+02  0.7816164E-02  0.1312668E+00
        -11   -1    0    0    0    0  0.00000000000E+00  0.00000000000E+00  0.45593999997E+02  0.45594000000E+02  0.51100000000E-03 0.  1.
         11   -1    0    0    0    0 -0.00000000000E+00 -0.00000000000E+00 -0.45593999997E+02  0.45594000000E+02  0.51100000000E-03 0. -1.
    9900012    2    1    2    0    0 -0.18928109011E+02 -0.38475794299E+02  0.67054985926E+01  0.47787265340E+02  0.19999973991E+02 0.  0.
         12    1    1    2    0    0  0.18928109011E+02  0.38475794299E+02 -0.67054985926E+01  0.43400734660E+02  0.00000000000E+00 0. -1.
         11    1    3    3    0    0 -0.96315628011E+01 -0.11209299638E+02  0.34265628065E+00  0.14782855406E+02  0.51100000000E-03 0. -1.
        -11    1    3    3    0    0 -0.12928755041E+02 -0.17286699665E+02  0.26252209793E+01  0.21745677218E+02  0.51100000000E-03 0.  1.
         12    1    3    3    0    0  0.36322088309E+01 -0.99797949964E+01  0.37376213326E+01  0.11258732717E+02  0.00000000000E+00 0. -1.
</event>
<event>
 7    1  0.2339217E-009  0.4778727E+02  0.7816164E-02  0.1312668E+00
        -11   -1    0    0    0    0  0.00000000000E+00  0.00000000000E+00  0.45593999997E+02  0.45594000000E+02  0.51100000000E-03 0. -1.
         11   -1    0    0    0    0 -0.00000000000E+00 -0.00000000000E+00 -0.45593999997E+02  0.45594000000E+02  0.51100000000E-03 0.  1.
    9900012    2    1    2    0    0 -0.18508024350E+02  0.39185691293E+02  0.23576095052E+01  0.47787266250E+02  0.19999978139E+02 0.  0.
         12    1    1    2    0    0  0.18508024350E+02 -0.39185691293E+02 -0.23576095052E+01  0.43400733750E+02  0.00000000000E+00 0. -1.
         11    1    3    3    0    0 -0.19602269252E+01  0.70991007710E+01  0.49506969073E+01  0.88740701758E+01  0.51100000000E-03 0. -1.
        -11    1    3    3    0    0 -0.24106496350E+00 -0.10786233465E+01 -0.15974261159E+01  0.19425012477E+01  0.51100000000E-03 0.  1.
        -12    1    3    3    0    0 -0.16306732461E+02  0.33165213869E+02 -0.99566128615E+00  0.36970694826E+02  0.00000000000E+00 0.  1.
</event>
<event>
 7    1  0.2339217E-009  0.4778725E+02  0.7816164E-02  0.1312668E+00
        -11   -1    0    0    0    0  0.00000000000E+00  0.00000000000E+00  0.45593999997E+02  0.45594000000E+02  0.51100000000E-03 0.  1.
         11   -1    0    0    0    0 -0.00000000000E+00 -0.00000000000E+00 -0.45593999997E+02  0.45594000000E+02  0.51100000000E-03 0. -1.
    9900012    2    1    2    0    0  0.40250684939E+02  0.14794957014E+02 -0.66795418277E+01  0.47787254959E+02  0.19999926660E+02 0.  0.
         12    1    1    2    0    0 -0.40250684939E+02 -0.14794957014E+02  0.66795418277E+01  0.43400745041E+02  0.00000000000E+00 0. -1.
         11    1    3    3    0    0  0.13284401570E+02 -0.25600409942E+01 -0.61408616470E+00  0.13542755888E+02  0.51100000000E-03 0. -1.
        -11    1    3    3    0    0  0.17088102572E+02  0.65730808239E+01  0.26390136263E+00  0.18310605812E+02  0.51100000000E-03 0.  1.
         12    1    3    3    0    0  0.98781807972E+01  0.10781917184E+02 -0.63293570256E+01  0.15933893259E+02  0.00000000000E+00 0. -1.
</event>
<event>
 7    1  0.2339217E-009  0.4778726E+02  0.7816164E-02  0.1312668E+00
        -11   -1    0    0    0    0  0.00000000000E+00  0.00000000000E+00  0.45593999997E+02  0.45594000000E+02  0.51100000000E-03 0. -1.
         11   -1    0    0    0    0 -0.00000000000E+00 -0.00000000000E+00 -0.45593999997E+02  0.45594000000E+02  0.51100000000E-03 0.  1.
    9900012    2    1    2    0    0 -0.18626558199E+02 -0.35305125977E+02 -0.17035943725E+02  0.47787263034E+02  0.19999963478E+02 0.  0.
         12    1    1    2    0    0  0.18626558199E+02  0.35305125977E+02  0.17035943725E+02  0.43400736966E+02  0.00000000000E+00 0. -1.
         11    1    3    3    0    0  0.97574969088E+00 -0.77389711655E+01 -0.25792821773E+01  0.82156228595E+01  0.51100000000E-03 0. -1.
        -11    1    3    3    0    0 -0.34626090755E+01 -0.42804807207E+01  0.30232538727E+01  0.62811018977E+01  0.51100000000E-03 0.  1.
        -12    1    3    3    0    0 -0.16139698814E+02 -0.23285674090E+02 -0.17479915421E+02  0.33290538277E+02  0.00000000000E+00 0.  1.
</event>
<event>
 7    1  0.2339217E-009  0.4778727E+02  0.7816164E-02  0.1312668E+00
        -11   -1    0    0    0    0  0.00000000000E+00  0.00000000000E+00  0.45593999997E+02  0.45594000000E+02  0.51100000000E-03 0. -1.
         11   -1    0    0    0    0 -0.00000000000E+00 -0.00000000000E+00 -0.45593999997E+02  0.45594000000E+02  0.51100000000E-03 0.  1.
    9900012    2    1    2    0    0  0.14755728115E+02  0.34187953033E+02  0.22295194671E+02  0.47787270165E+02  0.19999995991E+02 0.  0.
         12    1    1    2    0    0 -0.14755728115E+02 -0.34187953033E+02 -0.22295194671E+02  0.43400729835E+02  0.00000000000E+00 0. -1.
         11    1    3    3    0    0  0.33777712945E-01  0.99831060886E+01  0.13720093030E+01  0.10077001434E+02  0.51100000000E-03 0. -1.
        -11    1    3    3    0    0  0.46281126161E+01  0.19649768717E+02  0.11967662345E+02  0.23468229147E+02  0.51100000000E-03 0.  1.
         12    1    3    3    0    0  0.10093837786E+02  0.45550782273E+01  0.89555230228E+01  0.14242039584E+02  0.00000000000E+00 0. -1.
</event>
<event>
 7    1  0.2339217E-009  0.4778727E+02  0.7816164E-02  0.1312668E+00
        -11   -1    0    0    0    0  0.00000000000E+00  0.00000000000E+00  0.45593999997E+02  0.45594000000E+02  0.51100000000E-03 0.  1.
         11   -1    0    0    0    0 -0.00000000000E+00 -0.00000000000E+00 -0.45593999997E+02  0.45594000000E+02  0.51100000000E-03 0. -1.
    9900012    2    1    2    0    0 -0.28981375792E+02 -0.22025722120E+02  0.23634095699E+02  0.47787273540E+02  0.20000011379E+02 0.  0.
         12    1    1    2    0    0  0.28981375792E+02  0.22025722120E+02 -0.23634095699E+02  0.43400726460E+02  0.00000000000E+00 0. -1.
         11    1    3    3    0    0 -0.90000378527E+01  0.13592048357E+01  0.85267157822E+01  0.12472088896E+02  0.51100000000E-03 0. -1.
        -11    1    3    3    0    0 -0.48447215474E+01 -0.29617903914E+01  0.61295400611E+01  0.83555245686E+01  0.51100000000E-03 0.  1.
         12    1    3    3    0    0 -0.15136616392E+02 -0.20423136564E+02  0.89778398559E+01  0.26959660076E+02  0.00000000000E+00 0. -1.
</event>
<event>
 7    1  0.2339217E-009  0.4778727E+02  0.7816164E-02  0.1312668E+00
        -11   -1    0    0    0    0  0.00000000000E+00  0.00000000000E+00  0.45593999997E+02  0.45594000000E+02  0.51100000000E-03 0.  1.
         11   -1    0    0    0    0 -0.00000000000E+00 -0.00000000000E+00 -0.45593999997E+02  0.45594000000E+02  0.51100000000E-03 0. -1.
    9900012    2    1    2    0    0  0.30025641463E+02 -0.65368569606E+01  0.30648881094E+02  0.47787267789E+02  0.19999985155E+02 0.  0.
         12    1    1    2    0    0 -0.30025641463E+02  0.65368569606E+01 -0.30648881094E+02  0.43400732211E+02  0.00000000000E+00 0. -1.
         11    1    3    3    0    0  0.69212936254E+01 -0.61843656635E+01  0.93517439068E+00  0.93287317204E+01  0.51100000000E-03 0. -1.
        -11    1    3    3    0    0  0.54278901696E+01  0.29374204666E+01  0.52787856011E+01  0.81213304559E+01  0.51100000000E-03 0.  1.
         12    1    3    3    0    0  0.17676457668E+02 -0.32899117638E+01  0.24434921102E+02  0.30337205612E+02  0.00000000000E+00 0. -1.
</event>
<event>
 7    1  0.2339217E-009  0.4778727E+02  0.7816164E-02  0.1312668E+00
        -11   -1    0    0    0    0  0.00000000000E+00  0.00000000000E+00  0.45593999997E+02  0.45594000000E+02  0.51100000000E-03 0.  1.
         11   -1    0    0    0    0 -0.00000000000E+00 -0.00000000000E+00 -0.45593999997E+02  0.45594000000E+02  0.51100000000E-03 0. -1.
    9900012    2    1    2    0    0 -0.36664967613E+02 -0.12560032147E+02  0.19533285664E+02  0.47787268365E+02  0.19999987784E+02 0.  0.
         12    1    1    2    0    0  0.36664967613E+02  0.12560032147E+02 -0.19533285664E+02  0.43400731635E+02  0.00000000000E+00 0. -1.
         11    1    3    3    0    0 -0.18447353535E+02 -0.14811766254E+02  0.11464671989E+02  0.26289389040E+02  0.51100000000E-03 0. -1.
        -11    1    3    3    0    0 -0.10543229053E+01 -0.11935543045E+01  0.27919860168E+01  0.32142424995E+01  0.51100000000E-03 0.  1.
        -12    1    3    3    0    0 -0.17163291173E+02  0.34452884119E+01  0.52766276579E+01  0.18283636825E+02  0.00000000000E+00 0.  1.
</event>
<event>
 7    1  0.2339217E-009  0.4778727E+02  0.7816164E-02  0.1312668E+00
        -11   -1    0    0    0    0  0.00000000000E+00  0.00000000000E+00  0.45593999997E+02  0.45594000000E+02  0.51100000000E-03 0.  1.
         11   -1    0    0    0    0 -0.00000000000E+00 -0.00000000000E+00 -0.45593999997E+02  0.45594000000E+02  0.51100000000E-03 0. -1.
    9900012    2    1    2    0    0 -0.32274965319E+02 -0.17757476619E+02  0.22948243095E+02  0.47787271626E+02  0.20000002653E+02 0.  0.
         12    1    1    2    0    0  0.32274965319E+02  0.17757476619E+02 -0.22948243095E+02  0.43400728374E+02  0.00000000000E+00 0. -1.
         11    1    3    3    0    0  0.25569665561E+00 -0.33644620839E+01  0.20507291851E+01  0.39484777251E+01  0.51100000000E-03 0. -1.
        -11    1    3    3    0    0 -0.64027421784E+01  0.25872109245E+01  0.12980784653E+01  0.70266475458E+01  0.51100000000E-03 0.  1.
        -12    1    3    3    0    0 -0.26127919796E+02 -0.16980225460E+02  0.19599435445E+02  0.36812146355E+02  0.00000000000E+00 0.  1.
</event>
<event>
 7    1  0.2339217E-009  0.4778729E+02  0.7816164E-02  0.1312668E+00
        -11   -1    0    0    0    0  0.00000000000E+00  0.00000000000E+00  0.45593999997E+02  0.45594000000E+02  0.51100000000E-03 0.  1.
         11   -1    0    0    0    0 -0.00000000000E+00 -0.00000000000E+00 -0.45593999997E+02  0.45594000000E+02  0.51100000000E-03 0. -1.
    9900012    2    1    2    0    0  0.40512506764E+01 -0.10005755680E+02  0.42036819303E+02  0.47787286228E+02  0.20000069228E+02 0.  0.
         12    1    1    2    0    0 -0.40512506764E+01  0.10005755680E+02 -0.42036819303E+02  0.43400713772E+02  0.00000000000E+00 0. -1.
         11    1    3    3    0    0 -0.48651018969E+01 -0.76847630137E+01  0.78742779107E+01  0.12030338812E+02  0.51100000000E-03 0. -1.
        -11    1    3    3    0    0  0.25700464743E+00  0.73503202005E+00  0.78413885411E+01  0.78799554550E+01  0.51100000000E-03 0.  1.
         12    1    3    3    0    0  0.86593479259E+01 -0.30560246864E+01  0.26321152852E+02  0.27876991962E+02  0.00000000000E+00 0. -1.
</event>
<event>
 7    1  0.2339217E-009  0.4778727E+02  0.7816164E-02  0.1312668E+00
        -11   -1    0    0    0    0  0.00000000000E+00  0.00000000000E+00  0.45593999997E+02  0.45594000000E+02  0.51100000000E-03 0.  1.
         11   -1    0    0    0    0 -0.00000000000E+00 -0.00000000000E+00 -0.45593999997E+02  0.45594000000E+02  0.51100000000E-03 0. -1.
    9900012    2    1    2    0    0 -0.35352257748E+02 -0.15761254980E+02  0.19632219458E+02  0.47787270429E+02  0.19999997193E+02 0.  0.
         12    1    1    2    0    0  0.35352257748E+02  0.15761254980E+02 -0.19632219458E+02  0.43400729571E+02  0.00000000000E+00 0. -1.
         11    1    3    3    0    0 -0.70281800148E+01 -0.16083264625E+01  0.79654455483E-01  0.72102963478E+01  0.51100000000E-03 0. -1.
        -11    1    3    3    0    0 -0.70399295462E+01 -0.17645809023E+00  0.12178310492E+02  0.14067799834E+02  0.51100000000E-03 0.  1.
        -12    1    3    3    0    0 -0.21284148187E+02 -0.13976470427E+02  0.73742545113E+01  0.26509174247E+02  0.00000000000E+00 0.  1.
</event>
<event>
 7    1  0.2339217E-009  0.4778726E+02  0.7816164E-02  0.1312668E+00
        -11   -1    0    0    0    0  0.00000000000E+00  0.00000000000E+00  0.45593999997E+02  0.45594000000E+02  0.51100000000E-03 0.  1.
         11   -1    0    0    0    0 -0.00000000000E+00 -0.00000000000E+00 -0.45593999997E+02  0.45594000000E+02  0.51100000000E-03 0. -1.
    9900012    2    1    2    0    0  0.40101762307E+02 -0.16106762565E+01 -0.16519025968E+02  0.47787264557E+02  0.19999970420E+02 0.  0.
         12    1    1    2    0    0 -0.40101762307E+02  0.16106762565E+01  0.16519025968E+02  0.43400735443E+02  0.00000000000E+00 0. -1.
         11    1    3    3    0    0  0.12856171033E+02 -0.27534137070E+01 -0.12585888627E+01  0.13207818399E+02  0.51100000000E-03 0. -1.
        -11    1    3    3    0    0  0.17789359174E+02  0.19546566417E+00 -0.14964364643E+01  0.17853258218E+02  0.51100000000E-03 0.  1.
         12    1    3    3    0    0  0.94562320997E+01  0.94727178635E+00 -0.13764000641E+02  0.16726187940E+02  0.00000000000E+00 0. -1.
</event>
<event>
 7    1  0.2339217E-009  0.4778727E+02  0.7816164E-02  0.1312668E+00
        -11   -1    0    0    0    0  0.00000000000E+00  0.00000000000E+00  0.45593999997E+02  0.45594000000E+02  0.51100000000E-03 0.  1.
         11   -1    0    0    0    0 -0.00000000000E+00 -0.00000000000E+00 -0.45593999997E+02  0.45594000000E+02  0.51100000000E-03 0. -1.
    9900012    2    1    2    0    0 -0.28493684194E+02  0.31526647507E+02  0.88206397074E+01  0.47787271587E+02  0.20000002472E+02 0.  0.
         12    1    1    2    0    0  0.28493684194E+02 -0.31526647507E+02 -0.88206397074E+01  0.43400728413E+02  0.00000000000E+00 0. -1.
         11    1    3    3    0    0 -0.16381732412E+02  0.56362453278E+01  0.53698912434E+01  0.18137368895E+02  0.51100000000E-03 0. -1.
        -11    1    3    3    0    0 -0.71236748414E+01  0.14453458837E+02  0.54561881037E+01  0.17012325076E+02  0.51100000000E-03 0.  1.
        -12    1    3    3    0    0 -0.49882769412E+01  0.11436943342E+02 -0.20054396397E+01  0.12637577616E+02  0.00000000000E+00 0.  1.
</event>
<event>
 7    1  0.2339217E-009  0.4778727E+02  0.7816164E-02  0.1312668E+00
        -11   -1    0    0    0    0  0.00000000000E+00  0.00000000000E+00  0.45593999997E+02  0.45594000000E+02  0.51100000000E-03 0.  1.
         11   -1    0    0    0    0 -0.00000000000E+00 -0.00000000000E+00 -0.45593999997E+02  0.45594000000E+02  0.51100000000E-03 0. -1.
    9900012    2    1    2    0    0 -0.22937567125E+02  0.35893439047E+02 -0.83157873983E+01  0.47787271062E+02  0.20000000082E+02 0.  0.
         12    1    1    2    0    0  0.22937567125E+02 -0.35893439047E+02  0.83157873983E+01  0.43400728938E+02  0.00000000000E+00 0. -1.
         11    1    3    3    0    0 -0.29008126743E+01  0.50843144816E+01 -0.41961988099E+01  0.72022949559E+01  0.51100000000E-03 0. -1.
        -11    1    3    3    0    0 -0.13009512803E+02  0.61249614423E+01  0.10015320628E+01  0.14414077937E+02  0.51100000000E-03 0.  1.
        -12    1    3    3    0    0 -0.70272416480E+01  0.24684163123E+02 -0.51211206512E+01  0.26170898169E+02  0.00000000000E+00 0.  1.
</event>
<event>
 7    1  0.2339217E-009  0.4778727E+02  0.7816164E-02  0.1312668E+00
        -11   -1    0    0    0    0  0.00000000000E+00  0.00000000000E+00  0.45593999997E+02  0.45594000000E+02  0.51100000000E-03 0.  1.
         11   -1    0    0    0    0 -0.00000000000E+00 -0.00000000000E+00 -0.45593999997E+02  0.45594000000E+02  0.51100000000E-03 0. -1.
    9900012    2    1    2    0    0 -0.83895804055E+01 -0.29783069369E+02  0.30433645719E+02  0.47787273368E+02  0.20000010596E+02 0.  0.
         12    1    1    2    0    0  0.83895804055E+01  0.29783069369E+02 -0.30433645719E+02  0.43400726632E+02  0.00000000000E+00 0. -1.
         11    1    3    3    0    0 -0.10040230640E+01 -0.11274826976E+02  0.78105358195E+01  0.13752609050E+02  0.51100000000E-03 0. -1.
        -11    1    3    3    0    0  0.40016158239E+01 -0.83392432350E+01  0.13116573923E+02  0.16049935161E+02  0.51100000000E-03 0.  1.
         12    1    3    3    0    0 -0.11387173165E+02 -0.10168999158E+02  0.95065359767E+01  0.17984729157E+02  0.00000000000E+00 0. -1.
</event>
<event>
 7    1  0.2339217E-009  0.4778726E+02  0.7816164E-02  0.1312668E+00
        -11   -1    0    0    0    0  0.00000000000E+00  0.00000000000E+00  0.45593999997E+02  0.45594000000E+02  0.51100000000E-03 0.  1.
         11   -1    0    0    0    0 -0.00000000000E+00 -0.00000000000E+00 -0.45593999997E+02  0.45594000000E+02  0.51100000000E-03 0. -1.
    9900012    2    1    2    0    0  0.11159717409E+02 -0.34315713794E+02  0.24114652090E+02  0.47787263240E+02  0.19999964418E+02 0.  0.
         12    1    1    2    0    0 -0.11159717409E+02  0.34315713794E+02 -0.24114652090E+02  0.43400736760E+02  0.00000000000E+00 0. -1.
         11    1    3    3    0    0 -0.57472346157E+00 -0.36388510029E+01 -0.16462053426E+01  0.40350385338E+01  0.51100000000E-03 0. -1.
        -11    1    3    3    0    0  0.11039104108E+00 -0.42024235662E+01 -0.10367392283E+01  0.43298243036E+01  0.51100000000E-03 0.  1.
        -12    1    3    3    0    0  0.11624049830E+02 -0.26474439225E+02  0.26797596661E+02  0.39422400403E+02  0.00000000000E+00 0.  1.
</event>
<event>
 7    1  0.2339217E-009  0.4778727E+02  0.7816164E-02  0.1312668E+00
        -11   -1    0    0    0    0  0.00000000000E+00  0.00000000000E+00  0.45593999997E+02  0.45594000000E+02  0.51100000000E-03 0.  1.
         11   -1    0    0    0    0 -0.00000000000E+00 -0.00000000000E+00 -0.45593999997E+02  0.45594000000E+02  0.51100000000E-03 0. -1.
    9900012    2    1    2    0    0  0.24356401642E+02  0.94229597435E+01  0.34664057131E+02  0.47787270420E+02  0.19999997152E+02 0.  0.
         12    1    1    2    0    0 -0.24356401642E+02 -0.94229597435E+01 -0.34664057131E+02  0.43400729580E+02  0.00000000000E+00 0. -1.
         11    1    3    3    0    0  0.57272069606E+00 -0.11513367246E+01 -0.11507850884E+01  0.17256569271E+01  0.51100000000E-03 0. -1.
        -11    1    3    3    0    0  0.54960748036E+00  0.49420500879E+01  0.75736268694E+01  0.90601187450E+01  0.51100000000E-03 0.  1.
         12    1    3    3    0    0  0.23234073466E+02  0.56322463801E+01  0.28241215350E+02  0.37001494748E+02  0.00000000000E+00 0. -1.
</event>
<event>
 7    1  0.2339217E-009  0.4778727E+02  0.7816164E-02  0.1312668E+00
        -11   -1    0    0    0    0  0.00000000000E+00  0.00000000000E+00  0.45593999997E+02  0.45594000000E+02  0.51100000000E-03 0.  1.
         11   -1    0    0    0    0 -0.00000000000E+00 -0.00000000000E+00 -0.45593999997E+02  0.45594000000E+02  0.51100000000E-03 0. -1.
    9900012    2    1    2    0    0 -0.15347591032E+02 -0.38017146590E+02  0.14239775478E+02  0.47787271999E+02  0.20000004352E+02 0.  0.
         12    1    1    2    0    0  0.15347591032E+02  0.38017146590E+02 -0.14239775478E+02  0.43400728001E+02  0.00000000000E+00 0. -1.
         11    1    3    3    0    0  0.16620540107E+01 -0.60276386662E+01 -0.10640208076E+00  0.62534928710E+01  0.51100000000E-03 0. -1.
        -11    1    3    3    0    0 -0.65660365978E+01 -0.25797829365E+02  0.11850286179E+02  0.29138807788E+02  0.51100000000E-03 0.  1.
         12    1    3    3    0    0 -0.10443608445E+02 -0.61916785591E+01  0.24958913797E+01  0.12394971340E+02  0.00000000000E+00 0. -1.
</event>
<event>
 7    1  0.2339217E-009  0.4778727E+02  0.7816164E-02  0.1312668E+00
        -11   -1    0    0    0    0  0.00000000000E+00  0.00000000000E+00  0.45593999997E+02  0.45594000000E+02  0.51100000000E-03 0.  1.
         11   -1    0    0    0    0 -0.00000000000E+00 -0.00000000000E+00 -0.45593999997E+02  0.45594000000E+02  0.51100000000E-03 0. -1.
    9900012    2    1    2    0    0 -0.17035894600E+02  0.37586740962E+02  0.13440173980E+02  0.47787273306E+02  0.20000010312E+02 0.  0.
         12    1    1    2    0    0  0.17035894600E+02 -0.37586740962E+02 -0.13440173980E+02  0.43400726694E+02  0.00000000000E+00 0. -1.
         11    1    3    3    0    0 -0.52997067894E+01  0.35066853316E+01  0.40257228235E+00  0.63675583053E+01  0.51100000000E-03 0. -1.
        -11    1    3    3    0    0 -0.11821451477E+02  0.26783156672E+02  0.16208231100E+02  0.33463277664E+02  0.51100000000E-03 0.  1.
        -12    1    3    3    0    0  0.85263666443E-01  0.72968989575E+01 -0.31706294023E+01  0.79564373369E+01  0.00000000000E+00 0.  1.
</event>
<event>
 7    1  0.2339217E-009  0.4778728E+02  0.7816164E-02  0.1312668E+00
        -11   -1    0    0    0    0  0.00000000000E+00  0.00000000000E+00  0.45593999997E+02  0.45594000000E+02  0.51100000000E-03 0. -1.
         11   -1    0    0    0    0 -0.00000000000E+00 -0.00000000000E+00 -0.45593999997E+02  0.45594000000E+02  0.51100000000E-03 0.  1.
    9900012    2    1    2    0    0 -0.35901438662E+02 -0.24142228458E+02  0.34441104470E+01  0.47787281231E+02  0.20000046444E+02 0.  0.
         12    1    1    2    0    0  0.35901438662E+02  0.24142228458E+02 -0.34441104470E+01  0.43400718769E+02  0.00000000000E+00 0. -1.
         11    1    3    3    0    0 -0.14613578679E+02 -0.59537377109E+01  0.19511397426E+01  0.15900019531E+02  0.51100000000E-03 0. -1.
        -11    1    3    3    0    0 -0.78966613838E+01 -0.23430442681E+01  0.65615194892E+01  0.10530938027E+02  0.51100000000E-03 0.  1.
        -12    1    3    3    0    0 -0.13391198599E+02 -0.15845446479E+02 -0.50685487848E+01  0.21356323673E+02  0.00000000000E+00 0.  1.
</event>
<event>
 7    1  0.2339217E-009  0.4778725E+02  0.7816164E-02  0.1312668E+00
        -11   -1    0    0    0    0  0.00000000000E+00  0.00000000000E+00  0.45593999997E+02  0.45594000000E+02  0.51100000000E-03 0.  1.
         11   -1    0    0    0    0 -0.00000000000E+00 -0.00000000000E+00 -0.45593999997E+02  0.45594000000E+02  0.51100000000E-03 0. -1.
    9900012    2    1    2    0    0 -0.20407441914E+02 -0.11137724581E+02  0.36648498095E+02  0.47787251078E+02  0.19999908967E+02 0.  0.
         12    1    1    2    0    0  0.20407441914E+02  0.11137724581E+02 -0.36648498095E+02  0.43400748922E+02  0.00000000000E+00 0. -1.
         11    1    3    3    0    0 -0.20490492344E+01 -0.18233551261E+01  0.36854272846E+01  0.45940832831E+01  0.51100000000E-03 0. -1.
        -11    1    3    3    0    0 -0.10114054140E+02 -0.12104721927E+02  0.30182839501E+02  0.34056162213E+02  0.51100000000E-03 0.  1.
         12    1    3    3    0    0 -0.82443385400E+01  0.27903524714E+01  0.27802313090E+01  0.91370055822E+01  0.00000000000E+00 0. -1.
</event>
<event>
 7    1  0.2339217E-009  0.4778727E+02  0.7816164E-02  0.1312668E+00
        -11   -1    0    0    0    0  0.00000000000E+00  0.00000000000E+00  0.45593999997E+02  0.45594000000E+02  0.51100000000E-03 0. -1.
         11   -1    0    0    0    0 -0.00000000000E+00 -0.00000000000E+00 -0.45593999997E+02  0.45594000000E+02  0.51100000000E-03 0.  1.
    9900012    2    1    2    0    0 -0.43393390149E+02 -0.42540163178E+00  0.67525713464E+00  0.47787271349E+02  0.20000001390E+02 0.  0.
         12    1    1    2    0    0  0.43393390149E+02  0.42540163178E+00 -0.67525713464E+00  0.43400728651E+02  0.00000000000E+00 0. -1.
         11    1    3    3    0    0 -0.58742801942E+00  0.39434638277E+00  0.13447804383E+01  0.15195444831E+01  0.51100000000E-03 0. -1.
        -11    1    3    3    0    0 -0.44018874438E+02  0.17964082664E+00  0.92489158650E+00  0.44028956408E+02  0.51100000000E-03 0.  1.
        -12    1    3    3    0    0  0.12129123084E+01 -0.99938884119E+00 -0.15944148902E+01  0.22387704585E+01  0.00000000000E+00 0.  1.
</event>
<event>
 7    1  0.2339217E-009  0.4778727E+02  0.7816164E-02  0.1312668E+00
        -11   -1    0    0    0    0  0.00000000000E+00  0.00000000000E+00  0.45593999997E+02  0.45594000000E+02  0.51100000000E-03 0. -1.
         11   -1    0    0    0    0 -0.00000000000E+00 -0.00000000000E+00 -0.45593999997E+02  0.45594000000E+02  0.51100000000E-03 0.  1.
    9900012    2    1    2    0    0 -0.15563006495E+02 -0.37213806146E+02 -0.16017141569E+02  0.47787270017E+02  0.19999995316E+02 0.  0.
         12    1    1    2    0    0  0.15563006495E+02  0.37213806146E+02  0.16017141569E+02  0.43400729983E+02  0.00000000000E+00 0. -1.
         11    1    3    3    0    0 -0.39546423802E+01  0.99836566788E+00 -0.52776879819E+00  0.41127205750E+01  0.51100000000E-03 0. -1.
        -11    1    3    3    0    0 -0.20653021877E+01 -0.20476318529E+01 -0.31546023392E+01  0.42906625958E+01  0.51100000000E-03 0.  1.
        -12    1    3    3    0    0 -0.95430619266E+01 -0.36164539961E+02 -0.12334770431E+02  0.39383886846E+02  0.00000000000E+00 0.  1.
</event>
<event>
 7    1  0.2339217E-009  0.4778727E+02  0.7816164E-02  0.1312668E+00
        -11   -1    0    0    0    0  0.00000000000E+00  0.00000000000E+00  0.45593999997E+02  0.45594000000E+02  0.51100000000E-03 0.  1.
         11   -1    0    0    0    0 -0.00000000000E+00 -0.00000000000E+00 -0.45593999997E+02  0.45594000000E+02  0.51100000000E-03 0. -1.
    9900012    2    1    2    0    0 -0.35902238074E+02 -0.12139951037E+02  0.21148863878E+02  0.47787267826E+02  0.19999985328E+02 0.  0.
         12    1    1    2    0    0  0.35902238074E+02  0.12139951037E+02 -0.21148863878E+02  0.43400732174E+02  0.00000000000E+00 0. -1.
         11    1    3    3    0    0 -0.64997491528E+01  0.18228811413E+00  0.93072796749E+01  0.11353652417E+02  0.51100000000E-03 0. -1.
        -11    1    3    3    0    0 -0.10271077135E+02  0.20624948555E+01  0.44527334718E+01  0.11383134286E+02  0.51100000000E-03 0.  1.
        -12    1    3    3    0    0 -0.19131411786E+02 -0.14384734007E+02  0.73888507309E+01  0.25050481123E+02  0.00000000000E+00 0.  1.
</event>
<event>
 7    1  0.2339217E-009  0.4778728E+02  0.7816164E-02  0.1312668E+00
        -11   -1    0    0    0    0  0.00000000000E+00  0.00000000000E+00  0.45593999997E+02  0.45594000000E+02  0.51100000000E-03 0.  1.
         11   -1    0    0    0    0 -0.00000000000E+00 -0.00000000000E+00 -0.45593999997E+02  0.45594000000E+02  0.51100000000E-03 0. -1.
    9900012    2    1    2    0    0 -0.22452274457E+02  0.26509264874E+02  0.26014930655E+02  0.47787281464E+02  0.20000047507E+02 0.  0.
         12    1    1    2    0    0  0.22452274457E+02 -0.26509264874E+02 -0.26014930655E+02  0.43400718536E+02  0.00000000000E+00 0. -1.
         11    1    3    3    0    0 -0.25022532830E+01  0.66617818091E+01 -0.14770718193E+01  0.72678985811E+01  0.51100000000E-03 0. -1.
        -11    1    3    3    0    0 -0.12186247104E+01 -0.10643009929E+01  0.22112523505E+01  0.27399671544E+01  0.51100000000E-03 0.  1.
        -12    1    3    3    0    0 -0.18731396464E+02  0.20911784057E+02  0.25280750124E+02  0.37779415729E+02  0.00000000000E+00 0.  1.
</event>
<event>
 7    1  0.2339217E-009  0.4778727E+02  0.7816164E-02  0.1312668E+00
        -11   -1    0    0    0    0  0.00000000000E+00  0.00000000000E+00  0.45593999997E+02  0.45594000000E+02  0.51100000000E-03 0.  1.
         11   -1    0    0    0    0 -0.00000000000E+00 -0.00000000000E+00 -0.45593999997E+02  0.45594000000E+02  0.51100000000E-03 0. -1.
    9900012    2    1    2    0    0  0.77121647344E+01  0.61415573804E+01  0.42266143547E+02  0.47787273021E+02  0.20000009011E+02 0.  0.
         12    1    1    2    0    0 -0.77121647344E+01 -0.61415573804E+01 -0.42266143547E+02  0.43400726979E+02  0.00000000000E+00 0. -1.
         11    1    3    3    0    0 -0.27872003305E+01  0.41040207427E+01  0.12060916539E+02  0.13041364191E+02  0.51100000000E-03 0. -1.
        -11    1    3    3    0    0  0.48551378460E+01 -0.57130293759E+01  0.15016626504E+02  0.16784222948E+02  0.51100000000E-03 0.  1.
         12    1    3    3    0    0  0.56442272190E+01  0.77505660136E+01  0.15188600505E+02  0.17961685882E+02  0.00000000000E+00 0. -1.
</event>
<event>
 7    1  0.2339217E-009  0.4778727E+02  0.7816164E-02  0.1312668E+00
        -11   -1    0    0    0    0  0.00000000000E+00  0.00000000000E+00  0.45593999997E+02  0.45594000000E+02  0.51100000000E-03 0.  1.
         11   -1    0    0    0    0 -0.00000000000E+00 -0.00000000000E+00 -0.45593999997E+02  0.45594000000E+02  0.51100000000E-03 0. -1.
    9900012    2    1    2    0    0  0.28862813229E+02 -0.17189456132E+02  0.27478795678E+02  0.47787267270E+02  0.19999982790E+02 0.  0.
         12    1    1    2    0    0 -0.28862813229E+02  0.17189456132E+02 -0.27478795678E+02  0.43400732730E+02  0.00000000000E+00 0. -1.
         11    1    3    3    0    0  0.37425252676E+01 -0.59934708015E+01  0.31591235690E+01  0.77400419645E+01  0.51100000000E-03 0.  1.
        -11    1    3    3    0    0  0.13881603699E+02 -0.13040946647E+02  0.20624304449E+02  0.28073602279E+02  0.51100000000E-03 0. -1.
         12    1    3    3    0    0  0.11238684263E+02  0.18449613167E+01  0.36953676602E+01  0.11973623026E+02  0.00000000000E+00 0. -1.
</event>
<event>
 7    1  0.2339217E-009  0.4778727E+02  0.7816164E-02  0.1312668E+00
        -11   -1    0    0    0    0  0.00000000000E+00  0.00000000000E+00  0.45593999997E+02  0.45594000000E+02  0.51100000000E-03 0.  1.
         11   -1    0    0    0    0 -0.00000000000E+00 -0.00000000000E+00 -0.45593999997E+02  0.45594000000E+02  0.51100000000E-03 0. -1.
    9900012    2    1    2    0    0  0.42182142059E+02  0.10203103982E+02  0.43201891464E+00  0.47787273279E+02  0.20000010190E+02 0.  0.
         12    1    1    2    0    0 -0.42182142059E+02 -0.10203103982E+02 -0.43201891464E+00  0.43400726721E+02  0.00000000000E+00 0. -1.
         11    1    3    3    0    0  0.43608081762E+01  0.21448566303E+00  0.40042260364E+01  0.59242280899E+01  0.51100000000E-03 0. -1.
        -11    1    3    3    0    0  0.10948552658E+02 -0.33945446201E+01  0.95615448047E+00  0.11502520165E+02  0.51100000000E-03 0.  1.
        -12    1    3    3    0    0  0.26872781224E+02  0.13383162939E+02 -0.45283616022E+01  0.30360525025E+02  0.00000000000E+00 0.  1.
</event>
<event>
 7    1  0.2339217E-009  0.4778727E+02  0.7816164E-02  0.1312668E+00
        -11   -1    0    0    0    0  0.00000000000E+00  0.00000000000E+00  0.45593999997E+02  0.45594000000E+02  0.51100000000E-03 0. -1.
         11   -1    0    0    0    0 -0.00000000000E+00 -0.00000000000E+00 -0.45593999997E+02  0.45594000000E+02  0.51100000000E-03 0.  1.
    9900012    2    1    2    0    0  0.13074138187E+02 -0.40123619960E+02  0.10138297110E+02  0.47787273781E+02  0.20000012479E+02 0.  0.
         12    1    1    2    0    0 -0.13074138187E+02  0.40123619960E+02 -0.10138297110E+02  0.43400726219E+02  0.00000000000E+00 0. -1.
         11    1    3    3    0    0 -0.27117120719E+00 -0.59212791461E+00 -0.20751516513E+00  0.68352914769E+00  0.51100000000E-03 0. -1.
        -11    1    3    3    0    0  0.49027588551E+01 -0.16071367519E+02  0.14042886920E+02  0.21898140826E+02  0.51100000000E-03 0.  1.
        -12    1    3    3    0    0  0.84425505388E+01 -0.23460124526E+02 -0.36970746449E+01  0.25205603808E+02  0.00000000000E+00 0.  1.
</event>
<event>
 7    1  0.2339217E-009  0.4778726E+02  0.7816164E-02  0.1312668E+00
        -11   -1    0    0    0    0  0.00000000000E+00  0.00000000000E+00  0.45593999997E+02  0.45594000000E+02  0.51100000000E-03 0.  1.
         11   -1    0    0    0    0 -0.00000000000E+00 -0.00000000000E+00 -0.45593999997E+02  0.45594000000E+02  0.51100000000E-03 0. -1.
    9900012    2    1    2    0    0  0.11714002542E+02 -0.71229212299E+01  0.41178518620E+02  0.47787259706E+02  0.19999948301E+02 0.  0.
         12    1    1    2    0    0 -0.11714002542E+02  0.71229212299E+01 -0.41178518620E+02  0.43400740294E+02  0.00000000000E+00 0. -1.
         11    1    3    3    0    0 -0.23712649186E+00  0.22867154647E+01  0.94368327995E+00  0.24851227301E+01  0.51100000000E-03 0. -1.
        -11    1    3    3    0    0  0.41823180954E+00  0.33703666678E+01  0.45063357365E+01  0.56428141342E+01  0.51100000000E-03 0.  1.
        -12    1    3    3    0    0  0.11532897224E+02 -0.12780003362E+02  0.35728499603E+02  0.39659322841E+02  0.00000000000E+00 0.  1.
</event>
<event>
 7    1  0.2339217E-009  0.4778727E+02  0.7816164E-02  0.1312668E+00
        -11   -1    0    0    0    0  0.00000000000E+00  0.00000000000E+00  0.45593999997E+02  0.45594000000E+02  0.51100000000E-03 0.  1.
         11   -1    0    0    0    0 -0.00000000000E+00 -0.00000000000E+00 -0.45593999997E+02  0.45594000000E+02  0.51100000000E-03 0. -1.
    9900012    2    1    2    0    0  0.40362221267E+02 -0.13600270557E+02  0.83394925415E+01  0.47787269583E+02  0.19999993338E+02 0.  0.
         12    1    1    2    0    0 -0.40362221267E+02  0.13600270557E+02 -0.83394925415E+01  0.43400730417E+02  0.00000000000E+00 0. -1.
         11    1    3    3    0    0  0.24312146865E+02 -0.16292825110E+01  0.11674501831E+02  0.27019049575E+02  0.51100000000E-03 0.  1.
        -11    1    3    3    0    0  0.11060396603E+01 -0.25422133752E+01  0.69724047736E-01  0.27732714038E+01  0.51100000000E-03 0. -1.
        -12    1    3    3    0    0  0.14944034742E+02 -0.94287746707E+01 -0.34047333374E+01  0.17994948604E+02  0.00000000000E+00 0.  1.
</event>
<event>
 7    1  0.2339217E-009  0.4778727E+02  0.7816164E-02  0.1312668E+00
        -11   -1    0    0    0    0  0.00000000000E+00  0.00000000000E+00  0.45593999997E+02  0.45594000000E+02  0.51100000000E-03 0.  1.
         11   -1    0    0    0    0 -0.00000000000E+00 -0.00000000000E+00 -0.45593999997E+02  0.45594000000E+02  0.51100000000E-03 0. -1.
    9900012    2    1    2    0    0  0.19567496992E+02  0.15195599179E+02  0.35634678353E+02  0.47787268736E+02  0.19999989473E+02 0.  0.
         12    1    1    2    0    0 -0.19567496992E+02 -0.15195599179E+02 -0.35634678353E+02  0.43400731264E+02  0.00000000000E+00 0. -1.
         11    1    3    3    0    0  0.78031701045E+01  0.12159102196E+01  0.39543419574E+01  0.88320281883E+01  0.51100000000E-03 0. -1.
        -11    1    3    3    0    0  0.96827482429E+01  0.25428630012E+01  0.89663936336E+01  0.13439418917E+02  0.51100000000E-03 0.  1.
        -12    1    3    3    0    0  0.20815786448E+01  0.11436825958E+02  0.22713942762E+02  0.25515821630E+02  0.00000000000E+00 0.  1.
</event>
<event>
 7    1  0.2339217E-009  0.4778727E+02  0.7816164E-02  0.1312668E+00
        -11   -1    0    0    0    0  0.00000000000E+00  0.00000000000E+00  0.45593999997E+02  0.45594000000E+02  0.51100000000E-03 0.  1.
         11   -1    0    0    0    0 -0.00000000000E+00 -0.00000000000E+00 -0.45593999997E+02  0.45594000000E+02  0.51100000000E-03 0. -1.
    9900012    2    1    2    0    0  0.25812928671E+02 -0.23932182645E+01  0.34807883076E+02  0.47787268388E+02  0.19999987888E+02 0.  0.
         12    1    1    2    0    0 -0.25812928671E+02  0.23932182645E+01 -0.34807883076E+02  0.43400731612E+02  0.00000000000E+00 0. -1.
         11    1    3    3    0    0 -0.61733334077E-01  0.37909850508E+01  0.42317625550E+01  0.56818300962E+01  0.51100000000E-03 0. -1.
        -11    1    3    3    0    0  0.52906151928E+01  0.14611706923E+01  0.12543841978E+02  0.13692099939E+02  0.51100000000E-03 0.  1.
         12    1    3    3    0    0  0.20584046812E+02 -0.76453740076E+01  0.18032278543E+02  0.28413338353E+02  0.00000000000E+00 0. -1.
</event>
<event>
 7    1  0.2339217E-009  0.4778727E+02  0.7816164E-02  0.1312668E+00
        -11   -1    0    0    0    0  0.00000000000E+00  0.00000000000E+00  0.45593999997E+02  0.45594000000E+02  0.51100000000E-03 0.  1.
         11   -1    0    0    0    0 -0.00000000000E+00 -0.00000000000E+00 -0.45593999997E+02  0.45594000000E+02  0.51100000000E-03 0. -1.
    9900012    2    1    2    0    0  0.36369355508E+01 -0.23440216501E+02  0.36344910337E+02  0.47787267780E+02  0.19999985115E+02 0.  0.
         12    1    1    2    0    0 -0.36369355508E+01  0.23440216501E+02 -0.36344910337E+02  0.43400732220E+02  0.00000000000E+00 0. -1.
         11    1    3    3    0    0  0.17589635334E+01 -0.89583279473E+01  0.72133823469E+01  0.11635225716E+02  0.51100000000E-03 0. -1.
        -11    1    3    3    0    0 -0.29845315324E+01  0.67912039842E+00  0.12534033081E+00  0.30633875764E+01  0.51100000000E-03 0.  1.
        -12    1    3    3    0    0  0.48625035497E+01 -0.15161008952E+02  0.29006187660E+02  0.33088654487E+02  0.00000000000E+00 0.  1.
</event>
<event>
 7    1  0.2339217E-009  0.4778727E+02  0.7816164E-02  0.1312668E+00
        -11   -1    0    0    0    0  0.00000000000E+00  0.00000000000E+00  0.45593999997E+02  0.45594000000E+02  0.51100000000E-03 0.  1.
         11   -1    0    0    0    0 -0.00000000000E+00 -0.00000000000E+00 -0.45593999997E+02  0.45594000000E+02  0.51100000000E-03 0. -1.
    9900012    2    1    2    0    0 -0.23343185621E+02  0.61101419938E+01  0.36074716557E+02  0.47787270458E+02  0.19999997324E+02 0.  0.
         12    1    1    2    0    0  0.23343185621E+02 -0.61101419938E+01 -0.36074716557E+02  0.43400729542E+02  0.00000000000E+00 0. -1.
         11    1    3    3    0    0 -0.78654043893E+00  0.52774733263E+01  0.17818728250E+01  0.56254281257E+01  0.51100000000E-03 0. -1.
        -11    1    3    3    0    0 -0.97197390812E+01  0.17052360828E+01  0.73505818528E+01  0.12304966954E+02  0.51100000000E-03 0.  1.
        -12    1    3    3    0    0 -0.12836906101E+02 -0.87256741529E+00  0.26942261879E+02  0.29856875378E+02  0.00000000000E+00 0.  1.
</event>
<event>
 7    1  0.2339217E-009  0.4778728E+02  0.7816164E-02  0.1312668E+00
        -11   -1    0    0    0    0  0.00000000000E+00  0.00000000000E+00  0.45593999997E+02  0.45594000000E+02  0.51100000000E-03 0.  1.
         11   -1    0    0    0    0 -0.00000000000E+00 -0.00000000000E+00 -0.45593999997E+02  0.45594000000E+02  0.51100000000E-03 0. -1.
    9900012    2    1    2    0    0  0.25468870356E+02 -0.84467211957E+01  0.34111757883E+02  0.47787280167E+02  0.20000041593E+02 0.  0.
         12    1    1    2    0    0 -0.25468870356E+02  0.84467211957E+01 -0.34111757883E+02  0.43400719833E+02  0.00000000000E+00 0. -1.
         11    1    3    3    0    0  0.99166404530E+01  0.48406747254E+01  0.12202283697E+02  0.16451979132E+02  0.51100000000E-03 0. -1.
        -11    1    3    3    0    0  0.15221689281E+02 -0.87824475480E+01  0.15133186516E+02  0.23191475673E+02  0.51100000000E-03 0.  1.
        -12    1    3    3    0    0  0.33054062227E+00 -0.45049483731E+01  0.67762876699E+01  0.81438253624E+01  0.00000000000E+00 0.  1.
</event>
<event>
 7    1  0.2339217E-009  0.4778729E+02  0.7816164E-02  0.1312668E+00
        -11   -1    0    0    0    0  0.00000000000E+00  0.00000000000E+00  0.45593999997E+02  0.45594000000E+02  0.51100000000E-03 0.  1.
         11   -1    0    0    0    0 -0.00000000000E+00 -0.00000000000E+00 -0.45593999997E+02  0.45594000000E+02  0.51100000000E-03 0. -1.
    9900012    2    1    2    0    0  0.39748797918E+02  0.10673391799E+02  0.13774385461E+02  0.47787286604E+02  0.20000070943E+02 0.  0.
         12    1    1    2    0    0 -0.39748797918E+02 -0.10673391799E+02 -0.13774385461E+02  0.43400713396E+02  0.00000000000E+00 0. -1.
         11    1    3    3    0    0  0.51234044774E+01  0.26410731130E+01 -0.34305934429E+00  0.57742731666E+01  0.51100000000E-03 0.  1.
        -11    1    3    3    0    0  0.14910735831E+02 -0.51955984811E+01  0.65534010341E+01  0.17095945483E+02  0.51100000000E-03 0. -1.
         12    1    3    3    0    0  0.19714657610E+02  0.13227917168E+02  0.75640437715E+01  0.24917067954E+02  0.00000000000E+00 0. -1.
</event>
<event>
 7    1  0.2339217E-009  0.4778728E+02  0.7816164E-02  0.1312668E+00
        -11   -1    0    0    0    0  0.00000000000E+00  0.00000000000E+00  0.45593999997E+02  0.45594000000E+02  0.51100000000E-03 0.  1.
         11   -1    0    0    0    0 -0.00000000000E+00 -0.00000000000E+00 -0.45593999997E+02  0.45594000000E+02  0.51100000000E-03 0. -1.
    9900012    2    1    2    0    0 -0.17204879845E+02  0.17971722899E+02  0.35561667676E+02  0.47787275095E+02  0.20000018466E+02 0.  0.
         12    1    1    2    0    0  0.17204879845E+02 -0.17971722899E+02 -0.35561667676E+02  0.43400724905E+02  0.00000000000E+00 0. -1.
         11    1    3    3    0    0 -0.23948769002E+01  0.79267520371E+01  0.20846198115E+01  0.85389972037E+01  0.51100000000E-03 0. -1.
        -11    1    3    3    0    0 -0.88359726346E+01  0.88045038188E+01  0.13591975457E+02  0.18448184111E+02  0.51100000000E-03 0.  1.
        -12    1    3    3    0    0 -0.59740303106E+01  0.12404670427E+01  0.19885072407E+02  0.20800093780E+02  0.00000000000E+00 0.  1.
</event>
<event>
 7    1  0.2339217E-009  0.4778727E+02  0.7816164E-02  0.1312668E+00
        -11   -1    0    0    0    0  0.00000000000E+00  0.00000000000E+00  0.45593999997E+02  0.45594000000E+02  0.51100000000E-03 0.  1.
         11   -1    0    0    0    0 -0.00000000000E+00 -0.00000000000E+00 -0.45593999997E+02  0.45594000000E+02  0.51100000000E-03 0. -1.
    9900012    2    1    2    0    0 -0.20354220321E+02 -0.23163881147E+02  0.30541183029E+02  0.47787268031E+02  0.19999986259E+02 0.  0.
         12    1    1    2    0    0  0.20354220321E+02  0.23163881147E+02 -0.30541183029E+02  0.43400731969E+02  0.00000000000E+00 0. -1.
         11    1    3    3    0    0 -0.66081161791E+01 -0.86750308008E+01  0.50095516886E+01  0.12000790275E+02  0.51100000000E-03 0. -1.
        -11    1    3    3    0    0 -0.86616039766E+01 -0.55213869025E+01  0.25274423320E+01  0.10578140752E+02  0.51100000000E-03 0.  1.
         12    1    3    3    0    0 -0.50845001652E+01 -0.89674634434E+01  0.23004189009E+02  0.25208337004E+02  0.00000000000E+00 0. -1.
</event>
<event>
 7    1  0.2339217E-009  0.4778726E+02  0.7816164E-02  0.1312668E+00
        -11   -1    0    0    0    0  0.00000000000E+00  0.00000000000E+00  0.45593999997E+02  0.45594000000E+02  0.51100000000E-03 0.  1.
         11   -1    0    0    0    0 -0.00000000000E+00 -0.00000000000E+00 -0.45593999997E+02  0.45594000000E+02  0.51100000000E-03 0. -1.
    9900012    2    1    2    0    0 -0.40313593192E+02  0.15254737097E+02  0.50726477361E+01  0.47787256285E+02  0.19999932705E+02 0.  0.
         12    1    1    2    0    0  0.40313593192E+02 -0.15254737097E+02 -0.50726477361E+01  0.43400743715E+02  0.00000000000E+00 0. -1.
         11    1    3    3    0    0 -0.19654085140E+01  0.34802802361E+01  0.49758446737E+01  0.63823359067E+01  0.51100000000E-03 0. -1.
        -11    1    3    3    0    0 -0.95289197557E+01  0.43889282569E+01  0.43398720375E+01  0.11353303154E+02  0.51100000000E-03 0.  1.
        -12    1    3    3    0    0 -0.28819264922E+02  0.73855286043E+01 -0.42430689751E+01  0.30051617224E+02  0.00000000000E+00 0.  1.
</event>
<event>
 7    1  0.2339217E-009  0.4778727E+02  0.7816164E-02  0.1312668E+00
        -11   -1    0    0    0    0  0.00000000000E+00  0.00000000000E+00  0.45593999997E+02  0.45594000000E+02  0.51100000000E-03 0. -1.
         11   -1    0    0    0    0 -0.00000000000E+00 -0.00000000000E+00 -0.45593999997E+02  0.45594000000E+02  0.51100000000E-03 0.  1.
    9900012    2    1    2    0    0  0.68993851854E+01  0.16122966470E+02 -0.39699768629E+02  0.47787271978E+02  0.20000004255E+02 0.  0.
         12    1    1    2    0    0 -0.68993851854E+01 -0.16122966470E+02  0.39699768629E+02  0.43400728022E+02  0.00000000000E+00 0. -1.
         11    1    3    3    0    0  0.31389322959E+01  0.99281819159E+01 -0.20040794115E+02  0.22584399950E+02  0.51100000000E-03 0. -1.
        -11    1    3    3    0    0  0.59989594242E+01  0.98150367915E+01 -0.13926054637E+02  0.18062598357E+02  0.51100000000E-03 0.  1.
         12    1    3    3    0    0 -0.22385065347E+01 -0.36202522377E+01 -0.57329198765E+01  0.71402736699E+01  0.00000000000E+00 0. -1.
</event>
<event>
 7    1  0.2339217E-009  0.4778727E+02  0.7816164E-02  0.1312668E+00
        -11   -1    0    0    0    0  0.00000000000E+00  0.00000000000E+00  0.45593999997E+02  0.45594000000E+02  0.51100000000E-03 0.  1.
         11   -1    0    0    0    0 -0.00000000000E+00 -0.00000000000E+00 -0.45593999997E+02  0.45594000000E+02  0.51100000000E-03 0. -1.
    9900012    2    1    2    0    0  0.92117529470E+01 -0.28029784266E+02  0.31829198193E+02  0.47787273555E+02  0.20000011445E+02 0.  0.
         12    1    1    2    0    0 -0.92117529470E+01  0.28029784266E+02 -0.31829198193E+02  0.43400726445E+02  0.00000000000E+00 0. -1.
         11    1    3    3    0    0  0.37381193454E+01 -0.19166493160E+02  0.12240809294E+02  0.23047026028E+02  0.51100000000E-03 0. -1.
        -11    1    3    3    0    0  0.76879283136E+01 -0.70906275450E+01  0.90619763935E+01  0.13838376247E+02  0.51100000000E-03 0.  1.
        -12    1    3    3    0    0 -0.22142947120E+01 -0.17726635615E+01  0.10526412505E+02  0.10901871280E+02  0.00000000000E+00 0.  1.
</event>
<event>
 7    1  0.2339217E-009  0.4778726E+02  0.7816164E-02  0.1312668E+00
        -11   -1    0    0    0    0  0.00000000000E+00  0.00000000000E+00  0.45593999997E+02  0.45594000000E+02  0.51100000000E-03 0.  1.
         11   -1    0    0    0    0 -0.00000000000E+00 -0.00000000000E+00 -0.45593999997E+02  0.45594000000E+02  0.51100000000E-03 0. -1.
    9900012    2    1    2    0    0  0.22491672752E+02  0.98923941886E+01  0.35775543014E+02  0.47787259408E+02  0.19999946945E+02 0.  0.
         12    1    1    2    0    0 -0.22491672752E+02 -0.98923941886E+01 -0.35775543014E+02  0.43400740592E+02  0.00000000000E+00 0. -1.
         11    1    3    3    0    0  0.79213147170E+01 -0.37060222434E-01  0.28414331270E+01  0.84156011539E+01  0.51100000000E-03 0. -1.
        -11    1    3    3    0    0  0.39047531483E+01 -0.21777502081E+01  0.12871044084E+02  0.13625471338E+02  0.51100000000E-03 0.  1.
        -12    1    3    3    0    0  0.10665604887E+02  0.12107204619E+02  0.20063065803E+02  0.25746186916E+02  0.00000000000E+00 0.  1.
</event>
<event>
 7    1  0.2339217E-009  0.4778727E+02  0.7816164E-02  0.1312668E+00
        -11   -1    0    0    0    0  0.00000000000E+00  0.00000000000E+00  0.45593999997E+02  0.45594000000E+02  0.51100000000E-03 0.  1.
         11   -1    0    0    0    0 -0.00000000000E+00 -0.00000000000E+00 -0.45593999997E+02  0.45594000000E+02  0.51100000000E-03 0. -1.
    9900012    2    1    2    0    0 -0.56718102899E+01 -0.48044826237E+01  0.42759453313E+02  0.47787270365E+02  0.19999996903E+02 0.  0.
         12    1    1    2    0    0  0.56718102899E+01  0.48044826237E+01 -0.42759453313E+02  0.43400729635E+02  0.00000000000E+00 0. -1.
         11    1    3    3    0    0 -0.36378050840E+01 -0.62804831527E+01  0.61892473888E+01  0.95385993711E+01  0.51100000000E-03 0. -1.
        -11    1    3    3    0    0 -0.71958554775E+00 -0.43951759591E+01  0.22652791925E+02  0.23086453979E+02  0.51100000000E-03 0.  1.
        -12    1    3    3    0    0 -0.13144196582E+01  0.58711764881E+01  0.13917413999E+02  0.15162217015E+02  0.00000000000E+00 0.  1.
</event>
<event>
 7    1  0.2339217E-009  0.4778727E+02  0.7816164E-02  0.1312668E+00
        -11   -1    0    0    0    0  0.00000000000E+00  0.00000000000E+00  0.45593999997E+02  0.45594000000E+02  0.51100000000E-03 0.  1.
         11   -1    0    0    0    0 -0.00000000000E+00 -0.00000000000E+00 -0.45593999997E+02  0.45594000000E+02  0.51100000000E-03 0. -1.
    9900012    2    1    2    0    0 -0.55946293827E+01 -0.33605708930E+02  0.26888290682E+02  0.47787265831E+02  0.19999976228E+02 0.  0.
         12    1    1    2    0    0  0.55946293827E+01  0.33605708930E+02 -0.26888290682E+02  0.43400734169E+02  0.00000000000E+00 0. -1.
         11    1    3    3    0    0 -0.27327805351E+01 -0.49543866604E+00  0.96996583277E+00  0.29418332554E+01  0.51100000000E-03 0. -1.
        -11    1    3    3    0    0  0.57670567653E+01 -0.18984372614E+02  0.16467408801E+02  0.25784508918E+02  0.51100000000E-03 0.  1.
        -12    1    3    3    0    0 -0.86289056129E+01 -0.14125897650E+02  0.94509160488E+01  0.19060923657E+02  0.00000000000E+00 0.  1.
</event>
<event>
 7    1  0.2339217E-009  0.4778728E+02  0.7816164E-02  0.1312668E+00
        -11   -1    0    0    0    0  0.00000000000E+00  0.00000000000E+00  0.45593999997E+02  0.45594000000E+02  0.51100000000E-03 0.  1.
         11   -1    0    0    0    0 -0.00000000000E+00 -0.00000000000E+00 -0.45593999997E+02  0.45594000000E+02  0.51100000000E-03 0. -1.
    9900012    2    1    2    0    0  0.66054165533E+01  0.36221159064E+02  0.22978662121E+02  0.47787276450E+02  0.20000024646E+02 0.  0.
         12    1    1    2    0    0 -0.66054165533E+01 -0.36221159064E+02 -0.22978662121E+02  0.43400723550E+02  0.00000000000E+00 0. -1.
         11    1    3    3    0    0  0.60454533987E+01  0.30177953608E+01  0.71123082474E+01  0.98101745399E+01  0.51100000000E-03 0. -1.
        -11    1    3    3    0    0  0.92448304810E+00  0.89159340996E+01  0.90746344301E+01  0.12755294590E+02  0.51100000000E-03 0.  1.
        -12    1    3    3    0    0 -0.36451989346E+00  0.24287429604E+02  0.67917194436E+01  0.25221807320E+02  0.00000000000E+00 0.  1.
</event>
<event>
 7    1  0.2339217E-009  0.4778727E+02  0.7816164E-02  0.1312668E+00
        -11   -1    0    0    0    0  0.00000000000E+00  0.00000000000E+00  0.45593999997E+02  0.45594000000E+02  0.51100000000E-03 0.  1.
         11   -1    0    0    0    0 -0.00000000000E+00 -0.00000000000E+00 -0.45593999997E+02  0.45594000000E+02  0.51100000000E-03 0. -1.
    9900012    2    1    2    0    0  0.38371412583E+02 -0.20217395504E+02 -0.15858350663E+01  0.47787271233E+02  0.20000000861E+02 0.  0.
         12    1    1    2    0    0 -0.38371412583E+02  0.20217395504E+02  0.15858350663E+01  0.43400728767E+02  0.00000000000E+00 0. -1.
         11    1    3    3    0    0  0.10554837618E+02 -0.15205812904E+02 -0.23589381042E+01  0.18659740953E+02  0.51100000000E-03 0. -1.
        -11    1    3    3    0    0  0.81522088325E+01 -0.41376492620E+01  0.21637058853E+01  0.93946939111E+01  0.51100000000E-03 0.  1.
         12    1    3    3    0    0  0.19664366133E+02 -0.87393333870E+00 -0.13906028474E+01  0.19732836369E+02  0.00000000000E+00 0. -1.
</event>
<event>
 7    1  0.2339217E-009  0.4778726E+02  0.7816164E-02  0.1312668E+00
        -11   -1    0    0    0    0  0.00000000000E+00  0.00000000000E+00  0.45593999997E+02  0.45594000000E+02  0.51100000000E-03 0.  1.
         11   -1    0    0    0    0 -0.00000000000E+00 -0.00000000000E+00 -0.45593999997E+02  0.45594000000E+02  0.51100000000E-03 0. -1.
    9900012    2    1    2    0    0 -0.38145099458E+02 -0.11759907821E+01  0.20668632927E+02  0.47787263209E+02  0.19999964274E+02 0.  0.
         12    1    1    2    0    0  0.38145099458E+02  0.11759907821E+01 -0.20668632927E+02  0.43400736791E+02  0.00000000000E+00 0. -1.
         11    1    3    3    0    0 -0.16770485573E+02  0.34175297970E+01  0.12237027125E+02  0.21039808207E+02  0.51100000000E-03 0.  1.
        -11    1    3    3    0    0 -0.18185129700E+02 -0.27636652951E+01  0.11723317022E+02  0.21812220206E+02  0.51100000000E-03 0. -1.
         12    1    3    3    0    0 -0.31894841845E+01 -0.18298552841E+01 -0.32917112205E+01  0.49352347951E+01  0.00000000000E+00 0. -1.
</event>
<event>
 7    1  0.2339217E-009  0.4778727E+02  0.7816164E-02  0.1312668E+00
        -11   -1    0    0    0    0  0.00000000000E+00  0.00000000000E+00  0.45593999997E+02  0.45594000000E+02  0.51100000000E-03 0.  1.
         11   -1    0    0    0    0 -0.00000000000E+00 -0.00000000000E+00 -0.45593999997E+02  0.45594000000E+02  0.51100000000E-03 0. -1.
    9900012    2    1    2    0    0 -0.10082719994E+02  0.18078347701E+02  0.38146235288E+02  0.47787272302E+02  0.20000005733E+02 0.  0.
         12    1    1    2    0    0  0.10082719994E+02 -0.18078347701E+02 -0.38146235288E+02  0.43400727698E+02  0.00000000000E+00 0. -1.
         11    1    3    3    0    0  0.18020270072E+01  0.18249006505E+01  0.47487875507E+01  0.53970869163E+01  0.51100000000E-03 0. -1.
        -11    1    3    3    0    0 -0.87153362582E+01 -0.37026171146E+00  0.77855118837E+01  0.11692235688E+02  0.51100000000E-03 0.  1.
        -12    1    3    3    0    0 -0.31694107433E+01  0.16623708762E+02  0.25611935853E+02  0.30697949698E+02  0.00000000000E+00 0.  1.
</event>
<event>
 7    1  0.2339217E-009  0.4778727E+02  0.7816164E-02  0.1312668E+00
        -11   -1    0    0    0    0  0.00000000000E+00  0.00000000000E+00  0.45593999997E+02  0.45594000000E+02  0.51100000000E-03 0.  1.
         11   -1    0    0    0    0 -0.00000000000E+00 -0.00000000000E+00 -0.45593999997E+02  0.45594000000E+02  0.51100000000E-03 0. -1.
    9900012    2    1    2    0    0  0.42759642031E+02 -0.11615591475E+01  0.73407659965E+01  0.47787273604E+02  0.20000011671E+02 0.  0.
         12    1    1    2    0    0 -0.42759642031E+02  0.11615591475E+01 -0.73407659965E+01  0.43400726396E+02  0.00000000000E+00 0. -1.
         11    1    3    3    0    0  0.44134297520E+01 -0.56638197944E+01 -0.83695608612E-01  0.71808232157E+01  0.51100000000E-03 0. -1.
        -11    1    3    3    0    0  0.10461793946E+02  0.25189014257E+01 -0.23086715254E+01  0.11005633168E+02  0.51100000000E-03 0.  1.
        -12    1    3    3    0    0  0.27884418333E+02  0.19833592211E+01  0.97331331305E+01  0.29600817220E+02  0.00000000000E+00 0.  1.
</event>
<event>
 7    1  0.2339217E-009  0.4778727E+02  0.7816164E-02  0.1312668E+00
        -11   -1    0    0    0    0  0.00000000000E+00  0.00000000000E+00  0.45593999997E+02  0.45594000000E+02  0.51100000000E-03 0. -1.
         11   -1    0    0    0    0 -0.00000000000E+00 -0.00000000000E+00 -0.45593999997E+02  0.45594000000E+02  0.51100000000E-03 0.  1.
    9900012    2    1    2    0    0 -0.80342868130E+01  0.34558131595E+02 -0.24996173999E+02  0.47787274908E+02  0.20000017616E+02 0.  0.
         12    1    1    2    0    0  0.80342868130E+01 -0.34558131595E+02  0.24996173999E+02  0.43400725092E+02  0.00000000000E+00 0. -1.
         11    1    3    3    0    0  0.95807522376E+00  0.27560121705E+00  0.46651370582E+00  0.11006813635E+01  0.51100000000E-03 0. -1.
        -11    1    3    3    0    0 -0.11101233290E+02  0.29496349526E+02 -0.14817000934E+02  0.34825501186E+02  0.51100000000E-03 0.  1.
         12    1    3    3    0    0  0.21088712535E+01  0.47861808519E+01 -0.10645686771E+02  0.11861092358E+02  0.00000000000E+00 0. -1.
</event>
<event>
 7    1  0.2339217E-009  0.4778727E+02  0.7816164E-02  0.1312668E+00
        -11   -1    0    0    0    0  0.00000000000E+00  0.00000000000E+00  0.45593999997E+02  0.45594000000E+02  0.51100000000E-03 0.  1.
         11   -1    0    0    0    0 -0.00000000000E+00 -0.00000000000E+00 -0.45593999997E+02  0.45594000000E+02  0.51100000000E-03 0. -1.
    9900012    2    1    2    0    0 -0.59769833238E+01 -0.52457886461E+01  0.42665920602E+02  0.47787269488E+02  0.19999992902E+02 0.  0.
         12    1    1    2    0    0  0.59769833238E+01  0.52457886461E+01 -0.42665920602E+02  0.43400730512E+02  0.00000000000E+00 0. -1.
         11    1    3    3    0    0 -0.47195359422E+01  0.15330644197E+01  0.34567326065E+01  0.60475868410E+01  0.51100000000E-03 0. -1.
        -11    1    3    3    0    0 -0.44062158309E+01  0.11474832774E+01  0.22758811780E+02  0.23209803311E+02  0.51100000000E-03 0.  1.
         12    1    3    3    0    0  0.31487684494E+01 -0.79263363432E+01  0.16450376215E+02  0.18529879336E+02  0.00000000000E+00 0. -1.
</event>
<event>
 7    1  0.2339217E-009  0.4778728E+02  0.7816164E-02  0.1312668E+00
        -11   -1    0    0    0    0  0.00000000000E+00  0.00000000000E+00  0.45593999997E+02  0.45594000000E+02  0.51100000000E-03 0.  1.
         11   -1    0    0    0    0 -0.00000000000E+00 -0.00000000000E+00 -0.45593999997E+02  0.45594000000E+02  0.51100000000E-03 0. -1.
    9900012    2    1    2    0    0  0.33587538484E+01 -0.23193048131E+02  0.36529764828E+02  0.47787280796E+02  0.20000044461E+02 0.  0.
         12    1    1    2    0    0 -0.33587538484E+01  0.23193048131E+02 -0.36529764828E+02  0.43400719204E+02  0.00000000000E+00 0. -1.
         11    1    3    3    0    0 -0.20509474115E+01 -0.64281267577E+01  0.11532099309E+02  0.13361007208E+02  0.51100000000E-03 0. -1.
        -11    1    3    3    0    0 -0.76734979457E+00 -0.19510878664E+01  0.15777836957E+02  0.15916523140E+02  0.51100000000E-03 0.  1.
         12    1    3    3    0    0  0.61770510545E+01 -0.14813833507E+02  0.92198285629E+01  0.18509750447E+02  0.00000000000E+00 0. -1.
</event>
<event>
 7    1  0.2339217E-009  0.4778724E+02  0.7816164E-02  0.1312668E+00
        -11   -1    0    0    0    0  0.00000000000E+00  0.00000000000E+00  0.45593999997E+02  0.45594000000E+02  0.51100000000E-03 0.  1.
         11   -1    0    0    0    0 -0.00000000000E+00 -0.00000000000E+00 -0.45593999997E+02  0.45594000000E+02  0.51100000000E-03 0. -1.
    9900012    2    1    2    0    0 -0.30612052118E+02 -0.28038097019E+02  0.12664649834E+02  0.47787239929E+02  0.19999858131E+02 0.  0.
         12    1    1    2    0    0  0.30612052118E+02  0.28038097019E+02 -0.12664649834E+02  0.43400760071E+02  0.00000000000E+00 0. -1.
         11    1    3    3    0    0  0.13725135513E+01 -0.32530456029E+01  0.14143421137E+01  0.38034803824E+01  0.51100000000E-03 0. -1.
        -11    1    3    3    0    0 -0.77672697463E+01 -0.13923733613E+02  0.33538360284E+01  0.16292607323E+02  0.51100000000E-03 0.  1.
        -12    1    3    3    0    0 -0.24217295923E+02 -0.10861317804E+02  0.78964716921E+01  0.27691152223E+02  0.00000000000E+00 0.  1.
</event>
<event>
 7    1  0.2339217E-009  0.4778727E+02  0.7816164E-02  0.1312668E+00
        -11   -1    0    0    0    0  0.00000000000E+00  0.00000000000E+00  0.45593999997E+02  0.45594000000E+02  0.51100000000E-03 0. -1.
         11   -1    0    0    0    0 -0.00000000000E+00 -0.00000000000E+00 -0.45593999997E+02  0.45594000000E+02  0.51100000000E-03 0.  1.
    9900012    2    1    2    0    0 -0.40954504379E+02  0.14255015016E+02 -0.17737364833E+01  0.47787273933E+02  0.20000013169E+02 0.  0.
         12    1    1    2    0    0  0.40954504379E+02 -0.14255015016E+02  0.17737364833E+01  0.43400726067E+02  0.00000000000E+00 0. -1.
         11    1    3    3    0    0 -0.53243279138E+00  0.43300234141E+01 -0.36030672570E+01  0.56581517622E+01  0.51100000000E-03 0. -1.
        -11    1    3    3    0    0 -0.72136552723E-01  0.66648332012E+00 -0.13579068200E+00  0.68399054721E+00  0.51100000000E-03 0.  1.
        -12    1    3    3    0    0 -0.40349935035E+02  0.92585082814E+01  0.19651214557E+01  0.41445131623E+02  0.00000000000E+00 0.  1.
</event>
<event>
 7    1  0.2339217E-009  0.4778727E+02  0.7816164E-02  0.1312668E+00
        -11   -1    0    0    0    0  0.00000000000E+00  0.00000000000E+00  0.45593999997E+02  0.45594000000E+02  0.51100000000E-03 0.  1.
         11   -1    0    0    0    0 -0.00000000000E+00 -0.00000000000E+00 -0.45593999997E+02  0.45594000000E+02  0.51100000000E-03 0. -1.
    9900012    2    1    2    0    0  0.30352036815E+02  0.13846048963E+02  0.27760835052E+02  0.47787272201E+02  0.20000005271E+02 0.  0.
         12    1    1    2    0    0 -0.30352036815E+02 -0.13846048963E+02 -0.27760835052E+02  0.43400727799E+02  0.00000000000E+00 0. -1.
         11    1    3    3    0    0  0.74018281745E+01  0.82193015159E-01  0.27443062339E+01  0.78946205091E+01  0.51100000000E-03 0. -1.
        -11    1    3    3    0    0  0.11481011182E+02  0.36340552126E+01  0.20776041246E+02  0.24013826541E+02  0.51100000000E-03 0.  1.
         12    1    3    3    0    0  0.11469197459E+02  0.10129800736E+02  0.42404875724E+01  0.15878825150E+02  0.00000000000E+00 0. -1.
</event>
<event>
 7    1  0.2339217E-009  0.4778727E+02  0.7816164E-02  0.1312668E+00
        -11   -1    0    0    0    0  0.00000000000E+00  0.00000000000E+00  0.45593999997E+02  0.45594000000E+02  0.51100000000E-03 0. -1.
         11   -1    0    0    0    0 -0.00000000000E+00 -0.00000000000E+00 -0.45593999997E+02  0.45594000000E+02  0.51100000000E-03 0.  1.
    9900012    2    1    2    0    0 -0.12074615382E+02 -0.30785099752E+02 -0.28108799179E+02  0.47787270805E+02  0.19999998909E+02 0.  0.
         12    1    1    2    0    0  0.12074615382E+02  0.30785099752E+02  0.28108799179E+02  0.43400729195E+02  0.00000000000E+00 0. -1.
         11    1    3    3    0    0 -0.50306896098E+01 -0.13838973023E+02 -0.63112415584E+01  0.16020511307E+02  0.51100000000E-03 0. -1.
        -11    1    3    3    0    0 -0.77539467577E+01 -0.18887928419E+02 -0.21546849656E+02  0.29684074192E+02  0.51100000000E-03 0.  1.
         12    1    3    3    0    0  0.71002098527E+00  0.19418016895E+01 -0.25070796480E+00  0.20826853062E+01  0.00000000000E+00 0. -1.
</event>
<event>
 7    1  0.2339217E-009  0.4778727E+02  0.7816164E-02  0.1312668E+00
        -11   -1    0    0    0    0  0.00000000000E+00  0.00000000000E+00  0.45593999997E+02  0.45594000000E+02  0.51100000000E-03 0.  1.
         11   -1    0    0    0    0 -0.00000000000E+00 -0.00000000000E+00 -0.45593999997E+02  0.45594000000E+02  0.51100000000E-03 0. -1.
    9900012    2    1    2    0    0  0.32526086085E+02  0.28471273856E+02 -0.38811524794E+01  0.47787273560E+02  0.20000011469E+02 0.  0.
         12    1    1    2    0    0 -0.32526086085E+02 -0.28471273856E+02  0.38811524794E+01  0.43400726440E+02  0.00000000000E+00 0. -1.
         11    1    3    3    0    0  0.47089196087E+01  0.99580400587E+01 -0.53475113416E+01  0.12244687154E+02  0.51100000000E-03 0. -1.
        -11    1    3    3    0    0  0.20449366980E+02  0.15901305753E+02 -0.37078095669E+01  0.26168224750E+02  0.51100000000E-03 0.  1.
        -12    1    3    3    0    0  0.73677994963E+01  0.26119280446E+01  0.51741684291E+01  0.93743616561E+01  0.00000000000E+00 0.  1.
</event>
<event>
 7    1  0.2339217E-009  0.4778727E+02  0.7816164E-02  0.1312668E+00
        -11   -1    0    0    0    0  0.00000000000E+00  0.00000000000E+00  0.45593999997E+02  0.45594000000E+02  0.51100000000E-03 0. -1.
         11   -1    0    0    0    0 -0.00000000000E+00 -0.00000000000E+00 -0.45593999997E+02  0.45594000000E+02  0.51100000000E-03 0.  1.
    9900012    2    1    2    0    0 -0.30405129193E+02  0.72287775223E+01 -0.30114714418E+02  0.47787272700E+02  0.20000007547E+02 0.  0.
         12    1    1    2    0    0  0.30405129193E+02 -0.72287775223E+01  0.30114714418E+02  0.43400727300E+02  0.00000000000E+00 0. -1.
         11    1    3    3    0    0 -0.13052706041E+02  0.76802920310E+01 -0.38174754685E+01  0.15618359065E+02  0.51100000000E-03 0. -1.
        -11    1    3    3    0    0 -0.57868540696E+01 -0.31973641680E+01 -0.85376366950E+01  0.10798243294E+02  0.51100000000E-03 0.  1.
        -12    1    3    3    0    0 -0.11565569083E+02  0.27458496594E+01 -0.17759602255E+02  0.21370670340E+02  0.00000000000E+00 0.  1.
</event>
<event>
 7    1  0.2339217E-009  0.4778727E+02  0.7816164E-02  0.1312668E+00
        -11   -1    0    0    0    0  0.00000000000E+00  0.00000000000E+00  0.45593999997E+02  0.45594000000E+02  0.51100000000E-03 0.  1.
         11   -1    0    0    0    0 -0.00000000000E+00 -0.00000000000E+00 -0.45593999997E+02  0.45594000000E+02  0.51100000000E-03 0. -1.
    9900012    2    1    2    0    0 -0.15368478544E+02  0.30624583347E+02  0.26637715797E+02  0.47787272577E+02  0.20000006989E+02 0.  0.
         12    1    1    2    0    0  0.15368478544E+02 -0.30624583347E+02 -0.26637715797E+02  0.43400727423E+02  0.00000000000E+00 0. -1.
         11    1    3    3    0    0  0.40180513174E+01  0.27150119786E+01  0.27783998977E+01  0.55888757981E+01  0.51100000000E-03 0.  1.
        -11    1    3    3    0    0 -0.27052119766E+00  0.47891892090E+01  0.29568799263E+01  0.56349493483E+01  0.51100000000E-03 0. -1.
        -12    1    3    3    0    0 -0.19116008664E+02  0.23120382159E+02  0.20902435973E+02  0.36563447431E+02  0.00000000000E+00 0.  1.
</event>
<event>
 7    1  0.2339217E-009  0.4778727E+02  0.7816164E-02  0.1312668E+00
        -11   -1    0    0    0    0  0.00000000000E+00  0.00000000000E+00  0.45593999997E+02  0.45594000000E+02  0.51100000000E-03 0. -1.
         11   -1    0    0    0    0 -0.00000000000E+00 -0.00000000000E+00 -0.45593999997E+02  0.45594000000E+02  0.51100000000E-03 0.  1.
    9900012    2    1    2    0    0  0.20606073222E+02 -0.19996745973E+02 -0.32544478919E+02  0.47787271766E+02  0.20000003289E+02 0.  0.
         12    1    1    2    0    0 -0.20606073222E+02  0.19996745973E+02  0.32544478919E+02  0.43400728234E+02  0.00000000000E+00 0. -1.
         11    1    3    3    0    0  0.42205100542E+01 -0.43933748016E+01 -0.49324239783E+00  0.61120974787E+01  0.51100000000E-03 0. -1.
        -11    1    3    3    0    0  0.82085997880E+01 -0.14327268210E+02 -0.13382382646E+02  0.21254173482E+02  0.51100000000E-03 0.  1.
         12    1    3    3    0    0  0.81769633800E+01 -0.12761029616E+01 -0.18668853875E+02  0.20421000805E+02  0.00000000000E+00 0. -1.
</event>
<event>
 7    1  0.2339217E-009  0.4778727E+02  0.7816164E-02  0.1312668E+00
        -11   -1    0    0    0    0  0.00000000000E+00  0.00000000000E+00  0.45593999997E+02  0.45594000000E+02  0.51100000000E-03 0.  1.
         11   -1    0    0    0    0 -0.00000000000E+00 -0.00000000000E+00 -0.45593999997E+02  0.45594000000E+02  0.51100000000E-03 0. -1.
    9900012    2    1    2    0    0  0.25717606746E+02  0.21762706732E+02  0.27360785469E+02  0.47787270945E+02  0.19999999545E+02 0.  0.
         12    1    1    2    0    0 -0.25717606746E+02 -0.21762706732E+02 -0.27360785469E+02  0.43400729055E+02  0.00000000000E+00 0. -1.
         11    1    3    3    0    0  0.19950115812E+01  0.80638664622E+01  0.12178780805E+02  0.14742072978E+02  0.51100000000E-03 0. -1.
        -11    1    3    3    0    0  0.17982652516E+02  0.12606135353E+02  0.15963665045E+02  0.27150120478E+02  0.51100000000E-03 0.  1.
         12    1    3    3    0    0  0.57399426481E+01  0.10927049166E+01 -0.78166038091E+00  0.58950774880E+01  0.00000000000E+00 0. -1.
</event>
<event>
 7    1  0.2339217E-009  0.4778727E+02  0.7816164E-02  0.1312668E+00
        -11   -1    0    0    0    0  0.00000000000E+00  0.00000000000E+00  0.45593999997E+02  0.45594000000E+02  0.51100000000E-03 0.  1.
         11   -1    0    0    0    0 -0.00000000000E+00 -0.00000000000E+00 -0.45593999997E+02  0.45594000000E+02  0.51100000000E-03 0. -1.
    9900012    2    1    2    0    0 -0.21115528034E+02  0.18982266668E+02  0.32824248351E+02  0.47787271298E+02  0.20000001158E+02 0.  0.
         12    1    1    2    0    0  0.21115528034E+02 -0.18982266668E+02 -0.32824248351E+02  0.43400728702E+02  0.00000000000E+00 0. -1.
         11    1    3    3    0    0 -0.42066220892E+01 -0.11632108182E+01  0.84878896273E+01  0.95442652622E+01  0.51100000000E-03 0. -1.
        -11    1    3    3    0    0 -0.71957282394E+01  0.12822359809E+02  0.20988399868E+02  0.25626243292E+02  0.51100000000E-03 0.  1.
         12    1    3    3    0    0 -0.97131777051E+01  0.73231176772E+01  0.33479588560E+01  0.12616762744E+02  0.00000000000E+00 0. -1.
</event>
<event>
 7    1  0.2339217E-009  0.4778725E+02  0.7816164E-02  0.1312668E+00
        -11   -1    0    0    0    0  0.00000000000E+00  0.00000000000E+00  0.45593999997E+02  0.45594000000E+02  0.51100000000E-03 0. -1.
         11   -1    0    0    0    0 -0.00000000000E+00 -0.00000000000E+00 -0.45593999997E+02  0.45594000000E+02  0.51100000000E-03 0.  1.
    9900012    2    1    2    0    0  0.43360147722E+02  0.99495741163E+00  0.15914323566E+01  0.47787251070E+02  0.19999908927E+02 0.  0.
         12    1    1    2    0    0 -0.43360147722E+02 -0.99495741163E+00 -0.15914323566E+01  0.43400748930E+02  0.00000000000E+00 0. -1.
         11    1    3    3    0    0  0.85173239016E+01  0.56798622390E+00 -0.51464369894E+01  0.99676089782E+01  0.51100000000E-03 0.  1.
        -11    1    3    3    0    0  0.87256658899E+00 -0.28992063064E+01  0.11173865979E+01  0.32272779133E+01  0.51100000000E-03 0. -1.
        -12    1    3    3    0    0  0.33970257232E+02  0.33261774942E+01  0.56204827480E+01  0.34592364178E+02  0.00000000000E+00 0.  1.
</event>
<event>
 7    1  0.2339217E-009  0.4778727E+02  0.7816164E-02  0.1312668E+00
        -11   -1    0    0    0    0  0.00000000000E+00  0.00000000000E+00  0.45593999997E+02  0.45594000000E+02  0.51100000000E-03 0.  1.
         11   -1    0    0    0    0 -0.00000000000E+00 -0.00000000000E+00 -0.45593999997E+02  0.45594000000E+02  0.51100000000E-03 0. -1.
    9900012    2    1    2    0    0 -0.32523661054E+02 -0.22580222400E+02  0.17775499239E+02  0.47787270223E+02  0.19999996256E+02 0.  0.
         12    1    1    2    0    0  0.32523661054E+02  0.22580222400E+02 -0.17775499239E+02  0.43400729777E+02  0.00000000000E+00 0. -1.
         11    1    3    3    0    0 -0.10032256752E+02 -0.12325462151E+01  0.93020594991E+01  0.13736580976E+02  0.51100000000E-03 0. -1.
        -11    1    3    3    0    0 -0.74283824201E+01 -0.27546523886E+01  0.61104722364E+01  0.10005340892E+02  0.51100000000E-03 0.  1.
         12    1    3    3    0    0 -0.15063021881E+02 -0.18593023796E+02  0.23629675032E+01  0.24045348355E+02  0.00000000000E+00 0. -1.
</event>
<event>
 7    1  0.2339217E-009  0.4778728E+02  0.7816164E-02  0.1312668E+00
        -11   -1    0    0    0    0  0.00000000000E+00  0.00000000000E+00  0.45593999997E+02  0.45594000000E+02  0.51100000000E-03 0.  1.
         11   -1    0    0    0    0 -0.00000000000E+00 -0.00000000000E+00 -0.45593999997E+02  0.45594000000E+02  0.51100000000E-03 0. -1.
    9900012    2    1    2    0    0 -0.24900618305E+02 -0.24373316037E+02  0.25875153232E+02  0.47787275566E+02  0.20000020615E+02 0.  0.
         12    1    1    2    0    0  0.24900618305E+02  0.24373316037E+02 -0.25875153232E+02  0.43400724434E+02  0.00000000000E+00 0. -1.
         11    1    3    3    0    0 -0.91994138694E+01 -0.68845632860E+01  0.59826483678E+01  0.12954478335E+02  0.51100000000E-03 0. -1.
        -11    1    3    3    0    0 -0.16434265301E+02 -0.18330348466E+02  0.12980530922E+02  0.27831294152E+02  0.51100000000E-03 0.  1.
         12    1    3    3    0    0  0.73306086618E+00  0.84159571494E+00  0.69119739427E+01  0.70015030791E+01  0.00000000000E+00 0. -1.
</event>
<event>
 7    1  0.2339217E-009  0.4778727E+02  0.7816164E-02  0.1312668E+00
        -11   -1    0    0    0    0  0.00000000000E+00  0.00000000000E+00  0.45593999997E+02  0.45594000000E+02  0.51100000000E-03 0.  1.
         11   -1    0    0    0    0 -0.00000000000E+00 -0.00000000000E+00 -0.45593999997E+02  0.45594000000E+02  0.51100000000E-03 0. -1.
    9900012    2    1    2    0    0 -0.13162395111E+02 -0.72336447720E+01  0.40719149766E+02  0.47787269367E+02  0.19999992354E+02 0.  0.
         12    1    1    2    0    0  0.13162395111E+02  0.72336447720E+01 -0.40719149766E+02  0.43400730633E+02  0.00000000000E+00 0. -1.
         11    1    3    3    0    0 -0.24223733696E+01 -0.23296899725E+01  0.18475005307E+00  0.33659294337E+01  0.51100000000E-03 0. -1.
        -11    1    3    3    0    0  0.19458921174E+01  0.23603937474E+01  0.37557912261E+01  0.48439573460E+01  0.51100000000E-03 0.  1.
        -12    1    3    3    0    0 -0.12685913859E+02 -0.72643485469E+01  0.36778608487E+02  0.39577382588E+02  0.00000000000E+00 0.  1.
</event>
<event>
 7    1  0.2339217E-009  0.4778727E+02  0.7816164E-02  0.1312668E+00
        -11   -1    0    0    0    0  0.00000000000E+00  0.00000000000E+00  0.45593999997E+02  0.45594000000E+02  0.51100000000E-03 0. -1.
         11   -1    0    0    0    0 -0.00000000000E+00 -0.00000000000E+00 -0.45593999997E+02  0.45594000000E+02  0.51100000000E-03 0.  1.
    9900012    2    1    2    0    0 -0.35750097838E+02 -0.19123608161E+02 -0.15486818954E+02  0.47787269064E+02  0.19999990969E+02 0.  0.
         12    1    1    2    0    0  0.35750097838E+02  0.19123608161E+02  0.15486818954E+02  0.43400730936E+02  0.00000000000E+00 0. -1.
         11    1    3    3    0    0 -0.16087213044E+02 -0.90782289913E+01 -0.87226817277E+01  0.20427869246E+02  0.51100000000E-03 0.  1.
        -11    1    3    3    0    0 -0.18833047681E+02 -0.12665244938E+02 -0.32948883932E+01  0.22933565010E+02  0.51100000000E-03 0. -1.
         12    1    3    3    0    0 -0.82983711317E+00  0.26198657688E+01 -0.34692488327E+01  0.44258348076E+01  0.00000000000E+00 0. -1.
</event>
<event>
 7    1  0.2339217E-009  0.4778727E+02  0.7816164E-02  0.1312668E+00
        -11   -1    0    0    0    0  0.00000000000E+00  0.00000000000E+00  0.45593999997E+02  0.45594000000E+02  0.51100000000E-03 0. -1.
         11   -1    0    0    0    0 -0.00000000000E+00 -0.00000000000E+00 -0.45593999997E+02  0.45594000000E+02  0.51100000000E-03 0.  1.
    9900012    2    1    2    0    0  0.35823685611E+02  0.22476409650E+02 -0.97518222524E+01  0.47787268684E+02  0.19999989238E+02 0.  0.
         12    1    1    2    0    0 -0.35823685611E+02 -0.22476409650E+02  0.97518222524E+01  0.43400731316E+02  0.00000000000E+00 0. -1.
         11    1    3    3    0    0  0.18913172314E+02  0.10095831228E+02 -0.83820484997E+01  0.23019396875E+02  0.51100000000E-03 0. -1.
        -11    1    3    3    0    0  0.17900959964E+02  0.14042647112E+02 -0.86424896191E+00  0.22768118764E+02  0.51100000000E-03 0.  1.
         12    1    3    3    0    0 -0.99044666719E+00 -0.16620686891E+01 -0.50552479077E+00  0.19997530453E+01  0.00000000000E+00 0. -1.
</event>
<event>
 7    1  0.2339217E-009  0.4778727E+02  0.7816164E-02  0.1312668E+00
        -11   -1    0    0    0    0  0.00000000000E+00  0.00000000000E+00  0.45593999997E+02  0.45594000000E+02  0.51100000000E-03 0.  1.
         11   -1    0    0    0    0 -0.00000000000E+00 -0.00000000000E+00 -0.45593999997E+02  0.45594000000E+02  0.51100000000E-03 0. -1.
    9900012    2    1    2    0    0 -0.91315759947E+01 -0.10407292243E+02  0.41133025105E+02  0.47787272284E+02  0.20000005652E+02 0.  0.
         12    1    1    2    0    0  0.91315759947E+01  0.10407292243E+02 -0.41133025105E+02  0.43400727716E+02  0.00000000000E+00 0. -1.
         11    1    3    3    0    0  0.40492418502E+01 -0.10220092800E+01  0.44039631318E+01  0.60692465806E+01  0.51100000000E-03 0. -1.
        -11    1    3    3    0    0 -0.51013906191E+01  0.22796513431E+01  0.99274595551E+01  0.11391902825E+02  0.51100000000E-03 0.  1.
        -12    1    3    3    0    0 -0.80794272258E+01 -0.11664934307E+02  0.26801602418E+02  0.30326122878E+02  0.00000000000E+00 0.  1.
</event>
<event>
 7    1  0.2339217E-009  0.4778727E+02  0.7816164E-02  0.1312668E+00
        -11   -1    0    0    0    0  0.00000000000E+00  0.00000000000E+00  0.45593999997E+02  0.45594000000E+02  0.51100000000E-03 0.  1.
         11   -1    0    0    0    0 -0.00000000000E+00 -0.00000000000E+00 -0.45593999997E+02  0.45594000000E+02  0.51100000000E-03 0. -1.
    9900012    2    1    2    0    0  0.20520500198E+02 -0.23083668053E+02  0.30490596843E+02  0.47787272414E+02  0.20000006243E+02 0.  0.
         12    1    1    2    0    0 -0.20520500198E+02  0.23083668053E+02 -0.30490596843E+02  0.43400727586E+02  0.00000000000E+00 0. -1.
         11    1    3    3    0    0  0.95635506986E+00 -0.61046470195E+01  0.65024122352E+01  0.89701000769E+01  0.51100000000E-03 0. -1.
        -11    1    3    3    0    0  0.15743748848E+02 -0.12948062662E+02  0.80104229680E+01  0.21901708401E+02  0.51100000000E-03 0.  1.
        -12    1    3    3    0    0  0.38203962799E+01 -0.40309583715E+01  0.15977761640E+02  0.16915463936E+02  0.00000000000E+00 0.  1.
</event>
<event>
 7    1  0.2339217E-009  0.4778727E+02  0.7816164E-02  0.1312668E+00
        -11   -1    0    0    0    0  0.00000000000E+00  0.00000000000E+00  0.45593999997E+02  0.45594000000E+02  0.51100000000E-03 0.  1.
         11   -1    0    0    0    0 -0.00000000000E+00 -0.00000000000E+00 -0.45593999997E+02  0.45594000000E+02  0.51100000000E-03 0. -1.
    9900012    2    1    2    0    0  0.19283300498E+02 -0.18192555514E+02  0.34362894473E+02  0.47787271080E+02  0.20000000161E+02 0.  0.
         12    1    1    2    0    0 -0.19283300498E+02  0.18192555514E+02 -0.34362894473E+02  0.43400728920E+02  0.00000000000E+00 0. -1.
         11    1    3    3    0    0  0.73053774916E+01 -0.81326953432E+01  0.54566414137E+01  0.12218191749E+02  0.51100000000E-03 0. -1.
        -11    1    3    3    0    0  0.11700944282E+02 -0.23708890345E+01  0.22837183947E+02  0.25769559228E+02  0.51100000000E-03 0.  1.
         12    1    3    3    0    0  0.27697872462E+00 -0.76889711367E+01  0.60690691120E+01  0.97995201026E+01  0.00000000000E+00 0. -1.
</event>
<event>
 7    1  0.2339217E-009  0.4778727E+02  0.7816164E-02  0.1312668E+00
        -11   -1    0    0    0    0  0.00000000000E+00  0.00000000000E+00  0.45593999997E+02  0.45594000000E+02  0.51100000000E-03 0.  1.
         11   -1    0    0    0    0 -0.00000000000E+00 -0.00000000000E+00 -0.45593999997E+02  0.45594000000E+02  0.51100000000E-03 0. -1.
    9900012    2    1    2    0    0  0.21623207161E+02  0.17225005799E+02  0.33456831914E+02  0.47787268273E+02  0.19999987365E+02 0.  0.
         12    1    1    2    0    0 -0.21623207161E+02 -0.17225005799E+02 -0.33456831914E+02  0.43400731727E+02  0.00000000000E+00 0. -1.
         11    1    3    3    0    0  0.44593009526E+01 -0.25271287667E+01  0.28361091579E+01  0.58579228577E+01  0.51100000000E-03 0. -1.
        -11    1    3    3    0    0  0.12252055910E+02  0.62646892637E+01  0.10991093235E+02  0.17611454691E+02  0.51100000000E-03 0.  1.
         12    1    3    3    0    0  0.49118502985E+01  0.13487445302E+02  0.19629629521E+02  0.24317890724E+02  0.00000000000E+00 0. -1.
</event>
<event>
 7    1  0.2339217E-009  0.4778727E+02  0.7816164E-02  0.1312668E+00
        -11   -1    0    0    0    0  0.00000000000E+00  0.00000000000E+00  0.45593999997E+02  0.45594000000E+02  0.51100000000E-03 0.  1.
         11   -1    0    0    0    0 -0.00000000000E+00 -0.00000000000E+00 -0.45593999997E+02  0.45594000000E+02  0.51100000000E-03 0. -1.
    9900012    2    1    2    0    0 -0.36011366990E+01 -0.40185560898E+01  0.43063982235E+02  0.47787267927E+02  0.19999985786E+02 0.  0.
         12    1    1    2    0    0  0.36011366990E+01  0.40185560898E+01 -0.43063982235E+02  0.43400732073E+02  0.00000000000E+00 0. -1.
         11    1    3    3    0    0 -0.51885543806E+01  0.14342011849E+01  0.57576874125E+01  0.78821947578E+01  0.51100000000E-03 0. -1.
        -11    1    3    3    0    0  0.21670016711E+01  0.40679549838E+01  0.13108066265E+02  0.13894803182E+02  0.51100000000E-03 0.  1.
        -12    1    3    3    0    0 -0.57958398941E+00 -0.95207122585E+01  0.24198228557E+02  0.26010269987E+02  0.00000000000E+00 0.  1.
</event>
<event>
 7    1  0.2339217E-009  0.4778727E+02  0.7816164E-02  0.1312668E+00
        -11   -1    0    0    0    0  0.00000000000E+00  0.00000000000E+00  0.45593999997E+02  0.45594000000E+02  0.51100000000E-03 0.  1.
         11   -1    0    0    0    0 -0.00000000000E+00 -0.00000000000E+00 -0.45593999997E+02  0.45594000000E+02  0.51100000000E-03 0. -1.
    9900012    2    1    2    0    0  0.69876327290E-01 -0.41452815209E+02  0.12856225020E+02  0.47787270821E+02  0.19999998983E+02 0.  0.
         12    1    1    2    0    0 -0.69876327290E-01  0.41452815209E+02 -0.12856225020E+02  0.43400729179E+02  0.00000000000E+00 0. -1.
         11    1    3    3    0    0 -0.54800387302E+01 -0.24121111576E+02  0.12079369716E+02  0.27527622875E+02  0.51100000000E-03 0. -1.
        -11    1    3    3    0    0 -0.57147242470E+00 -0.12318455545E+02  0.38686050861E+00  0.12337770830E+02  0.51100000000E-03 0.  1.
        -12    1    3    3    0    0  0.61213874822E+01 -0.50132480882E+01  0.38999479478E+00  0.79218771160E+01  0.00000000000E+00 0.  1.
</event>
<event>
 7    1  0.2339217E-009  0.4778727E+02  0.7816164E-02  0.1312668E+00
        -11   -1    0    0    0    0  0.00000000000E+00  0.00000000000E+00  0.45593999997E+02  0.45594000000E+02  0.51100000000E-03 0.  1.
         11   -1    0    0    0    0 -0.00000000000E+00 -0.00000000000E+00 -0.45593999997E+02  0.45594000000E+02  0.51100000000E-03 0. -1.
    9900012    2    1    2    0    0 -0.25877156861E+02 -0.21844308942E+02  0.27144470397E+02  0.47787270128E+02  0.19999995821E+02 0.  0.
         12    1    1    2    0    0  0.25877156861E+02  0.21844308942E+02 -0.27144470397E+02  0.43400729872E+02  0.00000000000E+00 0. -1.
         11    1    3    3    0    0 -0.79760296482E+01 -0.17594673324E+01  0.11734269283E+01  0.82516486389E+01  0.51100000000E-03 0. -1.
        -11    1    3    3    0    0 -0.72802914310E+01 -0.47584431027E+01  0.15903101166E+01  0.88416350643E+01  0.51100000000E-03 0.  1.
         12    1    3    3    0    0 -0.10620835781E+02 -0.15326398506E+02  0.24380733352E+02  0.30693986425E+02  0.00000000000E+00 0. -1.
</event>
<event>
 7    1  0.2339217E-009  0.4778727E+02  0.7816164E-02  0.1312668E+00
        -11   -1    0    0    0    0  0.00000000000E+00  0.00000000000E+00  0.45593999997E+02  0.45594000000E+02  0.51100000000E-03 0.  1.
         11   -1    0    0    0    0 -0.00000000000E+00 -0.00000000000E+00 -0.45593999997E+02  0.45594000000E+02  0.51100000000E-03 0. -1.
    9900012    2    1    2    0    0 -0.16429010088E+02 -0.25782919448E+02  0.30805062309E+02  0.47787272222E+02  0.20000005370E+02 0.  0.
         12    1    1    2    0    0  0.16429010088E+02  0.25782919448E+02 -0.30805062309E+02  0.43400727778E+02  0.00000000000E+00 0. -1.
         11    1    3    3    0    0 -0.28973625440E+01 -0.31035027036E+01  0.94821071415E+01  0.10389263441E+02  0.51100000000E-03 0. -1.
        -11    1    3    3    0    0  0.31791407746E+01 -0.44984550318E+01  0.14382180120E+01  0.56931103141E+01  0.51100000000E-03 0.  1.
        -12    1    3    3    0    0 -0.16710788319E+02 -0.18180961713E+02  0.19884737156E+02  0.31704898467E+02  0.00000000000E+00 0.  1.
</event>
<event>
 7    1  0.2339217E-009  0.4778727E+02  0.7816164E-02  0.1312668E+00
        -11   -1    0    0    0    0  0.00000000000E+00  0.00000000000E+00  0.45593999997E+02  0.45594000000E+02  0.51100000000E-03 0.  1.
         11   -1    0    0    0    0 -0.00000000000E+00 -0.00000000000E+00 -0.45593999997E+02  0.45594000000E+02  0.51100000000E-03 0. -1.
    9900012    2    1    2    0    0  0.39212086767E+02  0.65272226848E+01  0.17419269854E+02  0.47787270203E+02  0.19999996165E+02 0.  0.
         12    1    1    2    0    0 -0.39212086767E+02 -0.65272226848E+01 -0.17419269854E+02  0.43400729797E+02  0.00000000000E+00 0. -1.
         11    1    3    3    0    0  0.20552270144E+02 -0.17314888116E+01  0.85149051686E+00  0.20642647551E+02  0.51100000000E-03 0. -1.
        -11    1    3    3    0    0  0.87877965532E+01  0.64270869139E+00  0.49707249014E+01  0.10116647124E+02  0.51100000000E-03 0.  1.
         12    1    3    3    0    0  0.98720200702E+01  0.76160028050E+01  0.11597054436E+02  0.17027975528E+02  0.00000000000E+00 0. -1.
</event>
<event>
 7    1  0.2339217E-009  0.4778727E+02  0.7816164E-02  0.1312668E+00
        -11   -1    0    0    0    0  0.00000000000E+00  0.00000000000E+00  0.45593999997E+02  0.45594000000E+02  0.51100000000E-03 0. -1.
         11   -1    0    0    0    0 -0.00000000000E+00 -0.00000000000E+00 -0.45593999997E+02  0.45594000000E+02  0.51100000000E-03 0.  1.
    9900012    2    1    2    0    0 -0.60146776472E+01  0.41234060218E+02  0.12132563154E+02  0.47787272380E+02  0.20000006088E+02 0.  0.
         12    1    1    2    0    0  0.60146776472E+01 -0.41234060218E+02 -0.12132563154E+02  0.43400727620E+02  0.00000000000E+00 0. -1.
         11    1    3    3    0    0 -0.33126620412E+01  0.52519037708E+01 -0.13271199317E+01  0.63496039712E+01  0.51100000000E-03 0. -1.
        -11    1    3    3    0    0 -0.49321480996E+01  0.29186785610E+02  0.44481079469E+01  0.29932928418E+02  0.51100000000E-03 0.  1.
         12    1    3    3    0    0  0.22301324937E+01  0.67953708377E+01  0.90115751388E+01  0.11504739990E+02  0.00000000000E+00 0. -1.
</event>
<event>
 7    1  0.2339217E-009  0.4778727E+02  0.7816164E-02  0.1312668E+00
        -11   -1    0    0    0    0  0.00000000000E+00  0.00000000000E+00  0.45593999997E+02  0.45594000000E+02  0.51100000000E-03 0. -1.
         11   -1    0    0    0    0 -0.00000000000E+00 -0.00000000000E+00 -0.45593999997E+02  0.45594000000E+02  0.51100000000E-03 0.  1.
    9900012    2    1    2    0    0 -0.38463039466E+02  0.20054138555E+02 -0.14315978342E+01  0.47787270161E+02  0.19999995972E+02 0.  0.
         12    1    1    2    0    0  0.38463039466E+02 -0.20054138555E+02  0.14315978342E+01  0.43400729839E+02  0.00000000000E+00 0. -1.
         11    1    3    3    0    0 -0.15717588210E+01  0.62349809529E+01 -0.72843572127E+00  0.64711693020E+01  0.51100000000E-03 0. -1.
        -11    1    3    3    0    0 -0.46542364317E+01  0.15070800316E+01  0.42171459824E+01  0.64589107040E+01  0.51100000000E-03 0.  1.
        -12    1    3    3    0    0 -0.32237044214E+02  0.12312077571E+02 -0.49203080953E+01  0.34857190155E+02  0.00000000000E+00 0.  1.
</event>
<event>
 7    1  0.2339217E-009  0.4778725E+02  0.7816164E-02  0.1312668E+00
        -11   -1    0    0    0    0  0.00000000000E+00  0.00000000000E+00  0.45593999997E+02  0.45594000000E+02  0.51100000000E-03 0.  1.
         11   -1    0    0    0    0 -0.00000000000E+00 -0.00000000000E+00 -0.45593999997E+02  0.45594000000E+02  0.51100000000E-03 0. -1.
    9900012    2    1    2    0    0 -0.21085363083E+01 -0.57139852054E+01  0.42971267767E+02  0.47787246484E+02  0.19999888019E+02 0.  0.
         12    1    1    2    0    0  0.21085363083E+01  0.57139852054E+01 -0.42971267767E+02  0.43400753516E+02  0.00000000000E+00 0. -1.
         11    1    3    3    0    0  0.90455548323E+00  0.18329512296E+01  0.22441089516E+01  0.30354498975E+01  0.51100000000E-03 0. -1.
        -11    1    3    3    0    0  0.53225691017E+00 -0.53516688942E+01  0.19037419079E+01  0.57050758877E+01  0.51100000000E-03 0.  1.
         12    1    3    3    0    0 -0.35453487017E+01 -0.21952675407E+01  0.38823416907E+02  0.39046720699E+02  0.00000000000E+00 0. -1.
</event>
<event>
 7    1  0.2339217E-009  0.4778726E+02  0.7816164E-02  0.1312668E+00
        -11   -1    0    0    0    0  0.00000000000E+00  0.00000000000E+00  0.45593999997E+02  0.45594000000E+02  0.51100000000E-03 0.  1.
         11   -1    0    0    0    0 -0.00000000000E+00 -0.00000000000E+00 -0.45593999997E+02  0.45594000000E+02  0.51100000000E-03 0. -1.
    9900012    2    1    2    0    0 -0.14114229487E+02  0.22587542241E+02  0.34266828393E+02  0.47787261911E+02  0.19999958359E+02 0.  0.
         12    1    1    2    0    0  0.14114229487E+02 -0.22587542241E+02 -0.34266828393E+02  0.43400738089E+02  0.00000000000E+00 0. -1.
         11    1    3    3    0    0  0.29065840157E+01  0.12083074245E+02  0.15253157566E+02  0.19675053491E+02  0.51100000000E-03 0. -1.
        -11    1    3    3    0    0 -0.55158660005E+00  0.12476196002E+01  0.31866036154E+01  0.34663013872E+01  0.51100000000E-03 0.  1.
        -12    1    3    3    0    0 -0.16469226903E+02  0.92568483955E+01  0.15827067212E+02  0.24645907034E+02  0.00000000000E+00 0.  1.
</event>
<event>
 7    1  0.2339217E-009  0.4778727E+02  0.7816164E-02  0.1312668E+00
        -11   -1    0    0    0    0  0.00000000000E+00  0.00000000000E+00  0.45593999997E+02  0.45594000000E+02  0.51100000000E-03 0.  1.
         11   -1    0    0    0    0 -0.00000000000E+00 -0.00000000000E+00 -0.45593999997E+02  0.45594000000E+02  0.51100000000E-03 0. -1.
    9900012    2    1    2    0    0 -0.65168530658E+01  0.17675725694E+02  0.39098885986E+02  0.47787268001E+02  0.19999986123E+02 0.  0.
         12    1    1    2    0    0  0.65168530658E+01 -0.17675725694E+02 -0.39098885986E+02  0.43400731999E+02  0.00000000000E+00 0. -1.
         11    1    3    3    0    0  0.13934733531E+01 -0.97149661236E+00  0.44720148351E+01  0.47837736778E+01  0.51100000000E-03 0.  1.
        -11    1    3    3    0    0  0.13001822071E+01  0.14775874080E+02  0.15682982002E+02  0.21586404364E+02  0.51100000000E-03 0. -1.
         12    1    3    3    0    0 -0.92105086260E+01  0.38713482263E+01  0.18943889149E+02  0.21417089959E+02  0.00000000000E+00 0. -1.
</event>
<event>
 7    1  0.2339217E-009  0.4778728E+02  0.7816164E-02  0.1312668E+00
        -11   -1    0    0    0    0  0.00000000000E+00  0.00000000000E+00  0.45593999997E+02  0.45594000000E+02  0.51100000000E-03 0.  1.
         11   -1    0    0    0    0 -0.00000000000E+00 -0.00000000000E+00 -0.45593999997E+02  0.45594000000E+02  0.51100000000E-03 0. -1.
    9900012    2    1    2    0    0 -0.26337770115E+02 -0.57538569104E+01  0.34012313896E+02  0.47787279954E+02  0.20000040621E+02 0.  0.
         12    1    1    2    0    0  0.26337770115E+02  0.57538569104E+01 -0.34012313896E+02  0.43400720046E+02  0.00000000000E+00 0. -1.
         11    1    3    3    0    0 -0.20916440056E+01  0.57246561911E+01  0.88360668061E+01  0.10734185578E+02  0.51100000000E-03 0. -1.
        -11    1    3    3    0    0 -0.10659665530E+02 -0.74608791945E+01  0.12468754601E+02  0.18021182789E+02  0.51100000000E-03 0.  1.
         12    1    3    3    0    0 -0.13586460579E+02 -0.40176339070E+01  0.12707492489E+02  0.19031911587E+02  0.00000000000E+00 0. -1.
</event>
<event>
 7    1  0.2339217E-009  0.4778727E+02  0.7816164E-02  0.1312668E+00
        -11   -1    0    0    0    0  0.00000000000E+00  0.00000000000E+00  0.45593999997E+02  0.45594000000E+02  0.51100000000E-03 0. -1.
         11   -1    0    0    0    0 -0.00000000000E+00 -0.00000000000E+00 -0.45593999997E+02  0.45594000000E+02  0.51100000000E-03 0.  1.
    9900012    2    1    2    0    0  0.17126714792E+02 -0.14758844975E+02 -0.37046933974E+02  0.47787272110E+02  0.20000004856E+02 0.  0.
         12    1    1    2    0    0 -0.17126714792E+02  0.14758844975E+02  0.37046933974E+02  0.43400727890E+02  0.00000000000E+00 0. -1.
         11    1    3    3    0    0  0.13051416549E+01  0.18649137510E+01 -0.36268468541E+00  0.23049595398E+01  0.51100000000E-03 0. -1.
        -11    1    3    3    0    0 -0.78648757074E+00 -0.81439921847E+01 -0.98494975200E+01  0.12804521587E+02  0.51100000000E-03 0.  1.
        -12    1    3    3    0    0  0.16608060708E+02 -0.84797665409E+01 -0.26834751769E+02  0.32677790983E+02  0.00000000000E+00 0.  1.
</event>
<event>
 7    1  0.2339217E-009  0.4778727E+02  0.7816164E-02  0.1312668E+00
        -11   -1    0    0    0    0  0.00000000000E+00  0.00000000000E+00  0.45593999997E+02  0.45594000000E+02  0.51100000000E-03 0. -1.
         11   -1    0    0    0    0 -0.00000000000E+00 -0.00000000000E+00 -0.45593999997E+02  0.45594000000E+02  0.51100000000E-03 0.  1.
    9900012    2    1    2    0    0 -0.20723989465E+02  0.30003961932E+02  0.23535118618E+02  0.47787270981E+02  0.19999999711E+02 0.  0.
         12    1    1    2    0    0  0.20723989465E+02 -0.30003961932E+02 -0.23535118618E+02  0.43400729019E+02  0.00000000000E+00 0. -1.
         11    1    3    3    0    0 -0.11251995098E+02  0.10537135309E+02  0.18184449526E+02  0.23839312470E+02  0.51100000000E-03 0. -1.
        -11    1    3    3    0    0 -0.17431027305E+01 -0.40293721787E+00 -0.46589266982E+00  0.18487351816E+01  0.51100000000E-03 0.  1.
        -12    1    3    3    0    0 -0.77288916369E+01  0.19869763841E+02  0.58165617619E+01  0.22099223330E+02  0.00000000000E+00 0.  1.
</event>
<event>
 7    1  0.2339217E-009  0.4778728E+02  0.7816164E-02  0.1312668E+00
        -11   -1    0    0    0    0  0.00000000000E+00  0.00000000000E+00  0.45593999997E+02  0.45594000000E+02  0.51100000000E-03 0. -1.
         11   -1    0    0    0    0 -0.00000000000E+00 -0.00000000000E+00 -0.45593999997E+02  0.45594000000E+02  0.51100000000E-03 0.  1.
    9900012    2    1    2    0    0  0.35312363426E+02 -0.24823968776E+02  0.45199718716E+01  0.47787279013E+02  0.20000036331E+02 0.  0.
         12    1    1    2    0    0 -0.35312363426E+02  0.24823968776E+02 -0.45199718716E+01  0.43400720987E+02  0.00000000000E+00 0. -1.
         11    1    3    3    0    0  0.39584192240E+01 -0.50996920945E+01 -0.33921379019E+01  0.72926361502E+01  0.51100000000E-03 0. -1.
        -11    1    3    3    0    0  0.69036096525E+01 -0.33742511649E+01 -0.41159663473E+01  0.87170279564E+01  0.51100000000E-03 0.  1.
        -12    1    3    3    0    0  0.24450334549E+02 -0.16350025517E+02  0.12028076121E+02  0.31777614906E+02  0.00000000000E+00 0.  1.
</event>
<event>
 7    1  0.2339217E-009  0.4778728E+02  0.7816164E-02  0.1312668E+00
        -11   -1    0    0    0    0  0.00000000000E+00  0.00000000000E+00  0.45593999997E+02  0.45594000000E+02  0.51100000000E-03 0.  1.
         11   -1    0    0    0    0 -0.00000000000E+00 -0.00000000000E+00 -0.45593999997E+02  0.45594000000E+02  0.51100000000E-03 0. -1.
    9900012    2    1    2    0    0  0.24659124981E+02  0.33331980348E+02  0.12826886979E+02  0.47787281246E+02  0.20000046514E+02 0.  0.
         12    1    1    2    0    0 -0.24659124981E+02 -0.33331980348E+02 -0.12826886979E+02  0.43400718754E+02  0.00000000000E+00 0. -1.
         11    1    3    3    0    0 -0.35587716245E+00 -0.18751947464E+01  0.16286896431E+01  0.25091102220E+01  0.51100000000E-03 0. -1.
        -11    1    3    3    0    0  0.82979220804E+01  0.70844889816E+01  0.76014109317E+00  0.10937244156E+02  0.51100000000E-03 0.  1.
         12    1    3    3    0    0  0.16717080063E+02  0.28122686113E+02  0.10438056243E+02  0.34340926868E+02  0.00000000000E+00 0. -1.
</event>
<event>
 7    1  0.2339217E-009  0.4778727E+02  0.7816164E-02  0.1312668E+00
        -11   -1    0    0    0    0  0.00000000000E+00  0.00000000000E+00  0.45593999997E+02  0.45594000000E+02  0.51100000000E-03 0.  1.
         11   -1    0    0    0    0 -0.00000000000E+00 -0.00000000000E+00 -0.45593999997E+02  0.45594000000E+02  0.51100000000E-03 0. -1.
    9900012    2    1    2    0    0  0.76695163859E-02 -0.26087162166E+02  0.34685487485E+02  0.47787272694E+02  0.20000007519E+02 0.  0.
         12    1    1    2    0    0 -0.76695163859E-02  0.26087162166E+02 -0.34685487485E+02  0.43400727306E+02  0.00000000000E+00 0. -1.
         11    1    3    3    0    0 -0.25248509344E+01 -0.40659283199E+01  0.26302278046E+01  0.54612035220E+01  0.51100000000E-03 0. -1.
        -11    1    3    3    0    0 -0.15820256233E+01 -0.47262608220E+01 -0.72399895843E+00  0.50363202026E+01  0.51100000000E-03 0.  1.
        -12    1    3    3    0    0  0.41145460741E+01 -0.17294973024E+02  0.32779258638E+02  0.37289748969E+02  0.00000000000E+00 0.  1.
</event>
<event>
 7    1  0.2339217E-009  0.4778725E+02  0.7816164E-02  0.1312668E+00
        -11   -1    0    0    0    0  0.00000000000E+00  0.00000000000E+00  0.45593999997E+02  0.45594000000E+02  0.51100000000E-03 0. -1.
         11   -1    0    0    0    0 -0.00000000000E+00 -0.00000000000E+00 -0.45593999997E+02  0.45594000000E+02  0.51100000000E-03 0.  1.
    9900012    2    1    2    0    0 -0.16114737846E+02  0.30156823914E+02 -0.26730257432E+02  0.47787245781E+02  0.19999884812E+02 0.  0.
         12    1    1    2    0    0  0.16114737846E+02 -0.30156823914E+02  0.26730257432E+02  0.43400754219E+02  0.00000000000E+00 0. -1.
         11    1    3    3    0    0  0.33807579746E-01  0.12939073075E+02 -0.59519230618E+01  0.14242406517E+02  0.51100000000E-03 0. -1.
        -11    1    3    3    0    0 -0.19839661975E+00  0.47107289051E+00  0.14071756284E+01  0.14971353971E+01  0.51100000000E-03 0.  1.
        -12    1    3    3    0    0 -0.15950148806E+02  0.16746677949E+02 -0.22185509999E+02  0.32047703867E+02  0.00000000000E+00 0.  1.
</event>
<event>
 7    1  0.2339217E-009  0.4778727E+02  0.7816164E-02  0.1312668E+00
        -11   -1    0    0    0    0  0.00000000000E+00  0.00000000000E+00  0.45593999997E+02  0.45594000000E+02  0.51100000000E-03 0. -1.
         11   -1    0    0    0    0 -0.00000000000E+00 -0.00000000000E+00 -0.45593999997E+02  0.45594000000E+02  0.51100000000E-03 0.  1.
    9900012    2    1    2    0    0 -0.34840743640E+02  0.10629388839E+02 -0.23595807666E+02  0.47787268856E+02  0.19999990020E+02 0.  0.
         12    1    1    2    0    0  0.34840743640E+02 -0.10629388839E+02  0.23595807666E+02  0.43400731144E+02  0.00000000000E+00 0. -1.
         11    1    3    3    0    0 -0.15181740432E+02 -0.73614255542E+00 -0.37914971188E+01  0.15665331119E+02  0.51100000000E-03 0. -1.
        -11    1    3    3    0    0 -0.80724220640E+01 -0.93727674248E+00 -0.86733126675E+01  0.11885656842E+02  0.51100000000E-03 0.  1.
         12    1    3    3    0    0 -0.11586581143E+02  0.12302808137E+02 -0.11130997880E+02  0.20236280895E+02  0.00000000000E+00 0. -1.
</event>
<event>
 7    1  0.2339217E-009  0.4778727E+02  0.7816164E-02  0.1312668E+00
        -11   -1    0    0    0    0  0.00000000000E+00  0.00000000000E+00  0.45593999997E+02  0.45594000000E+02  0.51100000000E-03 0.  1.
         11   -1    0    0    0    0 -0.00000000000E+00 -0.00000000000E+00 -0.45593999997E+02  0.45594000000E+02  0.51100000000E-03 0. -1.
    9900012    2    1    2    0    0  0.16828922354E+02  0.29447644198E+02  0.27078528461E+02  0.47787273278E+02  0.20000010182E+02 0.  0.
         12    1    1    2    0    0 -0.16828922354E+02 -0.29447644198E+02 -0.27078528461E+02  0.43400726722E+02  0.00000000000E+00 0. -1.
         11    1    3    3    0    0  0.71267780377E+01  0.12314476811E+02  0.49283129022E+01  0.15057409228E+02  0.51100000000E-03 0. -1.
        -11    1    3    3    0    0  0.11984102986E+02  0.13979907907E+02  0.12314098436E+02  0.22151604232E+02  0.51100000000E-03 0.  1.
         12    1    3    3    0    0 -0.22819586701E+01  0.31532594797E+01  0.98361171235E+01  0.10578259818E+02  0.00000000000E+00 0. -1.
</event>
<event>
 7    1  0.3003559E-009  0.4778727E+02  0.7816164E-02  0.1312668E+00
        -11   -1    0    0    0    0  0.00000000000E+00  0.00000000000E+00  0.45593999997E+02  0.45594000000E+02  0.51100000000E-03 0.  1.
         11   -1    0    0    0    0 -0.00000000000E+00 -0.00000000000E+00 -0.45593999997E+02  0.45594000000E+02  0.51100000000E-03 0. -1.
    9900012    2    1    2    0    0  0.42783747649E+02  0.90643826339E+00  0.72354957253E+01  0.47787273144E+02  0.20000009575E+02 0.  0.
         12    1    1    2    0    0 -0.42783747649E+02 -0.90643826339E+00 -0.72354957253E+01  0.43400726856E+02  0.00000000000E+00 0. -1.
         11    1    3    3    0    0  0.18262974808E+01  0.35298086464E+01  0.29311648052E+01  0.49382829956E+01  0.51100000000E-03 0. -1.
        -11    1    3    3    0    0  0.16455646106E+02  0.27633562570E+01 -0.24591804003E+01  0.16866297610E+02  0.51100000000E-03 0.  1.
        -12    1    3    3    0    0  0.24501804062E+02 -0.53867266400E+01  0.67635113204E+01  0.25982692539E+02  0.00000000000E+00 0.  1.
</event>
<event>
 7    1  0.2339217E-009  0.4778727E+02  0.7816164E-02  0.1312668E+00
        -11   -1    0    0    0    0  0.00000000000E+00  0.00000000000E+00  0.45593999997E+02  0.45594000000E+02  0.51100000000E-03 0.  1.
         11   -1    0    0    0    0 -0.00000000000E+00 -0.00000000000E+00 -0.45593999997E+02  0.45594000000E+02  0.51100000000E-03 0. -1.
    9900012    2    1    2    0    0  0.62333916646E+00 -0.39378160923E+02  0.18237192054E+02  0.47787270935E+02  0.19999999499E+02 0.  0.
         12    1    1    2    0    0 -0.62333916646E+00  0.39378160923E+02 -0.18237192054E+02  0.43400729065E+02  0.00000000000E+00 0. -1.
         11    1    3    3    0    0  0.41152406849E+01 -0.12374032732E+02  0.26714623260E+01  0.13311220950E+02  0.51100000000E-03 0. -1.
        -11    1    3    3    0    0 -0.83754092218E+00 -0.25836126597E+02  0.17292935421E+02  0.31100683723E+02  0.51100000000E-03 0.  1.
         12    1    3    3    0    0 -0.26543605962E+01 -0.11680015938E+01 -0.17272056922E+01  0.33753662618E+01  0.00000000000E+00 0. -1.
</event>
<event>
 7    1  0.2339217E-009  0.4778727E+02  0.7816164E-02  0.1312668E+00
        -11   -1    0    0    0    0  0.00000000000E+00  0.00000000000E+00  0.45593999997E+02  0.45594000000E+02  0.51100000000E-03 0. -1.
         11   -1    0    0    0    0 -0.00000000000E+00 -0.00000000000E+00 -0.45593999997E+02  0.45594000000E+02  0.51100000000E-03 0.  1.
    9900012    2    1    2    0    0 -0.58333230418E+01  0.35594363597E+02 -0.24137873202E+02  0.47787270740E+02  0.19999998611E+02 0.  0.
         12    1    1    2    0    0  0.58333230418E+01 -0.35594363597E+02  0.24137873202E+02  0.43400729260E+02  0.00000000000E+00 0. -1.
         11    1    3    3    0    0 -0.74514305863E+01  0.30797439463E+01 -0.64434995093E+01  0.10321207620E+02  0.51100000000E-03 0. -1.
        -11    1    3    3    0    0 -0.15452561288E+01  0.10485508789E+02 -0.75199911858E+01  0.12995536879E+02  0.51100000000E-03 0.  1.
         12    1    3    3    0    0  0.31633636734E+01  0.22029110862E+02 -0.10174382507E+02  0.24470526241E+02  0.00000000000E+00 0. -1.
</event>
<event>
 7    1  0.2339217E-009  0.4778727E+02  0.7816164E-02  0.1312668E+00
        -11   -1    0    0    0    0  0.00000000000E+00  0.00000000000E+00  0.45593999997E+02  0.45594000000E+02  0.51100000000E-03 0.  1.
         11   -1    0    0    0    0 -0.00000000000E+00 -0.00000000000E+00 -0.45593999997E+02  0.45594000000E+02  0.51100000000E-03 0. -1.
    9900012    2    1    2    0    0 -0.40456067310E+02  0.89562486351E+01  0.12911823260E+02  0.47787274756E+02  0.20000016922E+02 0.  0.
         12    1    1    2    0    0  0.40456067310E+02 -0.89562486351E+01 -0.12911823260E+02  0.43400725244E+02  0.00000000000E+00 0. -1.
         11    1    3    3    0    0 -0.13053443959E+01 -0.77514486399E+00  0.20638894568E+01  0.25621111419E+01  0.51100000000E-03 0. -1.
        -11    1    3    3    0    0 -0.39057238395E+02  0.90949715689E+01  0.62546174316E+01  0.40587025246E+02  0.51100000000E-03 0.  1.
        -12    1    3    3    0    0 -0.93484519622E-01  0.63642193021E+00  0.45933163719E+01  0.46381383680E+01  0.00000000000E+00 0.  1.
</event>
<event>
 7    1  0.2339217E-009  0.4778727E+02  0.7816164E-02  0.1312668E+00
        -11   -1    0    0    0    0  0.00000000000E+00  0.00000000000E+00  0.45593999997E+02  0.45594000000E+02  0.51100000000E-03 0.  1.
         11   -1    0    0    0    0 -0.00000000000E+00 -0.00000000000E+00 -0.45593999997E+02  0.45594000000E+02  0.51100000000E-03 0. -1.
    9900012    2    1    2    0    0  0.33549191430E+02  0.25974819689E+02  0.91314857621E+01  0.47787268028E+02  0.19999986245E+02 0.  0.
         12    1    1    2    0    0 -0.33549191430E+02 -0.25974819689E+02 -0.91314857621E+01  0.43400731972E+02  0.00000000000E+00 0. -1.
         11    1    3    3    0    0  0.24318473132E+02  0.22029906967E+02  0.62764016260E+01  0.33408055227E+02  0.51100000000E-03 0. -1.
        -11    1    3    3    0    0  0.67630540320E+01  0.72835759366E+01  0.21241435924E+01  0.10163727885E+02  0.51100000000E-03 0.  1.
        -12    1    3    3    0    0  0.24676642662E+01 -0.33386632144E+01  0.73094054381E+00  0.42154849150E+01  0.00000000000E+00 0.  1.
</event>
<event>
 7    1  0.2339217E-009  0.4778727E+02  0.7816164E-02  0.1312668E+00
        -11   -1    0    0    0    0  0.00000000000E+00  0.00000000000E+00  0.45593999997E+02  0.45594000000E+02  0.51100000000E-03 0.  1.
         11   -1    0    0    0    0 -0.00000000000E+00 -0.00000000000E+00 -0.45593999997E+02  0.45594000000E+02  0.51100000000E-03 0. -1.
    9900012    2    1    2    0    0 -0.43054298706E+02 -0.73086673360E+00  0.54236956990E+01  0.47787270994E+02  0.19999999769E+02 0.  0.
         12    1    1    2    0    0  0.43054298706E+02  0.73086673360E+00 -0.54236956990E+01  0.43400729006E+02  0.00000000000E+00 0. -1.
         11    1    3    3    0    0 -0.13126210268E+02 -0.88801761412E+01  0.19997508074E+01  0.15973538364E+02  0.51100000000E-03 0. -1.
        -11    1    3    3    0    0 -0.62993872047E+01  0.19981151381E+01 -0.17903900029E+01  0.68469146251E+01  0.51100000000E-03 0.  1.
        -12    1    3    3    0    0 -0.23628701233E+02  0.61511942695E+01  0.52143348945E+01  0.24966818005E+02  0.00000000000E+00 0.  1.
</event>
<event>
 7    1  0.2339217E-009  0.4778727E+02  0.7816164E-02  0.1312668E+00
        -11   -1    0    0    0    0  0.00000000000E+00  0.00000000000E+00  0.45593999997E+02  0.45594000000E+02  0.51100000000E-03 0.  1.
         11   -1    0    0    0    0 -0.00000000000E+00 -0.00000000000E+00 -0.45593999997E+02  0.45594000000E+02  0.51100000000E-03 0. -1.
    9900012    2    1    2    0    0  0.19854716922E+02 -0.34150066012E+02  0.17977397281E+02  0.47787267222E+02  0.19999982572E+02 0.  0.
         12    1    1    2    0    0 -0.19854716922E+02  0.34150066012E+02 -0.17977397281E+02  0.43400732778E+02  0.00000000000E+00 0. -1.
         11    1    3    3    0    0  0.11868927682E+00 -0.29457501062E+00  0.16340096839E+01  0.16645868826E+01  0.51100000000E-03 0. -1.
        -11    1    3    3    0    0  0.20651971007E+01 -0.21111740169E+02  0.98573602928E+01  0.23390984679E+02  0.51100000000E-03 0.  1.
        -12    1    3    3    0    0  0.17670830545E+02 -0.12743750832E+02  0.64860273041E+01  0.22731695660E+02  0.00000000000E+00 0.  1.
</event>
<event>
 7    1  0.2339217E-009  0.4778727E+02  0.7816164E-02  0.1312668E+00
        -11   -1    0    0    0    0  0.00000000000E+00  0.00000000000E+00  0.45593999997E+02  0.45594000000E+02  0.51100000000E-03 0.  1.
         11   -1    0    0    0    0 -0.00000000000E+00 -0.00000000000E+00 -0.45593999997E+02  0.45594000000E+02  0.51100000000E-03 0. -1.
    9900012    2    1    2    0    0 -0.24810663876E+02 -0.23053801793E+02  0.27139942774E+02  0.47787270595E+02  0.19999997949E+02 0.  0.
         12    1    1    2    0    0  0.24810663876E+02  0.23053801793E+02 -0.27139942774E+02  0.43400729405E+02  0.00000000000E+00 0. -1.
         11    1    3    3    0    0 -0.56150219550E+01 -0.58988578558E+01  0.38980859402E+01  0.90288465385E+01  0.51100000000E-03 0. -1.
        -11    1    3    3    0    0 -0.15843837073E+02 -0.10098471029E+02  0.58264690311E+01  0.19671147195E+02  0.51100000000E-03 0.  1.
         12    1    3    3    0    0 -0.33518048484E+01 -0.70564729088E+01  0.17415387803E+02  0.19087276862E+02  0.00000000000E+00 0. -1.
</event>
<event>
 7    1  0.2339217E-009  0.4778727E+02  0.7816164E-02  0.1312668E+00
        -11   -1    0    0    0    0  0.00000000000E+00  0.00000000000E+00  0.45593999997E+02  0.45594000000E+02  0.51100000000E-03 0.  1.
         11   -1    0    0    0    0 -0.00000000000E+00 -0.00000000000E+00 -0.45593999997E+02  0.45594000000E+02  0.51100000000E-03 0. -1.
    9900012    2    1    2    0    0 -0.98033053722E+01 -0.41302094233E+02  0.90363440154E+01  0.47787270773E+02  0.19999998763E+02 0.  0.
         12    1    1    2    0    0  0.98033053722E+01  0.41302094233E+02 -0.90363440154E+01  0.43400729227E+02  0.00000000000E+00 0. -1.
         11    1    3    3    0    0  0.26367472002E+01 -0.10817136270E+02  0.23475176990E+01  0.11378651612E+02  0.51100000000E-03 0. -1.
        -11    1    3    3    0    0 -0.23665547848E+01 -0.86040504330E+01  0.84057304673E+01  0.12259142317E+02  0.51100000000E-03 0.  1.
        -12    1    3    3    0    0 -0.10073497788E+02 -0.21880907530E+02 -0.17169041509E+01  0.24149476844E+02  0.00000000000E+00 0.  1.
</event>
<event>
 7    1  0.2339217E-009  0.4778727E+02  0.7816164E-02  0.1312668E+00
        -11   -1    0    0    0    0  0.00000000000E+00  0.00000000000E+00  0.45593999997E+02  0.45594000000E+02  0.51100000000E-03 0.  1.
         11   -1    0    0    0    0 -0.00000000000E+00 -0.00000000000E+00 -0.45593999997E+02  0.45594000000E+02  0.51100000000E-03 0. -1.
    9900012    2    1    2    0    0  0.11037335694E+02 -0.41763526849E+02 -0.41962322332E+01  0.47787270524E+02  0.19999997627E+02 0.  0.
         12    1    1    2    0    0 -0.11037335694E+02  0.41763526849E+02  0.41962322332E+01  0.43400729476E+02  0.00000000000E+00 0. -1.
         11    1    3    3    0    0  0.68020126330E+00 -0.24617033544E+01  0.32154655478E+01  0.41063214820E+01  0.51100000000E-03 0. -1.
        -11    1    3    3    0    0  0.54996550851E+01 -0.31224204329E+01  0.44907061148E+00  0.63401403841E+01  0.51100000000E-03 0.  1.
        -12    1    3    3    0    0  0.48574793455E+01 -0.36179403062E+02 -0.78607683925E+01  0.37340808658E+02  0.00000000000E+00 0.  1.
</event>
<event>
 7    1  0.2339217E-009  0.4778726E+02  0.7816164E-02  0.1312668E+00
        -11   -1    0    0    0    0  0.00000000000E+00  0.00000000000E+00  0.45593999997E+02  0.45594000000E+02  0.51100000000E-03 0.  1.
         11   -1    0    0    0    0 -0.00000000000E+00 -0.00000000000E+00 -0.45593999997E+02  0.45594000000E+02  0.51100000000E-03 0. -1.
    9900012    2    1    2    0    0  0.12268593406E+02 -0.42192840134E+01  0.41416223190E+02  0.47787259395E+02  0.19999946884E+02 0.  0.
         12    1    1    2    0    0 -0.12268593406E+02  0.42192840134E+01 -0.41416223190E+02  0.43400740605E+02  0.00000000000E+00 0. -1.
         11    1    3    3    0    0  0.62833293220E+01  0.14101599375E+01  0.86418290137E+01  0.10777290354E+02  0.51100000000E-03 0. -1.
        -11    1    3    3    0    0  0.10623871592E+02 -0.10564536297E+01  0.20058574279E+02  0.22722877112E+02  0.51100000000E-03 0.  1.
        -12    1    3    3    0    0 -0.46386075084E+01 -0.45729903211E+01  0.12715819898E+02  0.14287091928E+02  0.00000000000E+00 0.  1.
</event>
<event>
 7    1  0.2339217E-009  0.4778727E+02  0.7816164E-02  0.1312668E+00
        -11   -1    0    0    0    0  0.00000000000E+00  0.00000000000E+00  0.45593999997E+02  0.45594000000E+02  0.51100000000E-03 0.  1.
         11   -1    0    0    0    0 -0.00000000000E+00 -0.00000000000E+00 -0.45593999997E+02  0.45594000000E+02  0.51100000000E-03 0. -1.
    9900012    2    1    2    0    0 -0.12576129730E+02  0.36405496721E+02  0.20002605468E+02  0.47787268946E+02  0.19999990433E+02 0.  0.
         12    1    1    2    0    0  0.12576129730E+02 -0.36405496721E+02 -0.20002605468E+02  0.43400731054E+02  0.00000000000E+00 0. -1.
         11    1    3    3    0    0 -0.20593856829E+01  0.41422267159E+01  0.64795394692E+01  0.79613782444E+01  0.51100000000E-03 0. -1.
        -11    1    3    3    0    0 -0.48147629657E+01  0.15470155282E+02  0.14934416237E+02  0.22035072849E+02  0.51100000000E-03 0.  1.
         12    1    3    3    0    0 -0.57019810810E+01  0.16793114724E+02 -0.14113502386E+01  0.17790817853E+02  0.00000000000E+00 0. -1.
</event>
<event>
 7    1  0.2339217E-009  0.4778727E+02  0.7816164E-02  0.1312668E+00
        -11   -1    0    0    0    0  0.00000000000E+00  0.00000000000E+00  0.45593999997E+02  0.45594000000E+02  0.51100000000E-03 0.  1.
         11   -1    0    0    0    0 -0.00000000000E+00 -0.00000000000E+00 -0.45593999997E+02  0.45594000000E+02  0.51100000000E-03 0. -1.
    9900012    2    1    2    0    0  0.14374547866E+01  0.21857567098E+02  0.37467369187E+02  0.47787271095E+02  0.20000000230E+02 0.  0.
         12    1    1    2    0    0 -0.14374547866E+01 -0.21857567098E+02 -0.37467369187E+02  0.43400728905E+02  0.00000000000E+00 0. -1.
         11    1    3    3    0    0  0.35679435169E+01  0.11098318277E+02  0.21684652068E+02  0.24619647136E+02  0.51100000000E-03 0.  1.
        -11    1    3    3    0    0 -0.70464072334E+01  0.43376930258E+01  0.11025124428E+02  0.13784803393E+02  0.51100000000E-03 0. -1.
         12    1    3    3    0    0  0.49159185031E+01  0.64215557951E+01  0.47575926913E+01  0.93828205660E+01  0.00000000000E+00 0. -1.
</event>
<event>
 7    1  0.2339217E-009  0.4778726E+02  0.7816164E-02  0.1312668E+00
        -11   -1    0    0    0    0  0.00000000000E+00  0.00000000000E+00  0.45593999997E+02  0.45594000000E+02  0.51100000000E-03 0.  1.
         11   -1    0    0    0    0 -0.00000000000E+00 -0.00000000000E+00 -0.45593999997E+02  0.45594000000E+02  0.51100000000E-03 0. -1.
    9900012    2    1    2    0    0  0.19417082245E+01 -0.37023007353E+02  0.22564374004E+02  0.47787259471E+02  0.19999947231E+02 0.  0.
         12    1    1    2    0    0 -0.19417082245E+01  0.37023007353E+02 -0.22564374004E+02  0.43400740529E+02  0.00000000000E+00 0. -1.
         11    1    3    3    0    0  0.21088396105E+01 -0.20905058849E+01 -0.15386024417E+01  0.33443560057E+01  0.51100000000E-03 0. -1.
        -11    1    3    3    0    0 -0.19300558703E+01 -0.52024602493E+01 -0.81867016166E+00  0.56090043148E+01  0.51100000000E-03 0.  1.
        -12    1    3    3    0    0  0.17629244842E+01 -0.29730041218E+02  0.24921646608E+02  0.38833899150E+02  0.00000000000E+00 0.  1.
</event>
<event>
 7    1  0.2339217E-009  0.4778727E+02  0.7816164E-02  0.1312668E+00
        -11   -1    0    0    0    0  0.00000000000E+00  0.00000000000E+00  0.45593999997E+02  0.45594000000E+02  0.51100000000E-03 0.  1.
         11   -1    0    0    0    0 -0.00000000000E+00 -0.00000000000E+00 -0.45593999997E+02  0.45594000000E+02  0.51100000000E-03 0. -1.
    9900012    2    1    2    0    0  0.30913280017E+02 -0.10573721903E+02  0.28569015143E+02  0.47787273018E+02  0.20000009000E+02 0.  0.
         12    1    1    2    0    0 -0.30913280017E+02  0.10573721903E+02 -0.28569015143E+02  0.43400726982E+02  0.00000000000E+00 0. -1.
         11    1    3    3    0    0  0.39061888889E+01 -0.67798762856E+01  0.95438304749E+01  0.12341383005E+02  0.51100000000E-03 0. -1.
        -11    1    3    3    0    0  0.43259005061E+01 -0.15478009995E+01  0.98639835974E+01  0.10881510731E+02  0.51100000000E-03 0.  1.
        -12    1    3    3    0    0  0.22681190622E+02 -0.22460446184E+01  0.91612010707E+01  0.24564379282E+02  0.00000000000E+00 0.  1.
</event>
<event>
 7    1  0.2339217E-009  0.4778727E+02  0.7816164E-02  0.1312668E+00
        -11   -1    0    0    0    0  0.00000000000E+00  0.00000000000E+00  0.45593999997E+02  0.45594000000E+02  0.51100000000E-03 0. -1.
         11   -1    0    0    0    0 -0.00000000000E+00 -0.00000000000E+00 -0.45593999997E+02  0.45594000000E+02  0.51100000000E-03 0.  1.
    9900012    2    1    2    0    0 -0.61248407063E+01  0.25272442725E+02 -0.34747850391E+02  0.47787272567E+02  0.20000006940E+02 0.  0.
         12    1    1    2    0    0  0.61248407063E+01 -0.25272442725E+02  0.34747850391E+02  0.43400727433E+02  0.00000000000E+00 0. -1.
         11    1    3    3    0    0 -0.12158106308E+01  0.47375921672E+00  0.56779244377E+00  0.14230361224E+01  0.51100000000E-03 0. -1.
        -11    1    3    3    0    0 -0.59849608277E+01  0.14629607340E+02 -0.31868322090E+02  0.35572954898E+02  0.51100000000E-03 0.  1.
         12    1    3    3    0    0  0.10759307522E+01  0.10169076168E+02 -0.34473207443E+01  0.10791281547E+02  0.00000000000E+00 0. -1.
</event>
<event>
 7    1  0.2339217E-009  0.4778728E+02  0.7816164E-02  0.1312668E+00
        -11   -1    0    0    0    0  0.00000000000E+00  0.00000000000E+00  0.45593999997E+02  0.45594000000E+02  0.51100000000E-03 0.  1.
         11   -1    0    0    0    0 -0.00000000000E+00 -0.00000000000E+00 -0.45593999997E+02  0.45594000000E+02  0.51100000000E-03 0. -1.
    9900012    2    1    2    0    0  0.17443290773E+02  0.38166484599E+02  0.11075802587E+02  0.47787281774E+02  0.20000048920E+02 0.  0.
         12    1    1    2    0    0 -0.17443290773E+02 -0.38166484599E+02 -0.11075802587E+02  0.43400718226E+02  0.00000000000E+00 0. -1.
         11    1    3    3    0    0  0.15395700314E+02  0.19485381256E+02  0.23380585557E+01  0.24943419752E+02  0.51100000000E-03 0. -1.
        -11    1    3    3    0    0  0.33639589145E+00 -0.55678100732E+00 -0.10163476761E+01  0.12067021777E+01  0.51100000000E-03 0.  1.
        -12    1    3    3    0    0  0.17111945675E+01  0.19237884350E+02  0.97540917071E+01  0.21637159845E+02  0.00000000000E+00 0.  1.
</event>
<event>
 7    1  0.2339217E-009  0.4778728E+02  0.7816164E-02  0.1312668E+00
        -11   -1    0    0    0    0  0.00000000000E+00  0.00000000000E+00  0.45593999997E+02  0.45594000000E+02  0.51100000000E-03 0.  1.
         11   -1    0    0    0    0 -0.00000000000E+00 -0.00000000000E+00 -0.45593999997E+02  0.45594000000E+02  0.51100000000E-03 0. -1.
    9900012    2    1    2    0    0 -0.41581768471E+02  0.12400301799E+02  0.90079409638E+00  0.47787281298E+02  0.20000046748E+02 0.  0.
         12    1    1    2    0    0  0.41581768471E+02 -0.12400301799E+02 -0.90079409638E+00  0.43400718702E+02  0.00000000000E+00 0. -1.
         11    1    3    3    0    0 -0.19661443691E+02  0.10246765004E+02 -0.15606516348E+01  0.22226205138E+02  0.51100000000E-03 0.  1.
        -11    1    3    3    0    0 -0.67141286039E-01  0.30879965005E+01  0.20064040781E+01  0.36831899116E+01  0.51100000000E-03 0. -1.
        -12    1    3    3    0    0 -0.21853183494E+02 -0.93445970550E+00  0.45504165312E+00  0.21877886248E+02  0.00000000000E+00 0.  1.
</event>
<event>
 7    1  0.2339217E-009  0.4778729E+02  0.7816164E-02  0.1312668E+00
        -11   -1    0    0    0    0  0.00000000000E+00  0.00000000000E+00  0.45593999997E+02  0.45594000000E+02  0.51100000000E-03 0.  1.
         11   -1    0    0    0    0 -0.00000000000E+00 -0.00000000000E+00 -0.45593999997E+02  0.45594000000E+02  0.51100000000E-03 0. -1.
    9900012    2    1    2    0    0  0.11051211588E+02  0.39815734034E+02  0.13274037905E+02  0.47787285299E+02  0.20000064993E+02 0.  0.
         12    1    1    2    0    0 -0.11051211588E+02 -0.39815734034E+02 -0.13274037905E+02  0.43400714701E+02  0.00000000000E+00 0. -1.
         11    1    3    3    0    0 -0.89083586546E+00 -0.34012623228E+00  0.18683059570E+01  0.20975799873E+01  0.51100000000E-03 0. -1.
        -11    1    3    3    0    0  0.16035964367E+01  0.23595166298E+02  0.11195706198E+02  0.26165764496E+02  0.51100000000E-03 0.  1.
         12    1    3    3    0    0  0.10338451017E+02  0.16560693969E+02  0.21002575000E+00  0.19523940816E+02  0.00000000000E+00 0. -1.
</event>
<event>
 7    1  0.2339217E-009  0.4778727E+02  0.7816164E-02  0.1312668E+00
        -11   -1    0    0    0    0  0.00000000000E+00  0.00000000000E+00  0.45593999997E+02  0.45594000000E+02  0.51100000000E-03 0.  1.
         11   -1    0    0    0    0 -0.00000000000E+00 -0.00000000000E+00 -0.45593999997E+02  0.45594000000E+02  0.51100000000E-03 0. -1.
    9900012    2    1    2    0    0  0.14380953324E+02 -0.40649989354E+02 -0.49385784113E+01  0.47787274088E+02  0.20000013877E+02 0.  0.
         12    1    1    2    0    0 -0.14380953324E+02  0.40649989354E+02  0.49385784113E+01  0.43400725912E+02  0.00000000000E+00 0. -1.
         11    1    3    3    0    0  0.32192245389E+01 -0.42689392197E+01  0.38059733991E+01  0.65629781707E+01  0.51100000000E-03 0. -1.
        -11    1    3    3    0    0  0.59459960798E+01 -0.13631308160E+02  0.28826679695E+01  0.15148505089E+02  0.51100000000E-03 0.  1.
         12    1    3    3    0    0  0.52157327050E+01 -0.22749741974E+02 -0.11627219780E+02  0.26075790829E+02  0.00000000000E+00 0. -1.
</event>
<event>
 7    1  0.2339217E-009  0.4778729E+02  0.7816164E-02  0.1312668E+00
        -11   -1    0    0    0    0  0.00000000000E+00  0.00000000000E+00  0.45593999997E+02  0.45594000000E+02  0.51100000000E-03 0.  1.
         11   -1    0    0    0    0 -0.00000000000E+00 -0.00000000000E+00 -0.45593999997E+02  0.45594000000E+02  0.51100000000E-03 0. -1.
    9900012    2    1    2    0    0  0.33537671389E+02  0.13951827794E+02  0.23752740968E+02  0.47787290277E+02  0.20000087689E+02 0.  0.
         12    1    1    2    0    0 -0.33537671389E+02 -0.13951827794E+02 -0.23752740968E+02  0.43400709723E+02  0.00000000000E+00 0. -1.
         11    1    3    3    0    0  0.85591638340E+01  0.44143850432E+01  0.28173340171E+01  0.10034114414E+02  0.51100000000E-03 0. -1.
        -11    1    3    3    0    0  0.63439491684E+01 -0.43975940902E+01  0.26563344593E+01  0.81633717210E+01  0.51100000000E-03 0.  1.
         12    1    3    3    0    0  0.18634558386E+02  0.13935036841E+02  0.18279072491E+02  0.29589804142E+02  0.00000000000E+00 0. -1.
</event>
<event>
 7    1  0.2339217E-009  0.4778726E+02  0.7816164E-02  0.1312668E+00
        -11   -1    0    0    0    0  0.00000000000E+00  0.00000000000E+00  0.45593999997E+02  0.45594000000E+02  0.51100000000E-03 0.  1.
         11   -1    0    0    0    0 -0.00000000000E+00 -0.00000000000E+00 -0.45593999997E+02  0.45594000000E+02  0.51100000000E-03 0. -1.
    9900012    2    1    2    0    0 -0.43255904367E+01 -0.57735792775E+01  0.42796954595E+02  0.47787259535E+02  0.19999947522E+02 0.  0.
         12    1    1    2    0    0  0.43255904367E+01  0.57735792775E+01 -0.42796954595E+02  0.43400740465E+02  0.00000000000E+00 0. -1.
         11    1    3    3    0    0  0.43278663293E+01  0.16747528147E+01  0.96525753257E+01  0.10710155677E+02  0.51100000000E-03 0. -1.
        -11    1    3    3    0    0 -0.26097257709E+01 -0.34250515805E+01  0.14223810566E+01  0.45348445464E+01  0.51100000000E-03 0.  1.
        -12    1    3    3    0    0 -0.60437309951E+01 -0.40232805117E+01  0.31721998213E+02  0.32542259311E+02  0.00000000000E+00 0.  1.
</event>
<event>
 7    1  0.2339217E-009  0.4778727E+02  0.7816164E-02  0.1312668E+00
        -11   -1    0    0    0    0  0.00000000000E+00  0.00000000000E+00  0.45593999997E+02  0.45594000000E+02  0.51100000000E-03 0. -1.
         11   -1    0    0    0    0 -0.00000000000E+00 -0.00000000000E+00 -0.45593999997E+02  0.45594000000E+02  0.51100000000E-03 0.  1.
    9900012    2    1    2    0    0  0.79478717533E+01 -0.47091254347E+01 -0.42406114518E+02  0.47787273321E+02  0.20000010379E+02 0.  0.
         12    1    1    2    0    0 -0.79478717533E+01  0.47091254347E+01  0.42406114518E+02  0.43400726679E+02  0.00000000000E+00 0. -1.
         11    1    3    3    0    0  0.19333546490E+01  0.13152809972E+01  0.94353738399E+00  0.25215248078E+01  0.51100000000E-03 0. -1.
        -11    1    3    3    0    0 -0.14309137253E+01 -0.31550970493E+01 -0.49254538001E+01  0.60218142513E+01  0.51100000000E-03 0.  1.
        -12    1    3    3    0    0  0.74454308296E+01 -0.28693093826E+01 -0.38424198102E+02  0.39243934262E+02  0.00000000000E+00 0.  1.
</event>
<event>
 7    1  0.2339217E-009  0.4778727E+02  0.7816164E-02  0.1312668E+00
        -11   -1    0    0    0    0  0.00000000000E+00  0.00000000000E+00  0.45593999997E+02  0.45594000000E+02  0.51100000000E-03 0. -1.
         11   -1    0    0    0    0 -0.00000000000E+00 -0.00000000000E+00 -0.45593999997E+02  0.45594000000E+02  0.51100000000E-03 0.  1.
    9900012    2    1    2    0    0 -0.24006915958E+02  0.35773242526E+02  0.52504042716E+01  0.47787266830E+02  0.19999980787E+02 0.  0.
         12    1    1    2    0    0  0.24006915958E+02 -0.35773242526E+02 -0.52504042716E+01  0.43400733170E+02  0.00000000000E+00 0. -1.
         11    1    3    3    0    0 -0.50539848455E+01  0.11558242275E+02  0.52297629732E+01  0.13655993128E+02  0.51100000000E-03 0. -1.
        -11    1    3    3    0    0 -0.11449643722E+02  0.23676324656E+02  0.19298141640E+01  0.26370189107E+02  0.51100000000E-03 0.  1.
        -12    1    3    3    0    0 -0.75032873908E+01  0.53867559537E+00 -0.19091728656E+01  0.77610845954E+01  0.00000000000E+00 0.  1.
</event>
<event>
 7    1  0.2339217E-009  0.4778727E+02  0.7816164E-02  0.1312668E+00
        -11   -1    0    0    0    0  0.00000000000E+00  0.00000000000E+00  0.45593999997E+02  0.45594000000E+02  0.51100000000E-03 0.  1.
         11   -1    0    0    0    0 -0.00000000000E+00 -0.00000000000E+00 -0.45593999997E+02  0.45594000000E+02  0.51100000000E-03 0. -1.
    9900012    2    1    2    0    0  0.27735667636E+02  0.33359171864E+02 -0.12335850294E+01  0.47787270298E+02  0.19999996595E+02 0.  0.
         12    1    1    2    0    0 -0.27735667636E+02 -0.33359171864E+02  0.12335850294E+01  0.43400729702E+02  0.00000000000E+00 0. -1.
         11    1    3    3    0    0  0.62175258629E+01  0.42514176772E+01 -0.29899256117E+01  0.81038161101E+01  0.51100000000E-03 0. -1.
        -11    1    3    3    0    0  0.74990823279E+01  0.48083515547E+01  0.67658021899E+01  0.11186266579E+02  0.51100000000E-03 0.  1.
        -12    1    3    3    0    0  0.14019059445E+02  0.24299402632E+02 -0.50094616076E+01  0.28497187609E+02  0.00000000000E+00 0.  1.
</event>
<event>
 7    1  0.2339217E-009  0.4778727E+02  0.7816164E-02  0.1312668E+00
        -11   -1    0    0    0    0  0.00000000000E+00  0.00000000000E+00  0.45593999997E+02  0.45594000000E+02  0.51100000000E-03 0. -1.
         11   -1    0    0    0    0 -0.00000000000E+00 -0.00000000000E+00 -0.45593999997E+02  0.45594000000E+02  0.51100000000E-03 0.  1.
    9900012    2    1    2    0    0 -0.14042386246E+02  0.40414645617E+02 -0.72863746511E+01  0.47787269046E+02  0.19999990888E+02 0.  0.
         12    1    1    2    0    0  0.14042386246E+02 -0.40414645617E+02  0.72863746511E+01  0.43400730954E+02  0.00000000000E+00 0. -1.
         11    1    3    3    0    0 -0.30732648865E+01  0.88622449152E+01 -0.57511285435E+01  0.11002718836E+02  0.51100000000E-03 0. -1.
        -11    1    3    3    0    0 -0.13705209612E+02  0.31088994903E+02 -0.13287115079E+01  0.34001821262E+02  0.51100000000E-03 0.  1.
         12    1    3    3    0    0  0.27360882520E+01  0.46340579781E+00 -0.20653459977E+00  0.27827289478E+01  0.00000000000E+00 0. -1.
</event>
<event>
 7    1  0.2339217E-009  0.4778727E+02  0.7816164E-02  0.1312668E+00
        -11   -1    0    0    0    0  0.00000000000E+00  0.00000000000E+00  0.45593999997E+02  0.45594000000E+02  0.51100000000E-03 0.  1.
         11   -1    0    0    0    0 -0.00000000000E+00 -0.00000000000E+00 -0.45593999997E+02  0.45594000000E+02  0.51100000000E-03 0. -1.
    9900012    2    1    2    0    0  0.38104857638E+02  0.20337486312E+01  0.20676242559E+02  0.47787270565E+02  0.19999997815E+02 0.  0.
         12    1    1    2    0    0 -0.38104857638E+02 -0.20337486312E+01 -0.20676242559E+02  0.43400729435E+02  0.00000000000E+00 0. -1.
         11    1    3    3    0    0  0.11504960488E+02 -0.36266109514E+01  0.10316598096E+02  0.15872889446E+02  0.51100000000E-03 0.  1.
        -11    1    3    3    0    0  0.20332637988E+02 -0.17258396895E+01  0.58395648438E+01  0.21224872391E+02  0.51100000000E-03 0. -1.
         12    1    3    3    0    0  0.62672591622E+01  0.73861992721E+01  0.45200796187E+01  0.10689508728E+02  0.00000000000E+00 0. -1.
</event>
<event>
 7    1  0.2339217E-009  0.4778727E+02  0.7816164E-02  0.1312668E+00
        -11   -1    0    0    0    0  0.00000000000E+00  0.00000000000E+00  0.45593999997E+02  0.45594000000E+02  0.51100000000E-03 0. -1.
         11   -1    0    0    0    0 -0.00000000000E+00 -0.00000000000E+00 -0.45593999997E+02  0.45594000000E+02  0.51100000000E-03 0.  1.
    9900012    2    1    2    0    0 -0.32748110884E+02  0.62946361359E+01  0.27777007500E+02  0.47787270096E+02  0.19999995676E+02 0.  0.
         12    1    1    2    0    0  0.32748110884E+02 -0.62946361359E+01 -0.27777007500E+02  0.43400729904E+02  0.00000000000E+00 0. -1.
         11    1    3    3    0    0 -0.80866694572E+01 -0.43181604505E+01  0.32070184987E+01  0.97121419110E+01  0.51100000000E-03 0. -1.
        -11    1    3    3    0    0 -0.74400555158E+01  0.55730926313E+01  0.24904019047E+01  0.96237149512E+01  0.51100000000E-03 0.  1.
         12    1    3    3    0    0 -0.17221385911E+02  0.50397039551E+01  0.22079587097E+02  0.28451413234E+02  0.00000000000E+00 0. -1.
</event>
<event>
 7    1  0.2339217E-009  0.4778727E+02  0.7816164E-02  0.1312668E+00
        -11   -1    0    0    0    0  0.00000000000E+00  0.00000000000E+00  0.45593999997E+02  0.45594000000E+02  0.51100000000E-03 0.  1.
         11   -1    0    0    0    0 -0.00000000000E+00 -0.00000000000E+00 -0.45593999997E+02  0.45594000000E+02  0.51100000000E-03 0. -1.
    9900012    2    1    2    0    0 -0.40837055349E+02  0.13969842477E+02 -0.45608719847E+01  0.47787272568E+02  0.20000006945E+02 0.  0.
         12    1    1    2    0    0  0.40837055349E+02 -0.13969842477E+02  0.45608719847E+01  0.43400727432E+02  0.00000000000E+00 0. -1.
         11    1    3    3    0    0 -0.82946537837E+01 -0.16085176789E+01 -0.46066533484E+00  0.84617269707E+01  0.51100000000E-03 0. -1.
        -11    1    3    3    0    0 -0.25208905788E+02  0.12674283102E+02  0.34265128283E+01  0.28423007821E+02  0.51100000000E-03 0.  1.
         12    1    3    3    0    0 -0.73334957772E+01  0.29040770536E+01 -0.75267194781E+01  0.10902537776E+02  0.00000000000E+00 0. -1.
</event>
<event>
 7    1  0.2339217E-009  0.4778724E+02  0.7816164E-02  0.1312668E+00
        -11   -1    0    0    0    0  0.00000000000E+00  0.00000000000E+00  0.45593999997E+02  0.45594000000E+02  0.51100000000E-03 0.  1.
         11   -1    0    0    0    0 -0.00000000000E+00 -0.00000000000E+00 -0.45593999997E+02  0.45594000000E+02  0.51100000000E-03 0. -1.
    9900012    2    1    2    0    0 -0.38596947345E+00  0.43274526337E+02  0.32852359884E+01  0.47787235287E+02  0.19999836968E+02 0.  0.
         12    1    1    2    0    0  0.38596947345E+00 -0.43274526337E+02 -0.32852359884E+01  0.43400764713E+02  0.00000000000E+00 0. -1.
         11    1    3    3    0    0 -0.62497207377E+00  0.94203668017E+01  0.20668344617E+01  0.96646627321E+01  0.51100000000E-03 0. -1.
        -11    1    3    3    0    0  0.50651800980E+01  0.30932384359E+02  0.43903326683E+01  0.31650331321E+02  0.51100000000E-03 0.  1.
         12    1    3    3    0    0 -0.48261774977E+01  0.29217751771E+01 -0.31719311416E+01  0.64722412341E+01  0.00000000000E+00 0. -1.
</event>
<event>
 7    1  0.2339217E-009  0.4778727E+02  0.7816164E-02  0.1312668E+00
        -11   -1    0    0    0    0  0.00000000000E+00  0.00000000000E+00  0.45593999997E+02  0.45594000000E+02  0.51100000000E-03 0. -1.
         11   -1    0    0    0    0 -0.00000000000E+00 -0.00000000000E+00 -0.45593999997E+02  0.45594000000E+02  0.51100000000E-03 0.  1.
    9900012    2    1    2    0    0 -0.12242789201E+02 -0.41631554101E+02 -0.74227399641E+00  0.47787272414E+02  0.20000006244E+02 0.  0.
         12    1    1    2    0    0  0.12242789201E+02  0.41631554101E+02  0.74227399641E+00  0.43400727586E+02  0.00000000000E+00 0. -1.
         11    1    3    3    0    0  0.16573994980E+01 -0.14048676487E+02  0.12642952941E+01  0.14202490168E+02  0.51100000000E-03 0. -1.
        -11    1    3    3    0    0 -0.29752977870E+01 -0.21599415968E-01  0.21172617597E+01  0.36518024421E+01  0.51100000000E-03 0.  1.
        -12    1    3    3    0    0 -0.10924890912E+02 -0.27561278198E+02 -0.41238310502E+01  0.29932979803E+02  0.00000000000E+00 0.  1.
</event>
<event>
 7    1  0.2339217E-009  0.4778727E+02  0.7816164E-02  0.1312668E+00
        -11   -1    0    0    0    0  0.00000000000E+00  0.00000000000E+00  0.45593999997E+02  0.45594000000E+02  0.51100000000E-03 0.  1.
         11   -1    0    0    0    0 -0.00000000000E+00 -0.00000000000E+00 -0.45593999997E+02  0.45594000000E+02  0.51100000000E-03 0. -1.
    9900012    2    1    2    0    0 -0.82246692592E+01  0.42814737592E+01  0.42398667983E+02  0.47787271335E+02  0.20000001323E+02 0.  0.
         12    1    1    2    0    0  0.82246692592E+01 -0.42814737592E+01 -0.42398667983E+02  0.43400728665E+02  0.00000000000E+00 0. -1.
         11    1    3    3    0    0  0.28957961462E+01 -0.31353758419E+00  0.35536577365E+01  0.45948258624E+01  0.51100000000E-03 0. -1.
        -11    1    3    3    0    0 -0.27574046637E+01 -0.38202781500E+00  0.29724934106E+02  0.29854998469E+02  0.51100000000E-03 0.  1.
         12    1    3    3    0    0 -0.83630607417E+01  0.49770391584E+01  0.91200761405E+01  0.13337447003E+02  0.00000000000E+00 0. -1.
</event>
<event>
 7    1  0.2339217E-009  0.4778727E+02  0.7816164E-02  0.1312668E+00
        -11   -1    0    0    0    0  0.00000000000E+00  0.00000000000E+00  0.45593999997E+02  0.45594000000E+02  0.51100000000E-03 0. -1.
         11   -1    0    0    0    0 -0.00000000000E+00 -0.00000000000E+00 -0.45593999997E+02  0.45594000000E+02  0.51100000000E-03 0.  1.
    9900012    2    1    2    0    0 -0.22659494820E+02 -0.18819023892E+02 -0.31874987326E+02  0.47787272094E+02  0.20000004784E+02 0.  0.
         12    1    1    2    0    0  0.22659494820E+02  0.18819023892E+02  0.31874987326E+02  0.43400727906E+02  0.00000000000E+00 0. -1.
         11    1    3    3    0    0 -0.21380916577E+02 -0.71643295636E+01 -0.24225211897E+02  0.33095801901E+02  0.51100000000E-03 0. -1.
        -11    1    3    3    0    0 -0.26016210142E+01 -0.40715054788E+01 -0.26229607655E+01  0.54977733861E+01  0.51100000000E-03 0.  1.
         12    1    3    3    0    0  0.13230427712E+01 -0.75831888497E+01 -0.50268146637E+01  0.91936968064E+01  0.00000000000E+00 0. -1.
</event>
<event>
 7    1  0.2339217E-009  0.4778727E+02  0.7816164E-02  0.1312668E+00
        -11   -1    0    0    0    0  0.00000000000E+00  0.00000000000E+00  0.45593999997E+02  0.45594000000E+02  0.51100000000E-03 0.  1.
         11   -1    0    0    0    0 -0.00000000000E+00 -0.00000000000E+00 -0.45593999997E+02  0.45594000000E+02  0.51100000000E-03 0. -1.
    9900012    2    1    2    0    0 -0.32402372471E+02  0.62123316633E+01 -0.28197808625E+02  0.47787271692E+02  0.20000002951E+02 0.  0.
         12    1    1    2    0    0  0.32402372471E+02 -0.62123316633E+01  0.28197808625E+02  0.43400728308E+02  0.00000000000E+00 0. -1.
         11    1    3    3    0    0 -0.23563817946E+01  0.13053783069E+01  0.22665625890E+00  0.27033166679E+01  0.51100000000E-03 0. -1.
        -11    1    3    3    0    0 -0.15166899641E+02  0.46003092173E+01 -0.37787413852E+01  0.16293451946E+02  0.51100000000E-03 0.  1.
         12    1    3    3    0    0 -0.14879091035E+02  0.30664413911E+00 -0.24645723499E+02  0.28790503077E+02  0.00000000000E+00 0. -1.
</event>
<event>
 7    1  0.2339217E-009  0.4778728E+02  0.7816164E-02  0.1312668E+00
        -11   -1    0    0    0    0  0.00000000000E+00  0.00000000000E+00  0.45593999997E+02  0.45594000000E+02  0.51100000000E-03 0. -1.
         11   -1    0    0    0    0 -0.00000000000E+00 -0.00000000000E+00 -0.45593999997E+02  0.45594000000E+02  0.51100000000E-03 0.  1.
    9900012    2    1    2    0    0 -0.35883592791E+02  0.20320451401E+02 -0.13530328686E+02  0.47787276837E+02  0.20000026409E+02 0.  0.
         12    1    1    2    0    0  0.35883592791E+02 -0.20320451401E+02  0.13530328686E+02  0.43400723163E+02  0.00000000000E+00 0. -1.
         11    1    3    3    0    0  0.41329064313E+00  0.21001557345E+01 -0.66334642769E-01  0.21414630071E+01  0.51100000000E-03 0. -1.
        -11    1    3    3    0    0 -0.28903073276E+02  0.65171575456E+01 -0.10882466789E+02  0.31564047126E+02  0.51100000000E-03 0.  1.
        -12    1    3    3    0    0 -0.73938101587E+01  0.11703138121E+02 -0.25815272538E+01  0.14081766704E+02  0.00000000000E+00 0.  1.
</event>
<event>
 7    1  0.2339217E-009  0.4778727E+02  0.7816164E-02  0.1312668E+00
        -11   -1    0    0    0    0  0.00000000000E+00  0.00000000000E+00  0.45593999997E+02  0.45594000000E+02  0.51100000000E-03 0.  1.
         11   -1    0    0    0    0 -0.00000000000E+00 -0.00000000000E+00 -0.45593999997E+02  0.45594000000E+02  0.51100000000E-03 0. -1.
    9900012    2    1    2    0    0 -0.15529799635E+02  0.13379848419E+02  0.38254782840E+02  0.47787269239E+02  0.19999991768E+02 0.  0.
         12    1    1    2    0    0  0.15529799635E+02 -0.13379848419E+02 -0.38254782840E+02  0.43400730761E+02  0.00000000000E+00 0. -1.
         11    1    3    3    0    0  0.12101628714E+01  0.38949929452E+00  0.79092816400E+01  0.80108014704E+01  0.51100000000E-03 0. -1.
        -11    1    3    3    0    0 -0.97072752503E+01  0.45009215979E+01  0.25653413427E+02  0.27795451224E+02  0.51100000000E-03 0.  1.
         12    1    3    3    0    0 -0.70326872566E+01  0.84894275261E+01  0.46920877731E+01  0.11981016545E+02  0.00000000000E+00 0. -1.
</event>
<event>
 7    1  0.2339217E-009  0.4778727E+02  0.7816164E-02  0.1312668E+00
        -11   -1    0    0    0    0  0.00000000000E+00  0.00000000000E+00  0.45593999997E+02  0.45594000000E+02  0.51100000000E-03 0.  1.
         11   -1    0    0    0    0 -0.00000000000E+00 -0.00000000000E+00 -0.45593999997E+02  0.45594000000E+02  0.51100000000E-03 0. -1.
    9900012    2    1    2    0    0  0.81651588184E+01 -0.29214509708E+02  0.31039743358E+02  0.47787273465E+02  0.20000011036E+02 0.  0.
         12    1    1    2    0    0 -0.81651588184E+01  0.29214509708E+02 -0.31039743358E+02  0.43400726535E+02  0.00000000000E+00 0. -1.
         11    1    3    3    0    0  0.46774100017E+01 -0.35752714054E+01  0.83117400045E+01  0.10185565871E+02  0.51100000000E-03 0.  1.
        -11    1    3    3    0    0  0.83263688876E+01 -0.22624219081E+02  0.16847249045E+02  0.29411111991E+02  0.51100000000E-03 0. -1.
         12    1    3    3    0    0 -0.48386200709E+01 -0.30150192214E+01  0.58807543085E+01  0.81905956031E+01  0.00000000000E+00 0. -1.
</event>
<event>
 7    1  0.2339217E-009  0.4778728E+02  0.7816164E-02  0.1312668E+00
        -11   -1    0    0    0    0  0.00000000000E+00  0.00000000000E+00  0.45593999997E+02  0.45594000000E+02  0.51100000000E-03 0.  1.
         11   -1    0    0    0    0 -0.00000000000E+00 -0.00000000000E+00 -0.45593999997E+02  0.45594000000E+02  0.51100000000E-03 0. -1.
    9900012    2    1    2    0    0 -0.58609422166E+01 -0.30187014912E+02  0.30627053413E+02  0.47787275193E+02  0.20000018917E+02 0.  0.
         12    1    1    2    0    0  0.58609422166E+01  0.30187014912E+02 -0.30627053413E+02  0.43400724807E+02  0.00000000000E+00 0. -1.
         11    1    3    3    0    0 -0.55294498590E+01 -0.15860153014E+02  0.56630424223E+01  0.17725386289E+02  0.51100000000E-03 0. -1.
        -11    1    3    3    0    0 -0.13879553872E+01 -0.12082455760E+02  0.12835336023E+02  0.17682138119E+02  0.51100000000E-03 0.  1.
         12    1    3    3    0    0  0.10564630296E+01 -0.22444061380E+01  0.12128674968E+02  0.12379750786E+02  0.00000000000E+00 0. -1.
</event>
<event>
 7    1  0.2339217E-009  0.4778727E+02  0.7816164E-02  0.1312668E+00
        -11   -1    0    0    0    0  0.00000000000E+00  0.00000000000E+00  0.45593999997E+02  0.45594000000E+02  0.51100000000E-03 0. -1.
         11   -1    0    0    0    0 -0.00000000000E+00 -0.00000000000E+00 -0.45593999997E+02  0.45594000000E+02  0.51100000000E-03 0.  1.
    9900012    2    1    2    0    0 -0.29739920402E+02  0.70803719105E+01 -0.30806311157E+02  0.47787270294E+02  0.19999996579E+02 0.  0.
         12    1    1    2    0    0  0.29739920402E+02 -0.70803719105E+01  0.30806311157E+02  0.43400729706E+02  0.00000000000E+00 0. -1.
         11    1    3    3    0    0 -0.62578905727E+00  0.68247693255E+00  0.21099416967E+01  0.23041790148E+01  0.51100000000E-03 0. -1.
        -11    1    3    3    0    0 -0.12317880962E+02  0.31571508918E+01 -0.72466646296E+01  0.14635981063E+02  0.51100000000E-03 0.  1.
         12    1    3    3    0    0 -0.16796250383E+02  0.32407440862E+01 -0.25669588224E+02  0.30847110217E+02  0.00000000000E+00 0. -1.
</event>
<event>
 7    1  0.2339217E-009  0.4778727E+02  0.7816164E-02  0.1312668E+00
        -11   -1    0    0    0    0  0.00000000000E+00  0.00000000000E+00  0.45593999997E+02  0.45594000000E+02  0.51100000000E-03 0.  1.
         11   -1    0    0    0    0 -0.00000000000E+00 -0.00000000000E+00 -0.45593999997E+02  0.45594000000E+02  0.51100000000E-03 0. -1.
    9900012    2    1    2    0    0 -0.87630583955E+01 -0.71736800127E+00  0.42500797897E+02  0.47787266928E+02  0.19999981231E+02 0.  0.
         12    1    1    2    0    0  0.87630583955E+01  0.71736800127E+00 -0.42500797897E+02  0.43400733072E+02  0.00000000000E+00 0. -1.
         11    1    3    3    0    0 -0.10410054663E+01  0.14933132404E+01 -0.40286693774E+00  0.18643977165E+01  0.51100000000E-03 0. -1.
        -11    1    3    3    0    0 -0.22284597356E+01  0.52445651027E+01  0.26309549416E+02  0.26919581844E+02  0.51100000000E-03 0.  1.
        -12    1    3    3    0    0 -0.54935931936E+01 -0.74552463444E+01  0.16594115419E+02  0.19003287367E+02  0.00000000000E+00 0.  1.
</event>
<event>
 7    1  0.2339217E-009  0.4778726E+02  0.7816164E-02  0.1312668E+00
        -11   -1    0    0    0    0  0.00000000000E+00  0.00000000000E+00  0.45593999997E+02  0.45594000000E+02  0.51100000000E-03 0.  1.
         11   -1    0    0    0    0 -0.00000000000E+00 -0.00000000000E+00 -0.45593999997E+02  0.45594000000E+02  0.51100000000E-03 0. -1.
    9900012    2    1    2    0    0 -0.21681197108E+02  0.36617354555E+02 -0.85275649816E+01  0.47787258910E+02  0.19999944675E+02 0.  0.
         12    1    1    2    0    0  0.21681197108E+02 -0.36617354555E+02  0.85275649816E+01  0.43400741090E+02  0.00000000000E+00 0. -1.
         11    1    3    3    0    0 -0.30563876366E+01  0.11717015725E+02 -0.10262474117E+02  0.15872880588E+02  0.51100000000E-03 0. -1.
        -11    1    3    3    0    0 -0.41005231171E+01  0.45104500755E+01 -0.23809506819E+01  0.65442628407E+01  0.51100000000E-03 0.  1.
         12    1    3    3    0    0 -0.14524286355E+02  0.20389888754E+02  0.41158598177E+01  0.25370115481E+02  0.00000000000E+00 0. -1.
</event>
<event>
 7    1  0.2339217E-009  0.4778727E+02  0.7816164E-02  0.1312668E+00
        -11   -1    0    0    0    0  0.00000000000E+00  0.00000000000E+00  0.45593999997E+02  0.45594000000E+02  0.51100000000E-03 0.  1.
         11   -1    0    0    0    0 -0.00000000000E+00 -0.00000000000E+00 -0.45593999997E+02  0.45594000000E+02  0.51100000000E-03 0. -1.
    9900012    2    1    2    0    0  0.24911211345E+02  0.61452399017E+01  0.35004154049E+02  0.47787271609E+02  0.20000002575E+02 0.  0.
         12    1    1    2    0    0 -0.24911211345E+02 -0.61452399017E+01 -0.35004154049E+02  0.43400728391E+02  0.00000000000E+00 0. -1.
         11    1    3    3    0    0  0.13290371678E+02  0.71606900418E+01  0.12266841683E+02  0.19452117271E+02  0.51100000000E-03 0. -1.
        -11    1    3    3    0    0  0.13576539846E+02 -0.14865182134E+01  0.14765646137E+02  0.20113589353E+02  0.51100000000E-03 0.  1.
         12    1    3    3    0    0 -0.19557001782E+01  0.47106807328E+00  0.79716662297E+01  0.82215649845E+01  0.00000000000E+00 0. -1.
</event>
<event>
 7    1  0.2339217E-009  0.4778727E+02  0.7816164E-02  0.1312668E+00
        -11   -1    0    0    0    0  0.00000000000E+00  0.00000000000E+00  0.45593999997E+02  0.45594000000E+02  0.51100000000E-03 0.  1.
         11   -1    0    0    0    0 -0.00000000000E+00 -0.00000000000E+00 -0.45593999997E+02  0.45594000000E+02  0.51100000000E-03 0. -1.
    9900012    2    1    2    0    0 -0.35260323415E+02  0.10752305426E+01  0.25281945255E+02  0.47787270928E+02  0.19999999470E+02 0.  0.
         12    1    1    2    0    0  0.35260323415E+02 -0.10752305426E+01 -0.25281945255E+02  0.43400729072E+02  0.00000000000E+00 0. -1.
         11    1    3    3    0    0 -0.42851812145E+01 -0.50071724676E+01  0.49993160521E+01  0.82721046543E+01  0.51100000000E-03 0. -1.
        -11    1    3    3    0    0 -0.82500286144E+00  0.34953123207E+01  0.14527179501E+01  0.38740453849E+01  0.51100000000E-03 0.  1.
        -12    1    3    3    0    0 -0.30150139339E+02  0.25870906896E+01  0.18829911253E+02  0.35641120889E+02  0.00000000000E+00 0.  1.
</event>
<event>
 7    1  0.2339217E-009  0.4778727E+02  0.7816164E-02  0.1312668E+00
        -11   -1    0    0    0    0  0.00000000000E+00  0.00000000000E+00  0.45593999997E+02  0.45594000000E+02  0.51100000000E-03 0. -1.
         11   -1    0    0    0    0 -0.00000000000E+00 -0.00000000000E+00 -0.45593999997E+02  0.45594000000E+02  0.51100000000E-03 0.  1.
    9900012    2    1    2    0    0 -0.42509893432E+02 -0.83823024284E+01  0.25038235019E+01  0.47787272291E+02  0.20000005682E+02 0.  0.
         12    1    1    2    0    0  0.42509893432E+02  0.83823024284E+01 -0.25038235019E+01  0.43400727709E+02  0.00000000000E+00 0. -1.
         11    1    3    3    0    0 -0.65867145311E+01 -0.21573919748E+00  0.59580669315E+01  0.88842508709E+01  0.51100000000E-03 0. -1.
        -11    1    3    3    0    0 -0.26971105576E+02 -0.37391433153E+01  0.23864412456E+01  0.27333437962E+02  0.51100000000E-03 0.  1.
        -12    1    3    3    0    0 -0.89520733242E+01 -0.44274199156E+01 -0.58406846752E+01  0.11569583458E+02  0.00000000000E+00 0.  1.
</event>
<event>
 7    1  0.2339217E-009  0.4778727E+02  0.7816164E-02  0.1312668E+00
        -11   -1    0    0    0    0  0.00000000000E+00  0.00000000000E+00  0.45593999997E+02  0.45594000000E+02  0.51100000000E-03 0.  1.
         11   -1    0    0    0    0 -0.00000000000E+00 -0.00000000000E+00 -0.45593999997E+02  0.45594000000E+02  0.51100000000E-03 0. -1.
    9900012    2    1    2    0    0  0.16871869095E+02 -0.21892317051E+02  0.33461768557E+02  0.47787268813E+02  0.19999989825E+02 0.  0.
         12    1    1    2    0    0 -0.16871869095E+02  0.21892317051E+02 -0.33461768557E+02  0.43400731187E+02  0.00000000000E+00 0. -1.
         11    1    3    3    0    0  0.57862755558E+01 -0.63314496466E+01  0.28450992418E+01  0.90367488286E+01  0.51100000000E-03 0. -1.
        -11    1    3    3    0    0  0.79157667671E+01 -0.14090670510E+02  0.12861773356E+02  0.20655061682E+02  0.51100000000E-03 0.  1.
         12    1    3    3    0    0  0.31698267721E+01 -0.14701968942E+01  0.17754895959E+02  0.18095458303E+02  0.00000000000E+00 0. -1.
</event>
<event>
 7    1  0.2339217E-009  0.4778727E+02  0.7816164E-02  0.1312668E+00
        -11   -1    0    0    0    0  0.00000000000E+00  0.00000000000E+00  0.45593999997E+02  0.45594000000E+02  0.51100000000E-03 0.  1.
         11   -1    0    0    0    0 -0.00000000000E+00 -0.00000000000E+00 -0.45593999997E+02  0.45594000000E+02  0.51100000000E-03 0. -1.
    9900012    2    1    2    0    0  0.29108674718E+02  0.19186825586E+02  0.25849066445E+02  0.47787268946E+02  0.19999990434E+02 0.  0.
         12    1    1    2    0    0 -0.29108674718E+02 -0.19186825586E+02 -0.25849066445E+02  0.43400731054E+02  0.00000000000E+00 0. -1.
         11    1    3    3    0    0  0.10402671986E+02  0.54396780308E+01  0.14328454518E+02  0.18523236507E+02  0.51100000000E-03 0. -1.
        -11    1    3    3    0    0  0.17499002513E+01 -0.26588928969E+01  0.23241746299E+01  0.39412752122E+01  0.51100000000E-03 0.  1.
        -12    1    3    3    0    0  0.16956102480E+02  0.16406040453E+02  0.91964372964E+01  0.25322757228E+02  0.00000000000E+00 0.  1.
</event>
<event>
 7    1  0.2339217E-009  0.4778727E+02  0.7816164E-02  0.1312668E+00
        -11   -1    0    0    0    0  0.00000000000E+00  0.00000000000E+00  0.45593999997E+02  0.45594000000E+02  0.51100000000E-03 0. -1.
         11   -1    0    0    0    0 -0.00000000000E+00 -0.00000000000E+00 -0.45593999997E+02  0.45594000000E+02  0.51100000000E-03 0.  1.
    9900012    2    1    2    0    0 -0.15504065989E+02 -0.23237260799E+00 -0.40536321842E+02  0.47787269042E+02  0.19999990870E+02 0.  0.
         12    1    1    2    0    0  0.15504065989E+02  0.23237260799E+00  0.40536321842E+02  0.43400730958E+02  0.00000000000E+00 0. -1.
         11    1    3    3    0    0 -0.67541388607E+01 -0.36528248958E+01 -0.82582242912E+01  0.11276514984E+02  0.51100000000E-03 0. -1.
        -11    1    3    3    0    0 -0.10937200627E+02  0.98878697181E-01 -0.29990407351E+02  0.31922666993E+02  0.51100000000E-03 0.  1.
         12    1    3    3    0    0  0.21872734986E+01  0.33215735906E+01 -0.22876901992E+01  0.45880870657E+01  0.00000000000E+00 0. -1.
</event>
<event>
 7    1  0.2339217E-009  0.4778727E+02  0.7816164E-02  0.1312668E+00
        -11   -1    0    0    0    0  0.00000000000E+00  0.00000000000E+00  0.45593999997E+02  0.45594000000E+02  0.51100000000E-03 0. -1.
         11   -1    0    0    0    0 -0.00000000000E+00 -0.00000000000E+00 -0.45593999997E+02  0.45594000000E+02  0.51100000000E-03 0.  1.
    9900012    2    1    2    0    0  0.36832074277E+02  0.11216287007E+02 -0.20030380579E+02  0.47787274938E+02  0.20000017752E+02 0.  0.
         12    1    1    2    0    0 -0.36832074277E+02 -0.11216287007E+02  0.20030380579E+02  0.43400725062E+02  0.00000000000E+00 0. -1.
         11    1    3    3    0    0  0.10068817759E+02  0.17728480996E+01 -0.11412771378E+02  0.15322383374E+02  0.51100000000E-03 0.  1.
        -11    1    3    3    0    0  0.18811235991E+01 -0.29387747365E+01 -0.61650458948E+00  0.35433178121E+01  0.51100000000E-03 0. -1.
         12    1    3    3    0    0  0.24882132919E+02  0.12382213644E+02 -0.80011046111E+01  0.28921573752E+02  0.00000000000E+00 0. -1.
</event>
<event>
 7    1  0.2339217E-009  0.4778727E+02  0.7816164E-02  0.1312668E+00
        -11   -1    0    0    0    0  0.00000000000E+00  0.00000000000E+00  0.45593999997E+02  0.45594000000E+02  0.51100000000E-03 0. -1.
         11   -1    0    0    0    0 -0.00000000000E+00 -0.00000000000E+00 -0.45593999997E+02  0.45594000000E+02  0.51100000000E-03 0.  1.
    9900012    2    1    2    0    0  0.30338071663E+02 -0.16674166987E+02 -0.26176271639E+02  0.47787266898E+02  0.19999981093E+02 0.  0.
         12    1    1    2    0    0 -0.30338071663E+02  0.16674166987E+02  0.26176271639E+02  0.43400733102E+02  0.00000000000E+00 0. -1.
         11    1    3    3    0    0 -0.12862307622E+01 -0.44696176057E+00  0.11447653054E+01  0.17789469510E+01  0.51100000000E-03 0. -1.
        -11    1    3    3    0    0  0.79124916219E+01 -0.70607844133E+01 -0.34934039046E+01  0.11165396155E+02  0.51100000000E-03 0.  1.
        -12    1    3    3    0    0  0.23711810803E+02 -0.91664208132E+01 -0.23827633039E+02  0.34842923791E+02  0.00000000000E+00 0.  1.
</event>
<event>
 7    1  0.2339217E-009  0.4778727E+02  0.7816164E-02  0.1312668E+00
        -11   -1    0    0    0    0  0.00000000000E+00  0.00000000000E+00  0.45593999997E+02  0.45594000000E+02  0.51100000000E-03 0.  1.
         11   -1    0    0    0    0 -0.00000000000E+00 -0.00000000000E+00 -0.45593999997E+02  0.45594000000E+02  0.51100000000E-03 0. -1.
    9900012    2    1    2    0    0  0.44619503695E+01  0.12010435762E+02  0.41466416330E+02  0.47787271302E+02  0.20000001172E+02 0.  0.
         12    1    1    2    0    0 -0.44619503695E+01 -0.12010435762E+02 -0.41466416330E+02  0.43400728698E+02  0.00000000000E+00 0. -1.
         11    1    3    3    0    0  0.76456416565E+00  0.23470712105E+01  0.41014948610E+00  0.25023038370E+01  0.51100000000E-03 0. -1.
        -11    1    3    3    0    0  0.98476465984E+01  0.37183221981E+01  0.21431192417E+02  0.23876726580E+02  0.51100000000E-03 0.  1.
         12    1    3    3    0    0 -0.61502603946E+01  0.59450423532E+01  0.19625074427E+02  0.21408240884E+02  0.00000000000E+00 0. -1.
</event>
<event>
 7    1  0.2339217E-009  0.4778727E+02  0.7816164E-02  0.1312668E+00
        -11   -1    0    0    0    0  0.00000000000E+00  0.00000000000E+00  0.45593999997E+02  0.45594000000E+02  0.51100000000E-03 0. -1.
         11   -1    0    0    0    0 -0.00000000000E+00 -0.00000000000E+00 -0.45593999997E+02  0.45594000000E+02  0.51100000000E-03 0.  1.
    9900012    2    1    2    0    0 -0.36629821598E+01 -0.32107161688E+02 -0.28971296135E+02  0.47787271092E+02  0.20000000218E+02 0.  0.
         12    1    1    2    0    0  0.36629821598E+01  0.32107161688E+02  0.28971296135E+02  0.43400728908E+02  0.00000000000E+00 0. -1.
         11    1    3    3    0    0  0.34172478296E+01 -0.26179138003E+01 -0.28479336297E+01  0.51615677478E+01  0.51100000000E-03 0. -1.
        -11    1    3    3    0    0  0.43338308118E+01 -0.62086100027E+01 -0.41221543211E+01  0.86209677055E+01  0.51100000000E-03 0.  1.
        -12    1    3    3    0    0 -0.11414060801E+02 -0.23280637885E+02 -0.22001208185E+02  0.34004735639E+02  0.00000000000E+00 0.  1.
</event>
<event>
 7    1  0.2339217E-009  0.4778727E+02  0.7816164E-02  0.1312668E+00
        -11   -1    0    0    0    0  0.00000000000E+00  0.00000000000E+00  0.45593999997E+02  0.45594000000E+02  0.51100000000E-03 0.  1.
         11   -1    0    0    0    0 -0.00000000000E+00 -0.00000000000E+00 -0.45593999997E+02  0.45594000000E+02  0.51100000000E-03 0. -1.
    9900012    2    1    2    0    0 -0.30843497356E+02  0.24765020742E+02  0.17860447055E+02  0.47787272466E+02  0.20000006481E+02 0.  0.
         12    1    1    2    0    0  0.30843497356E+02 -0.24765020742E+02 -0.17860447055E+02  0.43400727534E+02  0.00000000000E+00 0. -1.
         11    1    3    3    0    0 -0.11810254204E+02  0.97709527355E+01  0.74349986214E+01  0.17036221015E+02  0.51100000000E-03 0. -1.
        -11    1    3    3    0    0 -0.19259351038E+02  0.10792076689E+02  0.13189100385E+02  0.25716607298E+02  0.51100000000E-03 0.  1.
         12    1    3    3    0    0  0.22610788676E+00  0.42019913183E+01 -0.27636519520E+01  0.50344441528E+01  0.00000000000E+00 0. -1.
</event>
<event>
 7    1  0.2339217E-009  0.4778727E+02  0.7816164E-02  0.1312668E+00
        -11   -1    0    0    0    0  0.00000000000E+00  0.00000000000E+00  0.45593999997E+02  0.45594000000E+02  0.51100000000E-03 0.  1.
         11   -1    0    0    0    0 -0.00000000000E+00 -0.00000000000E+00 -0.45593999997E+02  0.45594000000E+02  0.51100000000E-03 0. -1.
    9900012    2    1    2    0    0  0.81854646651E+01 -0.14735076317E+02  0.39993734681E+02  0.47787272822E+02  0.20000008103E+02 0.  0.
         12    1    1    2    0    0 -0.81854646651E+01  0.14735076317E+02 -0.39993734681E+02  0.43400727178E+02  0.00000000000E+00 0. -1.
         11    1    3    3    0    0  0.23309284966E+00 -0.51450317180E+01  0.13769981905E+02  0.14701635473E+02  0.51100000000E-03 0. -1.
        -11    1    3    3    0    0  0.50592751210E+01 -0.11960948434E+02  0.26313763200E+02  0.29344074125E+02  0.51100000000E-03 0.  1.
         12    1    3    3    0    0  0.28930966945E+01  0.23709038355E+01 -0.90010424390E-01  0.37415632237E+01  0.00000000000E+00 0. -1.
</event>
<event>
 7    1  0.2339217E-009  0.4778727E+02  0.7816164E-02  0.1312668E+00
        -11   -1    0    0    0    0  0.00000000000E+00  0.00000000000E+00  0.45593999997E+02  0.45594000000E+02  0.51100000000E-03 0.  1.
         11   -1    0    0    0    0 -0.00000000000E+00 -0.00000000000E+00 -0.45593999997E+02  0.45594000000E+02  0.51100000000E-03 0. -1.
    9900012    2    1    2    0    0 -0.27031336460E+01 -0.24343180366E+02  0.35829120919E+02  0.47787271116E+02  0.20000000327E+02 0.  0.
         12    1    1    2    0    0  0.27031336460E+01  0.24343180366E+02 -0.35829120919E+02  0.43400728884E+02  0.00000000000E+00 0. -1.
         11    1    3    3    0    0  0.56084328939E+00 -0.22090558911E+00 -0.12295529071E+01  0.13693593710E+01  0.51100000000E-03 0. -1.
        -11    1    3    3    0    0  0.25647138614E+01 -0.18489027725E+02  0.31410387794E+02  0.36538122078E+02  0.51100000000E-03 0.  1.
        -12    1    3    3    0    0 -0.58286907968E+01 -0.56332470525E+01  0.56482860321E+01  0.98797896668E+01  0.00000000000E+00 0.  1.
</event>
<event>
 7    1  0.2339217E-009  0.4778727E+02  0.7816164E-02  0.1312668E+00
        -11   -1    0    0    0    0  0.00000000000E+00  0.00000000000E+00  0.45593999997E+02  0.45594000000E+02  0.51100000000E-03 0. -1.
         11   -1    0    0    0    0 -0.00000000000E+00 -0.00000000000E+00 -0.45593999997E+02  0.45594000000E+02  0.51100000000E-03 0.  1.
    9900012    2    1    2    0    0  0.17065506242E+02 -0.33372333501E+01 -0.39764994306E+02  0.47787269569E+02  0.19999993274E+02 0.  0.
         12    1    1    2    0    0 -0.17065506242E+02  0.33372333501E+01  0.39764994306E+02  0.43400730431E+02  0.00000000000E+00 0. -1.
         11    1    3    3    0    0  0.12736681643E+00  0.11232231949E+01 -0.38846828450E+01  0.40458143456E+01  0.51100000000E-03 0. -1.
        -11    1    3    3    0    0  0.10151029955E+02  0.57594222903E+01 -0.23882214342E+02  0.26581469417E+02  0.51100000000E-03 0.  1.
         12    1    3    3    0    0  0.67871094713E+01 -0.10219878835E+02 -0.11998097120E+02  0.17159985806E+02  0.00000000000E+00 0. -1.
</event>
<event>
 7    1  0.2339217E-009  0.4778727E+02  0.7816164E-02  0.1312668E+00
        -11   -1    0    0    0    0  0.00000000000E+00  0.00000000000E+00  0.45593999997E+02  0.45594000000E+02  0.51100000000E-03 0.  1.
         11   -1    0    0    0    0 -0.00000000000E+00 -0.00000000000E+00 -0.45593999997E+02  0.45594000000E+02  0.51100000000E-03 0. -1.
    9900012    2    1    2    0    0 -0.34594311783E+02  0.63886806031E+01  0.25417346290E+02  0.47787272586E+02  0.20000007030E+02 0.  0.
         12    1    1    2    0    0  0.34594311783E+02 -0.63886806031E+01 -0.25417346290E+02  0.43400727414E+02  0.00000000000E+00 0. -1.
         11    1    3    3    0    0 -0.25853451862E+01  0.79249048203E+00 -0.20455728551E+01  0.33906370290E+01  0.51100000000E-03 0. -1.
        -11    1    3    3    0    0 -0.17961192821E+02  0.81519864427E+01  0.10926218834E+02  0.22548649378E+02  0.51100000000E-03 0.  1.
        -12    1    3    3    0    0 -0.14047773776E+02 -0.25557963216E+01  0.16536700312E+02  0.21847986180E+02  0.00000000000E+00 0.  1.
</event>
<event>
 7    1  0.2866404E-009  0.4778728E+02  0.7816164E-02  0.1312668E+00
        -11   -1    0    0    0    0  0.00000000000E+00  0.00000000000E+00  0.45593999997E+02  0.45594000000E+02  0.51100000000E-03 0.  1.
         11   -1    0    0    0    0 -0.00000000000E+00 -0.00000000000E+00 -0.45593999997E+02  0.45594000000E+02  0.51100000000E-03 0. -1.
    9900012    2    1    2    0    0  0.19705567124E+02 -0.38592175242E+02  0.24407980531E+01  0.47787275805E+02  0.20000021704E+02 0.  0.
         12    1    1    2    0    0 -0.19705567124E+02  0.38592175242E+02 -0.24407980531E+01  0.43400724195E+02  0.00000000000E+00 0. -1.
         11    1    3    3    0    0  0.10662131402E+01 -0.84827392424E+01  0.59602044763E+01  0.10421982210E+02  0.51100000000E-03 0. -1.
        -11    1    3    3    0    0  0.83553452177E+01 -0.11054310954E+02  0.40348304680E+01  0.14432236194E+02  0.51100000000E-03 0.  1.
        -12    1    3    3    0    0  0.10284008766E+02 -0.19055125045E+02 -0.75542368913E+01  0.22933057401E+02  0.00000000000E+00 0.  1.
</event>
<event>
 7    1  0.2339217E-009  0.4778726E+02  0.7816164E-02  0.1312668E+00
        -11   -1    0    0    0    0  0.00000000000E+00  0.00000000000E+00  0.45593999997E+02  0.45594000000E+02  0.51100000000E-03 0.  1.
         11   -1    0    0    0    0 -0.00000000000E+00 -0.00000000000E+00 -0.45593999997E+02  0.45594000000E+02  0.51100000000E-03 0. -1.
    9900012    2    1    2    0    0 -0.17509648612E+02 -0.37364056859E+02 -0.13452270787E+02  0.47787261195E+02  0.19999955091E+02 0.  0.
         12    1    1    2    0    0  0.17509648612E+02  0.37364056859E+02  0.13452270787E+02  0.43400738805E+02  0.00000000000E+00 0. -1.
         11    1    3    3    0    0  0.65523311752E+00  0.89677517374E+00 -0.30451009587E+01  0.32413232268E+01  0.51100000000E-03 0. -1.
        -11    1    3    3    0    0 -0.18767175664E+01 -0.13390210675E+02 -0.43677788666E+01  0.14209057085E+02  0.51100000000E-03 0.  1.
        -12    1    3    3    0    0 -0.16288164163E+02 -0.24870621358E+02 -0.60393909622E+01  0.30336880883E+02  0.00000000000E+00 0.  1.
</event>
<event>
 7    1  0.2339217E-009  0.4778727E+02  0.7816164E-02  0.1312668E+00
        -11   -1    0    0    0    0  0.00000000000E+00  0.00000000000E+00  0.45593999997E+02  0.45594000000E+02  0.51100000000E-03 0. -1.
         11   -1    0    0    0    0 -0.00000000000E+00 -0.00000000000E+00 -0.45593999997E+02  0.45594000000E+02  0.51100000000E-03 0.  1.
    9900012    2    1    2    0    0 -0.43118350818E+02  0.47938413512E+01  0.12042263951E+01  0.47787271280E+02  0.20000001075E+02 0.  0.
         12    1    1    2    0    0  0.43118350818E+02 -0.47938413512E+01 -0.12042263951E+01  0.43400728720E+02  0.00000000000E+00 0. -1.
         11    1    3    3    0    0 -0.45639298672E+01  0.38439907545E+01  0.10001427651E+01  0.60502897918E+01  0.51100000000E-03 0. -1.
        -11    1    3    3    0    0 -0.10743486076E+02  0.52166927100E+01 -0.53018380071E+01  0.13066976024E+02  0.51100000000E-03 0.  1.
        -12    1    3    3    0    0 -0.27810934875E+02 -0.42668421133E+01  0.55059216372E+01  0.28670005464E+02  0.00000000000E+00 0.  1.
</event>
<event>
 7    1  0.2339217E-009  0.4778724E+02  0.7816164E-02  0.1312668E+00
        -11   -1    0    0    0    0  0.00000000000E+00  0.00000000000E+00  0.45593999997E+02  0.45594000000E+02  0.51100000000E-03 0.  1.
         11   -1    0    0    0    0 -0.00000000000E+00 -0.00000000000E+00 -0.45593999997E+02  0.45594000000E+02  0.51100000000E-03 0. -1.
    9900012    2    1    2    0    0 -0.38097594772E+02  0.20462520457E+02 -0.36721204170E+01  0.47787240338E+02  0.19999859997E+02 0.  0.
         12    1    1    2    0    0  0.38097594772E+02 -0.20462520457E+02  0.36721204170E+01  0.43400759662E+02  0.00000000000E+00 0. -1.
         11    1    3    3    0    0 -0.64344452855E+01  0.32881536160E+00  0.21424770980E+01  0.67897285698E+01  0.51100000000E-03 0. -1.
        -11    1    3    3    0    0 -0.44106343065E+01  0.13274248223E+01  0.43759047742E+01  0.63532900531E+01  0.51100000000E-03 0.  1.
         12    1    3    3    0    0 -0.27252515180E+02  0.18806280273E+02 -0.10190502289E+02  0.34644221715E+02  0.00000000000E+00 0. -1.
</event>
<event>
 7    1  0.2339217E-009  0.4778727E+02  0.7816164E-02  0.1312668E+00
        -11   -1    0    0    0    0  0.00000000000E+00  0.00000000000E+00  0.45593999997E+02  0.45594000000E+02  0.51100000000E-03 0.  1.
         11   -1    0    0    0    0 -0.00000000000E+00 -0.00000000000E+00 -0.45593999997E+02  0.45594000000E+02  0.51100000000E-03 0. -1.
    9900012    2    1    2    0    0 -0.40870642639E+02 -0.11680232959E+02 -0.87627484406E+01  0.47787273832E+02  0.20000012709E+02 0.  0.
         12    1    1    2    0    0  0.40870642639E+02  0.11680232959E+02  0.87627484406E+01  0.43400726168E+02  0.00000000000E+00 0. -1.
         11    1    3    3    0    0 -0.16061738682E+02 -0.40421033946E+01  0.64536950885E+00  0.16575118444E+02  0.51100000000E-03 0.  1.
        -11    1    3    3    0    0 -0.92988286723E+01  0.90762924816E+00  0.27409397219E+01  0.97367734054E+01  0.51100000000E-03 0. -1.
        -12    1    3    3    0    0 -0.15510075284E+02 -0.85457588130E+01 -0.12149057671E+02  0.21475381983E+02  0.00000000000E+00 0.  1.
</event>
<event>
 7    1  0.2339217E-009  0.4778727E+02  0.7816164E-02  0.1312668E+00
        -11   -1    0    0    0    0  0.00000000000E+00  0.00000000000E+00  0.45593999997E+02  0.45594000000E+02  0.51100000000E-03 0. -1.
         11   -1    0    0    0    0 -0.00000000000E+00 -0.00000000000E+00 -0.45593999997E+02  0.45594000000E+02  0.51100000000E-03 0.  1.
    9900012    2    1    2    0    0 -0.12388460308E+02  0.39515002909E+02 -0.12989002580E+02  0.47787267383E+02  0.19999983306E+02 0.  0.
         12    1    1    2    0    0  0.12388460308E+02 -0.39515002909E+02  0.12989002580E+02  0.43400732617E+02  0.00000000000E+00 0. -1.
         11    1    3    3    0    0 -0.95331121011E+01  0.83557116292E+01 -0.24194797932E+01  0.12905503706E+02  0.51100000000E-03 0. -1.
        -11    1    3    3    0    0 -0.29189044459E+01  0.12111199151E+02  0.11598855408E+01  0.12511853691E+02  0.51100000000E-03 0.  1.
        -12    1    3    3    0    0  0.63556238554E-01  0.19048092128E+02 -0.11729408327E+02  0.22369909987E+02  0.00000000000E+00 0.  1.
</event>
<event>
 7    1  0.2339217E-009  0.4778729E+02  0.7816164E-02  0.1312668E+00
        -11   -1    0    0    0    0  0.00000000000E+00  0.00000000000E+00  0.45593999997E+02  0.45594000000E+02  0.51100000000E-03 0.  1.
         11   -1    0    0    0    0 -0.00000000000E+00 -0.00000000000E+00 -0.45593999997E+02  0.45594000000E+02  0.51100000000E-03 0. -1.
    9900012    2    1    2    0    0 -0.15681382087E+02  0.37206539952E+02  0.15918200966E+02  0.47787291695E+02  0.20000094154E+02 0.  0.
         12    1    1    2    0    0  0.15681382087E+02 -0.37206539952E+02 -0.15918200966E+02  0.43400708305E+02  0.00000000000E+00 0. -1.
         11    1    3    3    0    0 -0.61059522053E+01  0.13696567728E+02  0.70003087935E+01  0.16549409153E+02  0.51100000000E-03 0. -1.
        -11    1    3    3    0    0 -0.11844282099E+02  0.98716206081E+01  0.80280707196E+01  0.17383493078E+02  0.51100000000E-03 0.  1.
         12    1    3    3    0    0  0.22688522168E+01  0.13638351616E+02  0.88982145296E+00  0.13854389464E+02  0.00000000000E+00 0. -1.
</event>
<event>
 7    1  0.2339217E-009  0.4778727E+02  0.7816164E-02  0.1312668E+00
        -11   -1    0    0    0    0  0.00000000000E+00  0.00000000000E+00  0.45593999997E+02  0.45594000000E+02  0.51100000000E-03 0. -1.
         11   -1    0    0    0    0 -0.00000000000E+00 -0.00000000000E+00 -0.45593999997E+02  0.45594000000E+02  0.51100000000E-03 0.  1.
    9900012    2    1    2    0    0  0.18048467292E+02  0.20593666705E+02 -0.33671603140E+02  0.47787272610E+02  0.20000007138E+02 0.  0.
         12    1    1    2    0    0 -0.18048467292E+02 -0.20593666705E+02  0.33671603140E+02  0.43400727390E+02  0.00000000000E+00 0. -1.
         11    1    3    3    0    0  0.32039917275E+01  0.68115867261E+01 -0.46988472374E+01  0.88736938384E+01  0.51100000000E-03 0. -1.
        -11    1    3    3    0    0  0.14523760620E+02  0.89006857237E+01 -0.29425951580E+02  0.34000712574E+02  0.51100000000E-03 0.  1.
         12    1    3    3    0    0  0.32071494512E+00  0.48813942554E+01  0.45319567763E+00  0.49128661976E+01  0.00000000000E+00 0. -1.
</event>
<event>
 7    1  0.2339217E-009  0.4778727E+02  0.7816164E-02  0.1312668E+00
        -11   -1    0    0    0    0  0.00000000000E+00  0.00000000000E+00  0.45593999997E+02  0.45594000000E+02  0.51100000000E-03 0.  1.
         11   -1    0    0    0    0 -0.00000000000E+00 -0.00000000000E+00 -0.45593999997E+02  0.45594000000E+02  0.51100000000E-03 0. -1.
    9900012    2    1    2    0    0 -0.21100937188E+02 -0.29264426109E+02  0.24123993089E+02  0.47787271570E+02  0.20000002397E+02 0.  0.
         12    1    1    2    0    0  0.21100937188E+02  0.29264426109E+02 -0.24123993089E+02  0.43400728430E+02  0.00000000000E+00 0. -1.
         11    1    3    3    0    0 -0.29629007812E+01 -0.41795307375E+01 -0.22889418215E+00  0.51283185385E+01  0.51100000000E-03 0. -1.
        -11    1    3    3    0    0 -0.15395828016E+01 -0.79930397024E+01 -0.59544711827E+00  0.81617128361E+01  0.51100000000E-03 0.  1.
        -12    1    3    3    0    0 -0.16598453605E+02 -0.17091855669E+02  0.24948334390E+02  0.34497240195E+02  0.00000000000E+00 0.  1.
</event>
<event>
 7    1  0.2339217E-009  0.4778724E+02  0.7816164E-02  0.1312668E+00
        -11   -1    0    0    0    0  0.00000000000E+00  0.00000000000E+00  0.45593999997E+02  0.45594000000E+02  0.51100000000E-03 0.  1.
         11   -1    0    0    0    0 -0.00000000000E+00 -0.00000000000E+00 -0.45593999997E+02  0.45594000000E+02  0.51100000000E-03 0. -1.
    9900012    2    1    2    0    0 -0.10977908254E+02  0.29441587608E+02  0.29938337183E+02  0.47787244433E+02  0.19999878665E+02 0.  0.
         12    1    1    2    0    0  0.10977908254E+02 -0.29441587608E+02 -0.29938337183E+02  0.43400755567E+02  0.00000000000E+00 0. -1.
         11    1    3    3    0    0 -0.28485420121E+01  0.12707993825E+02  0.59683859015E+01  0.14325813386E+02  0.51100000000E-03 0. -1.
        -11    1    3    3    0    0 -0.11479360181E+02  0.15222452787E+02  0.16830233190E+02  0.25431388647E+02  0.51100000000E-03 0.  1.
        -12    1    3    3    0    0  0.33499939399E+01  0.15111409974E+01  0.71397180921E+01  0.80300424000E+01  0.00000000000E+00 0.  1.
</event>
<event>
 7    1  0.2339217E-009  0.4778727E+02  0.7816164E-02  0.1312668E+00
        -11   -1    0    0    0    0  0.00000000000E+00  0.00000000000E+00  0.45593999997E+02  0.45594000000E+02  0.51100000000E-03 0. -1.
         11   -1    0    0    0    0 -0.00000000000E+00 -0.00000000000E+00 -0.45593999997E+02  0.45594000000E+02  0.51100000000E-03 0.  1.
    9900012    2    1    2    0    0 -0.18665505540E+02  0.37764784527E+02  0.10442364322E+02  0.47787273968E+02  0.20000013331E+02 0.  0.
         12    1    1    2    0    0  0.18665505540E+02 -0.37764784527E+02 -0.10442364322E+02  0.43400726032E+02  0.00000000000E+00 0. -1.
         11    1    3    3    0    0 -0.28362874259E+01 -0.56530306857E+00  0.11590461940E+01  0.31156832738E+01  0.51100000000E-03 0. -1.
        -11    1    3    3    0    0 -0.51190602161E+00  0.13167281231E+02 -0.15854744565E+01  0.13272267038E+02  0.51100000000E-03 0.  1.
        -12    1    3    3    0    0 -0.15317312092E+02  0.25162806364E+02  0.10868792584E+02  0.31399323657E+02  0.00000000000E+00 0.  1.
</event>
<event>
 7    1  0.2339217E-009  0.4778727E+02  0.7816164E-02  0.1312668E+00
        -11   -1    0    0    0    0  0.00000000000E+00  0.00000000000E+00  0.45593999997E+02  0.45594000000E+02  0.51100000000E-03 0.  1.
         11   -1    0    0    0    0 -0.00000000000E+00 -0.00000000000E+00 -0.45593999997E+02  0.45594000000E+02  0.51100000000E-03 0. -1.
    9900012    2    1    2    0    0  0.29988575163E+02 -0.12145912958E+02  0.28927248855E+02  0.47787267654E+02  0.19999984540E+02 0.  0.
         12    1    1    2    0    0 -0.29988575163E+02  0.12145912958E+02 -0.28927248855E+02  0.43400732346E+02  0.00000000000E+00 0. -1.
         11    1    3    3    0    0  0.60439423298E+01  0.31797532493E+01  0.77839501191E+01  0.10355189488E+02  0.51100000000E-03 0. -1.
        -11    1    3    3    0    0  0.97828736861E+00 -0.30272893525E+01  0.72269079269E+01  0.78961842332E+01  0.51100000000E-03 0.  1.
         12    1    3    3    0    0  0.22966345464E+02 -0.12298376855E+02  0.13916390809E+02  0.29535893933E+02  0.00000000000E+00 0. -1.
</event>
<event>
 7    1  0.2339217E-009  0.4778727E+02  0.7816164E-02  0.1312668E+00
        -11   -1    0    0    0    0  0.00000000000E+00  0.00000000000E+00  0.45593999997E+02  0.45594000000E+02  0.51100000000E-03 0.  1.
         11   -1    0    0    0    0 -0.00000000000E+00 -0.00000000000E+00 -0.45593999997E+02  0.45594000000E+02  0.51100000000E-03 0. -1.
    9900012    2    1    2    0    0  0.32914070001E+02  0.22996827484E+01  0.28195721687E+02  0.47787271132E+02  0.20000000400E+02 0.  0.
         12    1    1    2    0    0 -0.32914070001E+02 -0.22996827484E+01 -0.28195721687E+02  0.43400728868E+02  0.00000000000E+00 0. -1.
         11    1    3    3    0    0 -0.10376453856E+01  0.82530965666E+00  0.61995796120E+00  0.14636229399E+01  0.51100000000E-03 0. -1.
        -11    1    3    3    0    0  0.22227699286E+02  0.70524654667E+01  0.12609179608E+02  0.26510362037E+02  0.51100000000E-03 0.  1.
         12    1    3    3    0    0  0.11724016101E+02 -0.55780923750E+01  0.14966584118E+02  0.19813286155E+02  0.00000000000E+00 0. -1.
</event>
<event>
 7    1  0.2339217E-009  0.4778727E+02  0.7816164E-02  0.1312668E+00
        -11   -1    0    0    0    0  0.00000000000E+00  0.00000000000E+00  0.45593999997E+02  0.45594000000E+02  0.51100000000E-03 0. -1.
         11   -1    0    0    0    0 -0.00000000000E+00 -0.00000000000E+00 -0.45593999997E+02  0.45594000000E+02  0.51100000000E-03 0.  1.
    9900012    2    1    2    0    0 -0.21136789601E+02  0.17820661855E+02 -0.33455694823E+02  0.47787269826E+02  0.19999994443E+02 0.  0.
         12    1    1    2    0    0  0.21136789601E+02 -0.17820661855E+02  0.33455694823E+02  0.43400730174E+02  0.00000000000E+00 0. -1.
         11    1    3    3    0    0 -0.65510614864E+01  0.91338204752E+01 -0.10673127451E+02  0.15500281704E+02  0.51100000000E-03 0. -1.
        -11    1    3    3    0    0 -0.17777759631E+02  0.78539344029E+01 -0.20656273262E+02  0.28362204576E+02  0.51100000000E-03 0.  1.
         12    1    3    3    0    0  0.31920315162E+01  0.83290697662E+00 -0.21262941100E+01  0.39247835449E+01  0.00000000000E+00 0. -1.
</event>
<event>
 7    1  0.2339217E-009  0.4778727E+02  0.7816164E-02  0.1312668E+00
        -11   -1    0    0    0    0  0.00000000000E+00  0.00000000000E+00  0.45593999997E+02  0.45594000000E+02  0.51100000000E-03 0.  1.
         11   -1    0    0    0    0 -0.00000000000E+00 -0.00000000000E+00 -0.45593999997E+02  0.45594000000E+02  0.51100000000E-03 0. -1.
    9900012    2    1    2    0    0 -0.34810569569E+02 -0.86915599764E+01  0.24419342059E+02  0.47787271491E+02  0.20000002036E+02 0.  0.
         12    1    1    2    0    0  0.34810569569E+02  0.86915599764E+01 -0.24419342059E+02  0.43400728509E+02  0.00000000000E+00 0. -1.
         11    1    3    3    0    0 -0.64991165007E+01 -0.93598676242E+01  0.11753950326E+02  0.16370735651E+02  0.51100000000E-03 0. -1.
        -11    1    3    3    0    0 -0.79578367263E+01 -0.16571388919E+01  0.50007634330E+01  0.95436319001E+01  0.51100000000E-03 0.  1.
         12    1    3    3    0    0 -0.20353616342E+02  0.23254465397E+01  0.76646283003E+01  0.21872903940E+02  0.00000000000E+00 0. -1.
</event>
<event>
 7    1  0.2339217E-009  0.4778727E+02  0.7816164E-02  0.1312668E+00
        -11   -1    0    0    0    0  0.00000000000E+00  0.00000000000E+00  0.45593999997E+02  0.45594000000E+02  0.51100000000E-03 0.  1.
         11   -1    0    0    0    0 -0.00000000000E+00 -0.00000000000E+00 -0.45593999997E+02  0.45594000000E+02  0.51100000000E-03 0. -1.
    9900012    2    1    2    0    0  0.19325559317E+02  0.22007108211E+02  0.32028626029E+02  0.47787274890E+02  0.20000017532E+02 0.  0.
         12    1    1    2    0    0 -0.19325559317E+02 -0.22007108211E+02 -0.32028626029E+02  0.43400725110E+02  0.00000000000E+00 0. -1.
         11    1    3    3    0    0 -0.12377613096E+01  0.24492742500E+01  0.48478142316E+01  0.55706642778E+01  0.51100000000E-03 0. -1.
        -11    1    3    3    0    0  0.24418571932E+01  0.12621394942E+02  0.97689466091E+01  0.16146039605E+02  0.51100000000E-03 0.  1.
        -12    1    3    3    0    0  0.18121463434E+02  0.69364390197E+01  0.17411865189E+02  0.26070571007E+02  0.00000000000E+00 0.  1.
</event>
<event>
 7    1  0.2339217E-009  0.4778727E+02  0.7816164E-02  0.1312668E+00
        -11   -1    0    0    0    0  0.00000000000E+00  0.00000000000E+00  0.45593999997E+02  0.45594000000E+02  0.51100000000E-03 0. -1.
         11   -1    0    0    0    0 -0.00000000000E+00 -0.00000000000E+00 -0.45593999997E+02  0.45594000000E+02  0.51100000000E-03 0.  1.
    9900012    2    1    2    0    0 -0.37967399475E+02  0.17946981788E+02 -0.10954703666E+02  0.47787272925E+02  0.20000008575E+02 0.  0.
         12    1    1    2    0    0  0.37967399475E+02 -0.17946981788E+02  0.10954703666E+02  0.43400727075E+02  0.00000000000E+00 0. -1.
         11    1    3    3    0    0 -0.23841840886E+02  0.13665445736E+02 -0.94450835169E+01  0.29058344531E+02  0.51100000000E-03 0. -1.
        -11    1    3    3    0    0 -0.12888196913E+02  0.47241004980E+00 -0.45762053147E+01  0.13684679253E+02  0.51100000000E-03 0.  1.
         12    1    3    3    0    0 -0.12373616770E+01  0.38091260021E+01  0.30665851655E+01  0.50442491410E+01  0.00000000000E+00 0. -1.
</event>
<event>
 7    1  0.2339217E-009  0.4778727E+02  0.7816164E-02  0.1312668E+00
        -11   -1    0    0    0    0  0.00000000000E+00  0.00000000000E+00  0.45593999997E+02  0.45594000000E+02  0.51100000000E-03 0.  1.
         11   -1    0    0    0    0 -0.00000000000E+00 -0.00000000000E+00 -0.45593999997E+02  0.45594000000E+02  0.51100000000E-03 0. -1.
    9900012    2    1    2    0    0 -0.38771277943E+02  0.19442607737E+02 -0.15480540132E+01  0.47787268898E+02  0.19999990214E+02 0.  0.
         12    1    1    2    0    0  0.38771277943E+02 -0.19442607737E+02  0.15480540132E+01  0.43400731102E+02  0.00000000000E+00 0. -1.
         11    1    3    3    0    0 -0.13954376229E+02  0.11378173182E+02 -0.36272758154E+01  0.18366942342E+02  0.51100000000E-03 0.  1.
        -11    1    3    3    0    0 -0.15458257251E+01 -0.10703063190E+01 -0.33465752098E+01  0.38385802955E+01  0.51100000000E-03 0. -1.
         12    1    3    3    0    0 -0.23271075989E+02  0.91347408738E+01  0.54257970120E+01  0.25581746260E+02  0.00000000000E+00 0. -1.
</event>
<event>
 7    1  0.2339217E-009  0.4778726E+02  0.7816164E-02  0.1312668E+00
        -11   -1    0    0    0    0  0.00000000000E+00  0.00000000000E+00  0.45593999997E+02  0.45594000000E+02  0.51100000000E-03 0. -1.
         11   -1    0    0    0    0 -0.00000000000E+00 -0.00000000000E+00 -0.45593999997E+02  0.45594000000E+02  0.51100000000E-03 0.  1.
    9900012    2    1    2    0    0  0.34148424982E+02  0.11616838875E+02 -0.24136243511E+02  0.47787261239E+02  0.19999955292E+02 0.  0.
         12    1    1    2    0    0 -0.34148424982E+02 -0.11616838875E+02  0.24136243511E+02  0.43400738761E+02  0.00000000000E+00 0. -1.
         11    1    3    3    0    0  0.93051176781E+01  0.11939891855E+00 -0.17175382429E+01  0.94630549497E+01  0.51100000000E-03 0.  1.
        -11    1    3    3    0    0  0.19365296643E+02  0.22416863061E+01 -0.10047968014E+02  0.21931747150E+02  0.51100000000E-03 0. -1.
         12    1    3    3    0    0  0.54780106609E+01  0.92557536502E+01 -0.12370737254E+02  0.16392459139E+02  0.00000000000E+00 0. -1.
</event>
<event>
 7    1  0.2339217E-009  0.4778727E+02  0.7816164E-02  0.1312668E+00
        -11   -1    0    0    0    0  0.00000000000E+00  0.00000000000E+00  0.45593999997E+02  0.45594000000E+02  0.51100000000E-03 0.  1.
         11   -1    0    0    0    0 -0.00000000000E+00 -0.00000000000E+00 -0.45593999997E+02  0.45594000000E+02  0.51100000000E-03 0. -1.
    9900012    2    1    2    0    0  0.20667501889E+02 -0.38163784587E+02 -0.56115850587E-01  0.47787271465E+02  0.20000001919E+02 0.  0.
         12    1    1    2    0    0 -0.20667501889E+02  0.38163784587E+02  0.56115850587E-01  0.43400728535E+02  0.00000000000E+00 0. -1.
         11    1    3    3    0    0  0.10972692905E+02 -0.27465180678E+02 -0.27769351553E+01  0.29706018050E+02  0.51100000000E-03 0. -1.
        -11    1    3    3    0    0  0.10693691634E+02 -0.87955879107E+01 -0.89478530438E+00  0.13875087331E+02  0.51100000000E-03 0.  1.
         12    1    3    3    0    0 -0.99888264935E+00 -0.19030159988E+01  0.36156046091E+01  0.42061660842E+01  0.00000000000E+00 0. -1.
</event>
<event>
 7    1  0.2339217E-009  0.4778727E+02  0.7816164E-02  0.1312668E+00
        -11   -1    0    0    0    0  0.00000000000E+00  0.00000000000E+00  0.45593999997E+02  0.45594000000E+02  0.51100000000E-03 0. -1.
         11   -1    0    0    0    0 -0.00000000000E+00 -0.00000000000E+00 -0.45593999997E+02  0.45594000000E+02  0.51100000000E-03 0.  1.
    9900012    2    1    2    0    0  0.38821744963E+02 -0.14429676988E+02 -0.12972278853E+02  0.47787268686E+02  0.19999989249E+02 0.  0.
         12    1    1    2    0    0 -0.38821744963E+02  0.14429676988E+02  0.12972278853E+02  0.43400731314E+02  0.00000000000E+00 0. -1.
         11    1    3    3    0    0  0.90514728090E+01 -0.44465853598E+01 -0.38233844881E+01  0.10785154175E+02  0.51100000000E-03 0. -1.
        -11    1    3    3    0    0  0.16711681289E+02 -0.10940414834E+02  0.16325317481E+01  0.20040911367E+02  0.51100000000E-03 0.  1.
         12    1    3    3    0    0  0.13058590864E+02  0.95732320564E+00 -0.10781426113E+02  0.16961203144E+02  0.00000000000E+00 0. -1.
</event>
<event>
 7    1  0.2339217E-009  0.4778728E+02  0.7816164E-02  0.1312668E+00
        -11   -1    0    0    0    0  0.00000000000E+00  0.00000000000E+00  0.45593999997E+02  0.45594000000E+02  0.51100000000E-03 0. -1.
         11   -1    0    0    0    0 -0.00000000000E+00 -0.00000000000E+00 -0.45593999997E+02  0.45594000000E+02  0.51100000000E-03 0.  1.
    9900012    2    1    2    0    0  0.21312797287E+02 -0.36029844670E+02 -0.11455901127E+02  0.47787277589E+02  0.20000029840E+02 0.  0.
         12    1    1    2    0    0 -0.21312797287E+02  0.36029844670E+02  0.11455901127E+02  0.43400722411E+02  0.00000000000E+00 0. -1.
         11    1    3    3    0    0  0.99040120567E+01 -0.11024334401E+02  0.21378384561E+01  0.14973167912E+02  0.51100000000E-03 0. -1.
        -11    1    3    3    0    0  0.78634761833E+01 -0.19148865771E+02 -0.40891459177E+01  0.21100578964E+02  0.51100000000E-03 0.  1.
        -12    1    3    3    0    0  0.35453090465E+01 -0.58566444979E+01 -0.95045936657E+01  0.11713530713E+02  0.00000000000E+00 0.  1.
</event>
<event>
 7    1  0.2339217E-009  0.4778728E+02  0.7816164E-02  0.1312668E+00
        -11   -1    0    0    0    0  0.00000000000E+00  0.00000000000E+00  0.45593999997E+02  0.45594000000E+02  0.51100000000E-03 0. -1.
         11   -1    0    0    0    0 -0.00000000000E+00 -0.00000000000E+00 -0.45593999997E+02  0.45594000000E+02  0.51100000000E-03 0.  1.
    9900012    2    1    2    0    0  0.47422129016E+00  0.40066442745E+02 -0.16675662805E+02  0.47787280535E+02  0.20000043272E+02 0.  0.
         12    1    1    2    0    0 -0.47422129016E+00 -0.40066442745E+02  0.16675662805E+02  0.43400719465E+02  0.00000000000E+00 0. -1.
         11    1    3    3    0    0  0.64870052312E+01  0.11398454194E+02 -0.47374284874E+01  0.13944505148E+02  0.51100000000E-03 0. -1.
        -11    1    3    3    0    0  0.32703401896E+01  0.74384000910E+01 -0.54394057234E+01  0.97781417331E+01  0.51100000000E-03 0.  1.
         12    1    3    3    0    0 -0.92831241306E+01  0.21229588461E+02 -0.64988285939E+01  0.24064633654E+02  0.00000000000E+00 0. -1.
</event>
<event>
 7    1  0.2339217E-009  0.4778727E+02  0.7816164E-02  0.1312668E+00
        -11   -1    0    0    0    0  0.00000000000E+00  0.00000000000E+00  0.45593999997E+02  0.45594000000E+02  0.51100000000E-03 0.  1.
         11   -1    0    0    0    0 -0.00000000000E+00 -0.00000000000E+00 -0.45593999997E+02  0.45594000000E+02  0.51100000000E-03 0. -1.
    9900012    2    1    2    0    0 -0.78991270466E+01  0.21163149972E+02  0.37058712582E+02  0.47787270708E+02  0.19999998466E+02 0.  0.
         12    1    1    2    0    0  0.78991270466E+01 -0.21163149972E+02 -0.37058712582E+02  0.43400729292E+02  0.00000000000E+00 0. -1.
         11    1    3    3    0    0  0.12622256563E+01 -0.77252708884E+00  0.12884347913E+02  0.12969056755E+02  0.51100000000E-03 0. -1.
        -11    1    3    3    0    0 -0.30330715169E+01  0.49506520082E+01  0.11094398654E+02  0.12521747478E+02  0.51100000000E-03 0.  1.
        -12    1    3    3    0    0 -0.61282811860E+01  0.16985025052E+02  0.13079966015E+02  0.22296466475E+02  0.00000000000E+00 0.  1.
</event>
<event>
 7    1  0.2339217E-009  0.4778727E+02  0.7816164E-02  0.1312668E+00
        -11   -1    0    0    0    0  0.00000000000E+00  0.00000000000E+00  0.45593999997E+02  0.45594000000E+02  0.51100000000E-03 0.  1.
         11   -1    0    0    0    0 -0.00000000000E+00 -0.00000000000E+00 -0.45593999997E+02  0.45594000000E+02  0.51100000000E-03 0. -1.
    9900012    2    1    2    0    0 -0.19987788552E+02  0.20323185998E+02  0.32727358648E+02  0.47787267467E+02  0.19999983691E+02 0.  0.
         12    1    1    2    0    0  0.19987788552E+02 -0.20323185998E+02 -0.32727358648E+02  0.43400732533E+02  0.00000000000E+00 0. -1.
         11    1    3    3    0    0 -0.63862022182E+01  0.59799510145E+01  0.69921195530E+01  0.11199693255E+02  0.51100000000E-03 0. -1.
        -11    1    3    3    0    0 -0.13565246006E+02  0.15119418914E+02  0.27771899612E+02  0.34407719131E+02  0.51100000000E-03 0.  1.
         12    1    3    3    0    0 -0.36340327715E-01 -0.77618393002E+00 -0.20366605171E+01  0.21798550811E+01  0.00000000000E+00 0. -1.
</event>
<event>
 7    1  0.2339217E-009  0.4778727E+02  0.7816164E-02  0.1312668E+00
        -11   -1    0    0    0    0  0.00000000000E+00  0.00000000000E+00  0.45593999997E+02  0.45594000000E+02  0.51100000000E-03 0. -1.
         11   -1    0    0    0    0 -0.00000000000E+00 -0.00000000000E+00 -0.45593999997E+02  0.45594000000E+02  0.51100000000E-03 0.  1.
    9900012    2    1    2    0    0  0.42147979101E+02  0.97172197876E+01 -0.35702521349E+01  0.47787271861E+02  0.20000003723E+02 0.  0.
         12    1    1    2    0    0 -0.42147979101E+02 -0.97172197876E+01  0.35702521349E+01  0.43400728139E+02  0.00000000000E+00 0. -1.
         11    1    3    3    0    0  0.54784008456E+00 -0.12049151742E+01 -0.24226862776E+01  0.27606807849E+01  0.51100000000E-03 0. -1.
        -11    1    3    3    0    0  0.14760539477E+02 -0.70508263559E+00  0.40413080022E+01  0.15320014288E+02  0.51100000000E-03 0.  1.
        -12    1    3    3    0    0  0.26839599540E+02  0.11627217597E+02 -0.51888738594E+01  0.29706576788E+02  0.00000000000E+00 0.  1.
</event>
<event>
 7    1  0.2339217E-009  0.4778727E+02  0.7816164E-02  0.1312668E+00
        -11   -1    0    0    0    0  0.00000000000E+00  0.00000000000E+00  0.45593999997E+02  0.45594000000E+02  0.51100000000E-03 0.  1.
         11   -1    0    0    0    0 -0.00000000000E+00 -0.00000000000E+00 -0.45593999997E+02  0.45594000000E+02  0.51100000000E-03 0. -1.
    9900012    2    1    2    0    0  0.36409715078E+02  0.21916400867E+02  0.88106241978E+01  0.47787273303E+02  0.20000010299E+02 0.  0.
         12    1    1    2    0    0 -0.36409715078E+02 -0.21916400867E+02 -0.88106241978E+01  0.43400726697E+02  0.00000000000E+00 0. -1.
         11    1    3    3    0    0  0.23249577819E+02  0.17774908689E+02 -0.16193758227E+01  0.29310623091E+02  0.51100000000E-03 0. -1.
        -11    1    3    3    0    0  0.16763955417E+01 -0.95272325681E-01 -0.80477373607E+00  0.18619988871E+01  0.51100000000E-03 0.  1.
        -12    1    3    3    0    0  0.11483741718E+02  0.42367645037E+01  0.11234773757E+02  0.16614651325E+02  0.00000000000E+00 0.  1.
</event>
<event>
 7    1  0.2339217E-009  0.4778727E+02  0.7816164E-02  0.1312668E+00
        -11   -1    0    0    0    0  0.00000000000E+00  0.00000000000E+00  0.45593999997E+02  0.45594000000E+02  0.51100000000E-03 0.  1.
         11   -1    0    0    0    0 -0.00000000000E+00 -0.00000000000E+00 -0.45593999997E+02  0.45594000000E+02  0.51100000000E-03 0. -1.
    9900012    2    1    2    0    0  0.45306628961E+01 -0.33416025056E+02  0.27321523609E+02  0.47787270868E+02  0.19999999197E+02 0.  0.
         12    1    1    2    0    0 -0.45306628961E+01  0.33416025056E+02 -0.27321523609E+02  0.43400729132E+02  0.00000000000E+00 0. -1.
         11    1    3    3    0    0  0.68346378272E+01 -0.58796839925E+01  0.39096130639E+01  0.98269035129E+01  0.51100000000E-03 0. -1.
        -11    1    3    3    0    0  0.22385593669E+01 -0.13451266050E+02  0.54453380306E+01  0.14683303883E+02  0.51100000000E-03 0.  1.
         12    1    3    3    0    0 -0.45425342980E+01 -0.14085075014E+02  0.17966572515E+02  0.23277063473E+02  0.00000000000E+00 0. -1.
</event>
<event>
 7    1  0.2339217E-009  0.4778727E+02  0.7816164E-02  0.1312668E+00
        -11   -1    0    0    0    0  0.00000000000E+00  0.00000000000E+00  0.45593999997E+02  0.45594000000E+02  0.51100000000E-03 0.  1.
         11   -1    0    0    0    0 -0.00000000000E+00 -0.00000000000E+00 -0.45593999997E+02  0.45594000000E+02  0.51100000000E-03 0. -1.
    9900012    2    1    2    0    0  0.24397242865E+02 -0.38562798673E+01  0.35686512389E+02  0.47787268205E+02  0.19999987055E+02 0.  0.
         12    1    1    2    0    0 -0.24397242865E+02  0.38562798673E+01 -0.35686512389E+02  0.43400731795E+02  0.00000000000E+00 0. -1.
         11    1    3    3    0    0  0.12245686870E+02 -0.54631634624E+01  0.12277170234E+02  0.18180536602E+02  0.51100000000E-03 0. -1.
        -11    1    3    3    0    0  0.14270699066E+02  0.27557481459E+00  0.23002734031E+02  0.27071286753E+02  0.51100000000E-03 0.  1.
         12    1    3    3    0    0 -0.21191430701E+01  0.13313087805E+01  0.40660812392E+00  0.25354448499E+01  0.00000000000E+00 0. -1.
</event>
<event>
 7    1  0.2339217E-009  0.4778726E+02  0.7816164E-02  0.1312668E+00
        -11   -1    0    0    0    0  0.00000000000E+00  0.00000000000E+00  0.45593999997E+02  0.45594000000E+02  0.51100000000E-03 0. -1.
         11   -1    0    0    0    0 -0.00000000000E+00 -0.00000000000E+00 -0.45593999997E+02  0.45594000000E+02  0.51100000000E-03 0.  1.
    9900012    2    1    2    0    0 -0.41246559865E+02 -0.82075778171E+01 -0.10722924626E+02  0.47787260987E+02  0.19999954144E+02 0.  0.
         12    1    1    2    0    0  0.41246559865E+02  0.82075778171E+01  0.10722924626E+02  0.43400739013E+02  0.00000000000E+00 0. -1.
         11    1    3    3    0    0 -0.13231865016E+02 -0.67675596792E+01 -0.43430805297E+01  0.15483683818E+02  0.51100000000E-03 0. -1.
        -11    1    3    3    0    0 -0.22401783525E+02 -0.36529224775E+01  0.10629157899E+01  0.22722533704E+02  0.51100000000E-03 0.  1.
        -12    1    3    3    0    0 -0.56129113248E+01  0.22129043396E+01 -0.74427598861E+01  0.95810434649E+01  0.00000000000E+00 0.  1.
</event>
<event>
 7    1  0.2339217E-009  0.4778727E+02  0.7816164E-02  0.1312668E+00
        -11   -1    0    0    0    0  0.00000000000E+00  0.00000000000E+00  0.45593999997E+02  0.45594000000E+02  0.51100000000E-03 0.  1.
         11   -1    0    0    0    0 -0.00000000000E+00 -0.00000000000E+00 -0.45593999997E+02  0.45594000000E+02  0.51100000000E-03 0. -1.
    9900012    2    1    2    0    0  0.32739506682E+02 -0.18941366814E+02  0.21283154230E+02  0.47787270415E+02  0.19999997128E+02 0.  0.
         12    1    1    2    0    0 -0.32739506682E+02  0.18941366814E+02 -0.21283154230E+02  0.43400729585E+02  0.00000000000E+00 0. -1.
         11    1    3    3    0    0  0.61706409509E+01 -0.47153078469E+01  0.74699857862E+00  0.78018552264E+01  0.51100000000E-03 0. -1.
        -11    1    3    3    0    0  0.18824101655E+02 -0.15255190039E+02  0.21131706125E+02  0.32149908713E+02  0.51100000000E-03 0.  1.
         12    1    3    3    0    0  0.77447640757E+01  0.10291310718E+01 -0.59555047345E+00  0.78355064748E+01  0.00000000000E+00 0. -1.
</event>
<event>
 7    1  0.2339217E-009  0.4778727E+02  0.7816164E-02  0.1312668E+00
        -11   -1    0    0    0    0  0.00000000000E+00  0.00000000000E+00  0.45593999997E+02  0.45594000000E+02  0.51100000000E-03 0.  1.
         11   -1    0    0    0    0 -0.00000000000E+00 -0.00000000000E+00 -0.45593999997E+02  0.45594000000E+02  0.51100000000E-03 0. -1.
    9900012    2    1    2    0    0 -0.33294023798E+02  0.17475991410E+02  0.21673049885E+02  0.47787269733E+02  0.19999994020E+02 0.  0.
         12    1    1    2    0    0  0.33294023798E+02 -0.17475991410E+02 -0.21673049885E+02  0.43400730267E+02  0.00000000000E+00 0. -1.
         11    1    3    3    0    0 -0.87349543761E+01  0.32134339682E+01  0.35217735717E+01  0.99513051994E+01  0.51100000000E-03 0. -1.
        -11    1    3    3    0    0 -0.81317849786E+01  0.11302162788E+01  0.14250109358E+02  0.16445939704E+02  0.51100000000E-03 0.  1.
         12    1    3    3    0    0 -0.16427284443E+02  0.13132341163E+02  0.39011669558E+01  0.21390024830E+02  0.00000000000E+00 0. -1.
</event>
<event>
 7    1  0.2339217E-009  0.4778727E+02  0.7816164E-02  0.1312668E+00
        -11   -1    0    0    0    0  0.00000000000E+00  0.00000000000E+00  0.45593999997E+02  0.45594000000E+02  0.51100000000E-03 0. -1.
         11   -1    0    0    0    0 -0.00000000000E+00 -0.00000000000E+00 -0.45593999997E+02  0.45594000000E+02  0.51100000000E-03 0.  1.
    9900012    2    1    2    0    0  0.40385343054E+02 -0.15522125070E+02  0.34221140422E+01  0.47787272301E+02  0.20000005731E+02 0.  0.
         12    1    1    2    0    0 -0.40385343054E+02  0.15522125070E+02 -0.34221140422E+01  0.43400727699E+02  0.00000000000E+00 0. -1.
         11    1    3    3    0    0  0.36297711277E+01  0.67363204317E+00 -0.23653495884E+01  0.43845065293E+01  0.51100000000E-03 0. -1.
        -11    1    3    3    0    0  0.35150072264E+02 -0.10849268859E+02  0.23813409153E+01  0.36863328658E+02  0.51100000000E-03 0.  1.
         12    1    3    3    0    0  0.16054996617E+01 -0.53464882538E+01  0.34061227154E+01  0.65394371137E+01  0.00000000000E+00 0. -1.
</event>
<event>
 7    1  0.2339217E-009  0.4778728E+02  0.7816164E-02  0.1312668E+00
        -11   -1    0    0    0    0  0.00000000000E+00  0.00000000000E+00  0.45593999997E+02  0.45594000000E+02  0.51100000000E-03 0.  1.
         11   -1    0    0    0    0 -0.00000000000E+00 -0.00000000000E+00 -0.45593999997E+02  0.45594000000E+02  0.51100000000E-03 0. -1.
    9900012    2    1    2    0    0  0.21800497756E+02  0.12500732891E+02  0.35384922784E+02  0.47787276669E+02  0.20000025645E+02 0.  0.
         12    1    1    2    0    0 -0.21800497756E+02 -0.12500732891E+02 -0.35384922784E+02  0.43400723331E+02  0.00000000000E+00 0. -1.
         11    1    3    3    0    0  0.81958629229E+01  0.22121174941E-01  0.32376217900E+01  0.88121991303E+01  0.51100000000E-03 0. -1.
        -11    1    3    3    0    0  0.21740029252E+01 -0.22280954438E+01  0.71751489403E+01  0.78213464699E+01  0.51100000000E-03 0.  1.
        -12    1    3    3    0    0  0.11430631908E+02  0.14706707160E+02  0.24972152054E+02  0.31153731069E+02  0.00000000000E+00 0.  1.
</event>
<event>
 7    1  0.2339217E-009  0.4778727E+02  0.7816164E-02  0.1312668E+00
        -11   -1    0    0    0    0  0.00000000000E+00  0.00000000000E+00  0.45593999997E+02  0.45594000000E+02  0.51100000000E-03 0.  1.
         11   -1    0    0    0    0 -0.00000000000E+00 -0.00000000000E+00 -0.45593999997E+02  0.45594000000E+02  0.51100000000E-03 0. -1.
    9900012    2    1    2    0    0  0.14597717155E+02  0.40575910881E+02 -0.49117573320E+01  0.47787271319E+02  0.20000001251E+02 0.  0.
         12    1    1    2    0    0 -0.14597717155E+02 -0.40575910881E+02  0.49117573320E+01  0.43400728681E+02  0.00000000000E+00 0. -1.
         11    1    3    3    0    0  0.26821176897E+01  0.98875171196E+01 -0.76666413050E+01  0.12795864146E+02  0.51100000000E-03 0. -1.
        -11    1    3    3    0    0  0.12851830601E+02  0.24928295252E+02 -0.97921894922E+00  0.28063291396E+02  0.51100000000E-03 0.  1.
        -12    1    3    3    0    0 -0.93623113568E+00  0.57600985091E+01  0.37341029222E+01  0.69281157762E+01  0.00000000000E+00 0.  1.
</event>
<event>
 7    1  0.2339217E-009  0.4778728E+02  0.7816164E-02  0.1312668E+00
        -11   -1    0    0    0    0  0.00000000000E+00  0.00000000000E+00  0.45593999997E+02  0.45594000000E+02  0.51100000000E-03 0.  1.
         11   -1    0    0    0    0 -0.00000000000E+00 -0.00000000000E+00 -0.45593999997E+02  0.45594000000E+02  0.51100000000E-03 0. -1.
    9900012    2    1    2    0    0  0.42669902933E+01  0.17471315148E+02  0.39498972193E+02  0.47787275773E+02  0.20000021558E+02 0.  0.
         12    1    1    2    0    0 -0.42669902933E+01 -0.17471315148E+02 -0.39498972193E+02  0.43400724227E+02  0.00000000000E+00 0. -1.
         11    1    3    3    0    0  0.51900908907E+00  0.66555798490E+01  0.27817836667E+01  0.72321804589E+01  0.51100000000E-03 0. -1.
        -11    1    3    3    0    0 -0.41516765522E+01  0.70158185514E+01  0.13932399293E+02  0.16142177005E+02  0.51100000000E-03 0.  1.
        -12    1    3    3    0    0  0.78996577565E+01  0.37999167477E+01  0.22784789233E+02  0.24412918309E+02  0.00000000000E+00 0.  1.
</event>
<event>
 7    1  0.2339217E-009  0.4778727E+02  0.7816164E-02  0.1312668E+00
        -11   -1    0    0    0    0  0.00000000000E+00  0.00000000000E+00  0.45593999997E+02  0.45594000000E+02  0.51100000000E-03 0.  1.
         11   -1    0    0    0    0 -0.00000000000E+00 -0.00000000000E+00 -0.45593999997E+02  0.45594000000E+02  0.51100000000E-03 0. -1.
    9900012    2    1    2    0    0 -0.19713160056E+02 -0.10604367613E+01  0.38650873116E+02  0.47787271917E+02  0.20000003977E+02 0.  0.
         12    1    1    2    0    0  0.19713160056E+02  0.10604367613E+01 -0.38650873116E+02  0.43400728083E+02  0.00000000000E+00 0. -1.
         11    1    3    3    0    0 -0.28507066224E+01 -0.21251398490E+01  0.25418451248E+00  0.35647380903E+01  0.51100000000E-03 0. -1.
        -11    1    3    3    0    0 -0.11315733268E+02 -0.60969327915E+01  0.21435282223E+02  0.24993793892E+02  0.51100000000E-03 0.  1.
        -12    1    3    3    0    0 -0.55467201654E+01  0.71616358792E+01  0.16961406381E+02  0.19228739935E+02  0.00000000000E+00 0.  1.
</event>
<event>
 7    1  0.2339217E-009  0.4778723E+02  0.7816164E-02  0.1312668E+00
        -11   -1    0    0    0    0  0.00000000000E+00  0.00000000000E+00  0.45593999997E+02  0.45594000000E+02  0.51100000000E-03 0.  1.
         11   -1    0    0    0    0 -0.00000000000E+00 -0.00000000000E+00 -0.45593999997E+02  0.45594000000E+02  0.51100000000E-03 0. -1.
    9900012    2    1    2    0    0 -0.14238032262E+02  0.39000954578E+02  0.12642410785E+02  0.47787233058E+02  0.19999826803E+02 0.  0.
         12    1    1    2    0    0  0.14238032262E+02 -0.39000954578E+02 -0.12642410785E+02  0.43400766942E+02  0.00000000000E+00 0. -1.
         11    1    3    3    0    0  0.63533259297E+00 -0.40983225898E-01  0.30900211876E+00  0.70767909325E+00  0.51100000000E-03 0. -1.
        -11    1    3    3    0    0 -0.80102443942E+01  0.32077894806E+02  0.24133165183E+01  0.33150858923E+02  0.51100000000E-03 0.  1.
         12    1    3    3    0    0 -0.68631204610E+01  0.69640429984E+01  0.99200921480E+01  0.13928695042E+02  0.00000000000E+00 0. -1.
</event>
<event>
 7    1  0.2339217E-009  0.4778728E+02  0.7816164E-02  0.1312668E+00
        -11   -1    0    0    0    0  0.00000000000E+00  0.00000000000E+00  0.45593999997E+02  0.45594000000E+02  0.51100000000E-03 0.  1.
         11   -1    0    0    0    0 -0.00000000000E+00 -0.00000000000E+00 -0.45593999997E+02  0.45594000000E+02  0.51100000000E-03 0. -1.
    9900012    2    1    2    0    0  0.90478182675E+01  0.20342741778E+02  0.37254968690E+02  0.47787275922E+02  0.20000022238E+02 0.  0.
         12    1    1    2    0    0 -0.90478182675E+01 -0.20342741778E+02 -0.37254968690E+02  0.43400724078E+02  0.00000000000E+00 0. -1.
         11    1    3    3    0    0  0.39389418760E+01  0.66120583212E+01  0.53270144569E+00  0.77148136359E+01  0.51100000000E-03 0. -1.
        -11    1    3    3    0    0  0.37851790900E+01  0.69599497795E+01  0.11800146251E+02  0.14213090216E+02  0.51100000000E-03 0.  1.
         12    1    3    3    0    0  0.13236973015E+01  0.67707336768E+01  0.24922120993E+02  0.25859372070E+02  0.00000000000E+00 0. -1.
</event>
<event>
 7    1  0.2339217E-009  0.4778727E+02  0.7816164E-02  0.1312668E+00
        -11   -1    0    0    0    0  0.00000000000E+00  0.00000000000E+00  0.45593999997E+02  0.45594000000E+02  0.51100000000E-03 0. -1.
         11   -1    0    0    0    0 -0.00000000000E+00 -0.00000000000E+00 -0.45593999997E+02  0.45594000000E+02  0.51100000000E-03 0.  1.
    9900012    2    1    2    0    0 -0.24850990409E+02 -0.35141657969E+02  0.55781107013E+01  0.47787272263E+02  0.20000005555E+02 0.  0.
         12    1    1    2    0    0  0.24850990409E+02  0.35141657969E+02 -0.55781107013E+01  0.43400727737E+02  0.00000000000E+00 0. -1.
         11    1    3    3    0    0 -0.10079503300E+02 -0.14385253328E+02  0.84009569007E+01  0.19470695344E+02  0.51100000000E-03 0. -1.
        -11    1    3    3    0    0 -0.77717998603E+01 -0.73031980959E+01  0.43782080937E+01  0.11528498682E+02  0.51100000000E-03 0.  1.
         12    1    3    3    0    0 -0.69996872486E+01 -0.13453206545E+02 -0.72010542931E+01  0.16788078236E+02  0.00000000000E+00 0. -1.
</event>
<event>
 7    1  0.2339217E-009  0.4778724E+02  0.7816164E-02  0.1312668E+00
        -11   -1    0    0    0    0  0.00000000000E+00  0.00000000000E+00  0.45593999997E+02  0.45594000000E+02  0.51100000000E-03 0.  1.
         11   -1    0    0    0    0 -0.00000000000E+00 -0.00000000000E+00 -0.45593999997E+02  0.45594000000E+02  0.51100000000E-03 0. -1.
    9900012    2    1    2    0    0  0.10982081136E+02 -0.41673998901E+02 -0.51281335913E+01  0.47787239125E+02  0.19999854464E+02 0.  0.
         12    1    1    2    0    0 -0.10982081136E+02  0.41673998901E+02  0.51281335913E+01  0.43400760875E+02  0.00000000000E+00 0. -1.
         11    1    3    3    0    0  0.15935566412E+01 -0.40648467001E+01 -0.17918719496E+01  0.47194498417E+01  0.51100000000E-03 0. -1.
        -11    1    3    3    0    0  0.14620871184E+02 -0.23593742483E+02 -0.77910082179E-01  0.27756812295E+02  0.51100000000E-03 0.  1.
         12    1    3    3    0    0 -0.52323466898E+01 -0.14015409718E+02 -0.32583515596E+01  0.15310976988E+02  0.00000000000E+00 0. -1.
</event>
<event>
 7    1  0.2339217E-009  0.4778728E+02  0.7816164E-02  0.1312668E+00
        -11   -1    0    0    0    0  0.00000000000E+00  0.00000000000E+00  0.45593999997E+02  0.45594000000E+02  0.51100000000E-03 0. -1.
         11   -1    0    0    0    0 -0.00000000000E+00 -0.00000000000E+00 -0.45593999997E+02  0.45594000000E+02  0.51100000000E-03 0.  1.
    9900012    2    1    2    0    0 -0.58379252710E+01  0.33502030113E+02 -0.26965819234E+02  0.47787276503E+02  0.20000024886E+02 0.  0.
         12    1    1    2    0    0  0.58379252710E+01 -0.33502030113E+02  0.26965819234E+02  0.43400723497E+02  0.00000000000E+00 0. -1.
         11    1    3    3    0    0  0.12338625712E+01  0.59698901833E+01 -0.11121728996E+02  0.12682857004E+02  0.51100000000E-03 0. -1.
        -11    1    3    3    0    0 -0.73390254207E+01  0.20509905778E+02 -0.17432297476E+02  0.27899866034E+02  0.51100000000E-03 0.  1.
         12    1    3    3    0    0  0.26723757850E+00  0.70222341510E+01  0.15882072384E+01  0.72045534648E+01  0.00000000000E+00 0. -1.
</event>
<event>
 7    1  0.2339217E-009  0.4778730E+02  0.7816164E-02  0.1312668E+00
        -11   -1    0    0    0    0  0.00000000000E+00  0.00000000000E+00  0.45593999997E+02  0.45594000000E+02  0.51100000000E-03 0.  1.
         11   -1    0    0    0    0 -0.00000000000E+00 -0.00000000000E+00 -0.45593999997E+02  0.45594000000E+02  0.51100000000E-03 0. -1.
    9900012    2    1    2    0    0  0.21956776811E+02 -0.35898794285E+02  0.10620625366E+02  0.47787295372E+02  0.20000110917E+02 0.  0.
         12    1    1    2    0    0 -0.21956776811E+02  0.35898794285E+02 -0.10620625366E+02  0.43400704628E+02  0.00000000000E+00 0. -1.
         11    1    3    3    0    0  0.57738977148E+01 -0.63227578236E+01  0.30255988361E+00  0.85677712423E+01  0.51100000000E-03 0. -1.
        -11    1    3    3    0    0 -0.24598291529E+01 -0.13431616155E+01  0.38694758704E+01  0.47778328100E+01  0.51100000000E-03 0.  1.
        -12    1    3    3    0    0  0.18642708250E+02 -0.28232874846E+02  0.64485896124E+01  0.34441691319E+02  0.00000000000E+00 0.  1.
</event>
<event>
 7    1  0.2339217E-009  0.4778727E+02  0.7816164E-02  0.1312668E+00
        -11   -1    0    0    0    0  0.00000000000E+00  0.00000000000E+00  0.45593999997E+02  0.45594000000E+02  0.51100000000E-03 0.  1.
         11   -1    0    0    0    0 -0.00000000000E+00 -0.00000000000E+00 -0.45593999997E+02  0.45594000000E+02  0.51100000000E-03 0. -1.
    9900012    2    1    2    0    0  0.38069601704E+02  0.94933452970E+01  0.18552766603E+02  0.47787270428E+02  0.19999997187E+02 0.  0.
         12    1    1    2    0    0 -0.38069601704E+02 -0.94933452970E+01 -0.18552766603E+02  0.43400729572E+02  0.00000000000E+00 0. -1.
         11    1    3    3    0    0  0.16140602820E+02  0.30953940069E+01  0.23027740962E+01  0.16595279216E+02  0.51100000000E-03 0. -1.
        -11    1    3    3    0    0  0.11072665239E+02 -0.38036206229E+01  0.77467861424E+01  0.14038665931E+02  0.51100000000E-03 0.  1.
         12    1    3    3    0    0  0.10856333645E+02  0.10201571913E+02  0.85032063643E+01  0.17153325281E+02  0.00000000000E+00 0. -1.
</event>
<event>
 7    1  0.2339217E-009  0.4778726E+02  0.7816164E-02  0.1312668E+00
        -11   -1    0    0    0    0  0.00000000000E+00  0.00000000000E+00  0.45593999997E+02  0.45594000000E+02  0.51100000000E-03 0.  1.
         11   -1    0    0    0    0 -0.00000000000E+00 -0.00000000000E+00 -0.45593999997E+02  0.45594000000E+02  0.51100000000E-03 0. -1.
    9900012    2    1    2    0    0 -0.11911839879E+02  0.94358866790E+01 -0.40653363208E+02  0.47787264674E+02  0.19999970956E+02 0.  0.
         12    1    1    2    0    0  0.11911839879E+02 -0.94358866790E+01  0.40653363208E+02  0.43400735326E+02  0.00000000000E+00 0. -1.
         11    1    3    3    0    0 -0.31949604659E+01  0.51169537748E+00 -0.88602728002E+01  0.94326050958E+01  0.51100000000E-03 0. -1.
        -11    1    3    3    0    0 -0.99167208443E+01  0.61495970582E+01 -0.74932270592E+01  0.13867492502E+02  0.51100000000E-03 0.  1.
        -12    1    3    3    0    0  0.11998414317E+01  0.27745942434E+01 -0.24299863348E+02  0.24487167076E+02  0.00000000000E+00 0.  1.
</event>
<event>
 7    1  0.2339217E-009  0.4778727E+02  0.7816164E-02  0.1312668E+00
        -11   -1    0    0    0    0  0.00000000000E+00  0.00000000000E+00  0.45593999997E+02  0.45594000000E+02  0.51100000000E-03 0.  1.
         11   -1    0    0    0    0 -0.00000000000E+00 -0.00000000000E+00 -0.45593999997E+02  0.45594000000E+02  0.51100000000E-03 0. -1.
    9900012    2    1    2    0    0 -0.39481933203E+02  0.13846443578E+02  0.11535883458E+02  0.47787266638E+02  0.19999979910E+02 0.  0.
         12    1    1    2    0    0  0.39481933203E+02 -0.13846443578E+02 -0.11535883458E+02  0.43400733362E+02  0.00000000000E+00 0. -1.
         11    1    3    3    0    0 -0.89250397134E+00  0.65570846081E+00  0.21585949926E+01  0.24261182015E+01  0.51100000000E-03 0.  1.
        -11    1    3    3    0    0  0.34058778454E+00  0.11308253083E+00 -0.25666859689E+01  0.25916529131E+01  0.51100000000E-03 0. -1.
        -12    1    3    3    0    0 -0.38930017016E+02  0.13077652586E+02  0.11943974435E+02  0.42769495523E+02  0.00000000000E+00 0.  1.
</event>
<event>
 7    1  0.2339217E-009  0.4778727E+02  0.7816164E-02  0.1312668E+00
        -11   -1    0    0    0    0  0.00000000000E+00  0.00000000000E+00  0.45593999997E+02  0.45594000000E+02  0.51100000000E-03 0. -1.
         11   -1    0    0    0    0 -0.00000000000E+00 -0.00000000000E+00 -0.45593999997E+02  0.45594000000E+02  0.51100000000E-03 0.  1.
    9900012    2    1    2    0    0  0.59964381711E+00 -0.15940113258E+02 -0.40363054875E+02  0.47787274404E+02  0.20000015318E+02 0.  0.
         12    1    1    2    0    0 -0.59964381711E+00  0.15940113258E+02  0.40363054875E+02  0.43400725596E+02  0.00000000000E+00 0. -1.
         11    1    3    3    0    0  0.63923431668E+01 -0.64730025879E+01 -0.11676691051E+02  0.14802260903E+02  0.51100000000E-03 0. -1.
        -11    1    3    3    0    0  0.10987647652E+01 -0.87735920603E+00 -0.16500478593E+02  0.16560278900E+02  0.51100000000E-03 0.  1.
         12    1    3    3    0    0 -0.68914641148E+01 -0.85897514638E+01 -0.12185885231E+02  0.16424734601E+02  0.00000000000E+00 0. -1.
</event>
<event>
 7    1  0.2339217E-009  0.4778727E+02  0.7816164E-02  0.1312668E+00
        -11   -1    0    0    0    0  0.00000000000E+00  0.00000000000E+00  0.45593999997E+02  0.45594000000E+02  0.51100000000E-03 0.  1.
         11   -1    0    0    0    0 -0.00000000000E+00 -0.00000000000E+00 -0.45593999997E+02  0.45594000000E+02  0.51100000000E-03 0. -1.
    9900012    2    1    2    0    0  0.20864932463E+01  0.22285678818E+02  0.37183574197E+02  0.47787272766E+02  0.20000007848E+02 0.  0.
         12    1    1    2    0    0 -0.20864932463E+01 -0.22285678818E+02 -0.37183574197E+02  0.43400727234E+02  0.00000000000E+00 0. -1.
         11    1    3    3    0    0  0.27603140292E+01 -0.17166582569E+01  0.46747982845E+01  0.56938553172E+01  0.51100000000E-03 0. -1.
        -11    1    3    3    0    0  0.30856175472E+01  0.15703441849E+01  0.76638983406E+01  0.84096584082E+01  0.51100000000E-03 0.  1.
        -12    1    3    3    0    0 -0.37594383300E+01  0.22431992890E+02  0.24844877571E+02  0.33683759040E+02  0.00000000000E+00 0.  1.
</event>
<event>
 7    1  0.2339217E-009  0.4778727E+02  0.7816164E-02  0.1312668E+00
        -11   -1    0    0    0    0  0.00000000000E+00  0.00000000000E+00  0.45593999997E+02  0.45594000000E+02  0.51100000000E-03 0.  1.
         11   -1    0    0    0    0 -0.00000000000E+00 -0.00000000000E+00 -0.45593999997E+02  0.45594000000E+02  0.51100000000E-03 0. -1.
    9900012    2    1    2    0    0 -0.21968685381E+02 -0.81297865523E+01  0.36536375907E+02  0.47787270385E+02  0.19999996992E+02 0.  0.
         12    1    1    2    0    0  0.21968685381E+02  0.81297865523E+01 -0.36536375907E+02  0.43400729615E+02  0.00000000000E+00 0. -1.
         11    1    3    3    0    0 -0.44645063338E+01 -0.74715329696E+01  0.23268652667E+02  0.24843224809E+02  0.51100000000E-03 0. -1.
        -11    1    3    3    0    0  0.42823995444E+00 -0.53012533265E+00  0.84318318788E-01  0.68668199838E+00  0.51100000000E-03 0.  1.
        -12    1    3    3    0    0 -0.17932419001E+02 -0.12812825005E+00  0.13183404921E+02  0.22257363577E+02  0.00000000000E+00 0.  1.
</event>
<event>
 7    1  0.2411775E-009  0.4778727E+02  0.7816164E-02  0.1312668E+00
        -11   -1    0    0    0    0  0.00000000000E+00  0.00000000000E+00  0.45593999997E+02  0.45594000000E+02  0.51100000000E-03 0.  1.
         11   -1    0    0    0    0 -0.00000000000E+00 -0.00000000000E+00 -0.45593999997E+02  0.45594000000E+02  0.51100000000E-03 0. -1.
    9900012    2    1    2    0    0 -0.15461852008E+02  0.39213457520E+02  0.10337269741E+02  0.47787271159E+02  0.20000000524E+02 0.  0.
         12    1    1    2    0    0  0.15461852008E+02 -0.39213457520E+02 -0.10337269741E+02  0.43400728841E+02  0.00000000000E+00 0. -1.
         11    1    3    3    0    0 -0.55181791665E+01  0.25233075657E+01  0.13967548067E+01  0.62264200498E+01  0.51100000000E-03 0. -1.
        -11    1    3    3    0    0 -0.12996629001E+02  0.26319775473E+02  0.38274700768E+01  0.29602237648E+02  0.51100000000E-03 0.  1.
        -12    1    3    3    0    0  0.30529561596E+01  0.10370374482E+02  0.51130448579E+01  0.11958613461E+02  0.00000000000E+00 0.  1.
</event>
<event>
 7    1  0.2339217E-009  0.4778727E+02  0.7816164E-02  0.1312668E+00
        -11   -1    0    0    0    0  0.00000000000E+00  0.00000000000E+00  0.45593999997E+02  0.45594000000E+02  0.51100000000E-03 0.  1.
         11   -1    0    0    0    0 -0.00000000000E+00 -0.00000000000E+00 -0.45593999997E+02  0.45594000000E+02  0.51100000000E-03 0. -1.
    9900012    2    1    2    0    0  0.15651019850E+02  0.40731970895E+01  0.40275027515E+02  0.47787271916E+02  0.20000003975E+02 0.  0.
         12    1    1    2    0    0 -0.15651019850E+02 -0.40731970895E+01 -0.40275027515E+02  0.43400728084E+02  0.00000000000E+00 0. -1.
         11    1    3    3    0    0 -0.60887580853E+00  0.45976452147E+00  0.13171470047E+02  0.13193549053E+02  0.51100000000E-03 0. -1.
        -11    1    3    3    0    0  0.13028205425E+01 -0.43490230983E+01  0.52527826199E+01  0.69428429904E+01  0.51100000000E-03 0.  1.
        -12    1    3    3    0    0  0.14957075116E+02  0.79624556663E+01  0.21850774848E+02  0.27650879872E+02  0.00000000000E+00 0.  1.
</event>
<event>
 7    1  0.2339217E-009  0.4778728E+02  0.7816164E-02  0.1312668E+00
        -11   -1    0    0    0    0  0.00000000000E+00  0.00000000000E+00  0.45593999997E+02  0.45594000000E+02  0.51100000000E-03 0. -1.
         11   -1    0    0    0    0 -0.00000000000E+00 -0.00000000000E+00 -0.45593999997E+02  0.45594000000E+02  0.51100000000E-03 0.  1.
    9900012    2    1    2    0    0 -0.26314696913E+02  0.25724393934E+02 -0.23009009844E+02  0.47787282829E+02  0.20000053732E+02 0.  0.
         12    1    1    2    0    0  0.26314696913E+02 -0.25724393934E+02  0.23009009844E+02  0.43400717171E+02  0.00000000000E+00 0. -1.
         11    1    3    3    0    0 -0.32321928007E+01  0.43754492265E+01  0.30581028691E+01  0.62404823254E+01  0.51100000000E-03 0. -1.
        -11    1    3    3    0    0 -0.91681492550E+01  0.10357341287E+02 -0.69779781186E+01  0.15492632384E+02  0.51100000000E-03 0.  1.
         12    1    3    3    0    0 -0.13914354858E+02  0.10991603420E+02 -0.19089134595E+02  0.26054168120E+02  0.00000000000E+00 0. -1.
</event>
<event>
 7    1  0.2339217E-009  0.4778727E+02  0.7816164E-02  0.1312668E+00
        -11   -1    0    0    0    0  0.00000000000E+00  0.00000000000E+00  0.45593999997E+02  0.45594000000E+02  0.51100000000E-03 0. -1.
         11   -1    0    0    0    0 -0.00000000000E+00 -0.00000000000E+00 -0.45593999997E+02  0.45594000000E+02  0.51100000000E-03 0.  1.
    9900012    2    1    2    0    0  0.37521206623E+02  0.32507771382E+01 -0.21568843060E+02  0.47787268561E+02  0.19999988679E+02 0.  0.
         12    1    1    2    0    0 -0.37521206623E+02 -0.32507771382E+01  0.21568843060E+02  0.43400731439E+02  0.00000000000E+00 0. -1.
         11    1    3    3    0    0  0.14627690849E+01 -0.13419813893E+01 -0.45566116519E+01  0.49702431985E+01  0.51100000000E-03 0. -1.
        -11    1    3    3    0    0 -0.52804118282E+00  0.25166660095E+01 -0.18042534097E+01  0.31413000369E+01  0.51100000000E-03 0.  1.
        -12    1    3    3    0    0  0.36586478721E+02  0.20760925180E+01 -0.15207977998E+02  0.39675725326E+02  0.00000000000E+00 0.  1.
</event>
<event>
 7    1  0.2339217E-009  0.4778727E+02  0.7816164E-02  0.1312668E+00
        -11   -1    0    0    0    0  0.00000000000E+00  0.00000000000E+00  0.45593999997E+02  0.45594000000E+02  0.51100000000E-03 0.  1.
         11   -1    0    0    0    0 -0.00000000000E+00 -0.00000000000E+00 -0.45593999997E+02  0.45594000000E+02  0.51100000000E-03 0. -1.
    9900012    2    1    2    0    0  0.13370660959E+02  0.12276934095E+02  0.39422400635E+02  0.47787270086E+02  0.19999995628E+02 0.  0.
         12    1    1    2    0    0 -0.13370660959E+02 -0.12276934095E+02 -0.39422400635E+02  0.43400729914E+02  0.00000000000E+00 0. -1.
         11    1    3    3    0    0  0.82453255318E+00  0.60966918793E+01  0.51794986137E+01  0.80421832827E+01  0.51100000000E-03 0. -1.
        -11    1    3    3    0    0  0.66323336071E+01  0.95799544651E+01  0.28633811737E+02  0.30913727558E+02  0.51100000000E-03 0.  1.
        -12    1    3    3    0    0  0.59137947989E+01 -0.33997122497E+01  0.56090902842E+01  0.88313592454E+01  0.00000000000E+00 0.  1.
</event>
<event>
 7    1  0.2339217E-009  0.4778727E+02  0.7816164E-02  0.1312668E+00
        -11   -1    0    0    0    0  0.00000000000E+00  0.00000000000E+00  0.45593999997E+02  0.45594000000E+02  0.51100000000E-03 0.  1.
         11   -1    0    0    0    0 -0.00000000000E+00 -0.00000000000E+00 -0.45593999997E+02  0.45594000000E+02  0.51100000000E-03 0. -1.
    9900012    2    1    2    0    0 -0.15173219952E+02 -0.35043680635E+02  0.20623710044E+02  0.47787267608E+02  0.19999984334E+02 0.  0.
         12    1    1    2    0    0  0.15173219952E+02  0.35043680635E+02 -0.20623710044E+02  0.43400732392E+02  0.00000000000E+00 0. -1.
         11    1    3    3    0    0 -0.10131796734E+01 -0.64594532794E+01 -0.44963034075E+00  0.65538719413E+01  0.51100000000E-03 0. -1.
        -11    1    3    3    0    0 -0.13077136159E+02 -0.97471222180E+01  0.72797455547E+01  0.17860923191E+02  0.51100000000E-03 0.  1.
         12    1    3    3    0    0 -0.10829041199E+01 -0.18837105137E+02  0.13793594830E+02  0.23372472476E+02  0.00000000000E+00 0. -1.
</event>
<event>
 7    1  0.2339217E-009  0.4778727E+02  0.7816164E-02  0.1312668E+00
        -11   -1    0    0    0    0  0.00000000000E+00  0.00000000000E+00  0.45593999997E+02  0.45594000000E+02  0.51100000000E-03 0.  1.
         11   -1    0    0    0    0 -0.00000000000E+00 -0.00000000000E+00 -0.45593999997E+02  0.45594000000E+02  0.51100000000E-03 0. -1.
    9900012    2    1    2    0    0 -0.37744637214E+02 -0.16419858390E+02 -0.13760583919E+02  0.47787273534E+02  0.20000011353E+02 0.  0.
         12    1    1    2    0    0  0.37744637214E+02  0.16419858390E+02  0.13760583919E+02  0.43400726466E+02  0.00000000000E+00 0. -1.
         11    1    3    3    0    0 -0.16135999383E+02 -0.37564889730E+01 -0.10936191993E+02  0.19851498207E+02  0.51100000000E-03 0. -1.
        -11    1    3    3    0    0 -0.14670493683E+01  0.22532375603E+01  0.16854543920E+00  0.26940158089E+01  0.51100000000E-03 0.  1.
        -12    1    3    3    0    0 -0.20141588463E+02 -0.14916606977E+02 -0.29929373648E+01  0.25241759518E+02  0.00000000000E+00 0.  1.
</event>
<event>
 7    1  0.2339217E-009  0.4778727E+02  0.7816164E-02  0.1312668E+00
        -11   -1    0    0    0    0  0.00000000000E+00  0.00000000000E+00  0.45593999997E+02  0.45594000000E+02  0.51100000000E-03 0.  1.
         11   -1    0    0    0    0 -0.00000000000E+00 -0.00000000000E+00 -0.45593999997E+02  0.45594000000E+02  0.51100000000E-03 0. -1.
    9900012    2    1    2    0    0 -0.65963424207E+01  0.36211534813E+02  0.22996437435E+02  0.47787272800E+02  0.20000008002E+02 0.  0.
         12    1    1    2    0    0  0.65963424207E+01 -0.36211534813E+02 -0.22996437435E+02  0.43400727200E+02  0.00000000000E+00 0. -1.
         11    1    3    3    0    0  0.22917358140E+01  0.70207364497E+01  0.77949396653E+01  0.10737964332E+02  0.51100000000E-03 0. -1.
        -11    1    3    3    0    0  0.16304826817E+01  0.15992893892E+01 -0.18605896324E+01  0.29458435748E+01  0.51100000000E-03 0.  1.
        -12    1    3    3    0    0 -0.10518560916E+02  0.27591508974E+02  0.17062087402E+02  0.34103464893E+02  0.00000000000E+00 0.  1.
</event>
<event>
 7    1  0.2339217E-009  0.4778727E+02  0.7816164E-02  0.1312668E+00
        -11   -1    0    0    0    0  0.00000000000E+00  0.00000000000E+00  0.45593999997E+02  0.45594000000E+02  0.51100000000E-03 0.  1.
         11   -1    0    0    0    0 -0.00000000000E+00 -0.00000000000E+00 -0.45593999997E+02  0.45594000000E+02  0.51100000000E-03 0. -1.
    9900012    2    1    2    0    0 -0.25345541534E+02 -0.30236234001E+02 -0.18083057871E+02  0.47787270695E+02  0.19999998407E+02 0.  0.
         12    1    1    2    0    0  0.25345541534E+02  0.30236234001E+02  0.18083057871E+02  0.43400729305E+02  0.00000000000E+00 0. -1.
         11    1    3    3    0    0 -0.13279761399E+02 -0.21883241198E+01 -0.58657559371E+01  0.14681550267E+02  0.51100000000E-03 0. -1.
        -11    1    3    3    0    0 -0.51156332209E+01 -0.91630201214E+01 -0.57640436587E+01  0.11973088180E+02  0.51100000000E-03 0.  1.
        -12    1    3    3    0    0 -0.69501469141E+01 -0.18884889760E+02 -0.64532582749E+01  0.21132632248E+02  0.00000000000E+00 0.  1.
</event>
<event>
 7    1  0.2339217E-009  0.4778727E+02  0.7816164E-02  0.1312668E+00
        -11   -1    0    0    0    0  0.00000000000E+00  0.00000000000E+00  0.45593999997E+02  0.45594000000E+02  0.51100000000E-03 0. -1.
         11   -1    0    0    0    0 -0.00000000000E+00 -0.00000000000E+00 -0.45593999997E+02  0.45594000000E+02  0.51100000000E-03 0.  1.
    9900012    2    1    2    0    0  0.42737273923E+02 -0.26214258156E+01 -0.70906134872E+01  0.47787271258E+02  0.20000000975E+02 0.  0.
         12    1    1    2    0    0 -0.42737273923E+02  0.26214258156E+01  0.70906134872E+01  0.43400728742E+02  0.00000000000E+00 0. -1.
         11    1    3    3    0    0  0.11874098488E+02 -0.23562828092E+00 -0.27934364229E+01  0.12200533713E+02  0.51100000000E-03 0. -1.
        -11    1    3    3    0    0  0.14874253873E+02 -0.94485642753E+01 -0.41640977594E+01  0.18106863493E+02  0.51100000000E-03 0.  1.
         12    1    3    3    0    0  0.15988921562E+02  0.70627667406E+01 -0.13307930492E+00  0.17479874052E+02  0.00000000000E+00 0. -1.
</event>
<event>
 7    1  0.2339217E-009  0.4778727E+02  0.7816164E-02  0.1312668E+00
        -11   -1    0    0    0    0  0.00000000000E+00  0.00000000000E+00  0.45593999997E+02  0.45594000000E+02  0.51100000000E-03 0.  1.
         11   -1    0    0    0    0 -0.00000000000E+00 -0.00000000000E+00 -0.45593999997E+02  0.45594000000E+02  0.51100000000E-03 0. -1.
    9900012    2    1    2    0    0 -0.38806235500E+02 -0.27404901565E+01  0.19240297010E+02  0.47787271561E+02  0.20000002356E+02 0.  0.
         12    1    1    2    0    0  0.38806235500E+02  0.27404901565E+01 -0.19240297010E+02  0.43400728439E+02  0.00000000000E+00 0. -1.
         11    1    3    3    0    0 -0.84079535728E+01  0.56842003979E+01  0.45290119456E+01  0.11113764750E+02  0.51100000000E-03 0. -1.
        -11    1    3    3    0    0 -0.22064476198E+02 -0.67751114600E+00  0.11273809527E+02  0.24787071484E+02  0.51100000000E-03 0.  1.
        -12    1    3    3    0    0 -0.83338057294E+01 -0.77471794084E+01  0.34374755373E+01  0.11886435327E+02  0.00000000000E+00 0.  1.
</event>
<event>
 7    1  0.2339217E-009  0.4778727E+02  0.7816164E-02  0.1312668E+00
        -11   -1    0    0    0    0  0.00000000000E+00  0.00000000000E+00  0.45593999997E+02  0.45594000000E+02  0.51100000000E-03 0. -1.
         11   -1    0    0    0    0 -0.00000000000E+00 -0.00000000000E+00 -0.45593999997E+02  0.45594000000E+02  0.51100000000E-03 0.  1.
    9900012    2    1    2    0    0 -0.42284559966E+02  0.32311030651E+01 -0.92303578472E+01  0.47787267926E+02  0.19999985782E+02 0.  0.
         12    1    1    2    0    0  0.42284559966E+02 -0.32311030651E+01  0.92303578472E+01  0.43400732074E+02  0.00000000000E+00 0. -1.
         11    1    3    3    0    0 -0.23792102935E+02  0.49279618806E+01 -0.28478678226E+01  0.24463428250E+02  0.51100000000E-03 0.  1.
        -11    1    3    3    0    0 -0.16760131936E+02 -0.49288508927E+01 -0.19609482312E+01  0.17579559490E+02  0.51100000000E-03 0. -1.
        -12    1    3    3    0    0 -0.17323250956E+01  0.32319920771E+01 -0.44215417934E+01  0.57442801859E+01  0.00000000000E+00 0.  1.
</event>
<event>
 7    1  0.2339217E-009  0.4778727E+02  0.7816164E-02  0.1312668E+00
        -11   -1    0    0    0    0  0.00000000000E+00  0.00000000000E+00  0.45593999997E+02  0.45594000000E+02  0.51100000000E-03 0. -1.
         11   -1    0    0    0    0 -0.00000000000E+00 -0.00000000000E+00 -0.45593999997E+02  0.45594000000E+02  0.51100000000E-03 0.  1.
    9900012    2    1    2    0    0  0.97517425988E+01 -0.39040439604E+02 -0.16259475588E+02  0.47787274723E+02  0.20000016772E+02 0.  0.
         12    1    1    2    0    0 -0.97517425988E+01  0.39040439604E+02  0.16259475588E+02  0.43400725277E+02  0.00000000000E+00 0. -1.
         11    1    3    3    0    0 -0.25430344265E+01 -0.34495889725E+01  0.51603986363E+00  0.43165942102E+01  0.51100000000E-03 0. -1.
        -11    1    3    3    0    0  0.10636053730E+02 -0.15529899771E+02 -0.13289673839E+02  0.23041676520E+02  0.51100000000E-03 0.  1.
         12    1    3    3    0    0  0.16587232955E+01 -0.20060950860E+02 -0.34858416122E+01  0.20429003992E+02  0.00000000000E+00 0. -1.
</event>
<event>
 7    1  0.2339217E-009  0.4778728E+02  0.7816164E-02  0.1312668E+00
        -11   -1    0    0    0    0  0.00000000000E+00  0.00000000000E+00  0.45593999997E+02  0.45594000000E+02  0.51100000000E-03 0. -1.
         11   -1    0    0    0    0 -0.00000000000E+00 -0.00000000000E+00 -0.45593999997E+02  0.45594000000E+02  0.51100000000E-03 0.  1.
    9900012    2    1    2    0    0 -0.30469853401E+02  0.19053701533E+02 -0.24334486915E+02  0.47787276944E+02  0.20000026899E+02 0.  0.
         12    1    1    2    0    0  0.30469853401E+02 -0.19053701533E+02  0.24334486915E+02  0.43400723056E+02  0.00000000000E+00 0. -1.
         11    1    3    3    0    0 -0.19155360889E+02  0.48425608836E+01 -0.16013768241E+02  0.25432636911E+02  0.51100000000E-03 0. -1.
        -11    1    3    3    0    0 -0.12417846832E+02  0.10226612891E+02 -0.85423499435E+01  0.18214232731E+02  0.51100000000E-03 0.  1.
         12    1    3    3    0    0  0.11033543199E+01  0.39845277576E+01  0.22163126980E+00  0.41404073020E+01  0.00000000000E+00 0. -1.
</event>
<event>
 7    1  0.2339217E-009  0.4778727E+02  0.7816164E-02  0.1312668E+00
        -11   -1    0    0    0    0  0.00000000000E+00  0.00000000000E+00  0.45593999997E+02  0.45594000000E+02  0.51100000000E-03 0. -1.
         11   -1    0    0    0    0 -0.00000000000E+00 -0.00000000000E+00 -0.45593999997E+02  0.45594000000E+02  0.51100000000E-03 0.  1.
    9900012    2    1    2    0    0 -0.21364364656E+02 -0.96596962388E+01 -0.36522285998E+02  0.47787272090E+02  0.20000004769E+02 0.  0.
         12    1    1    2    0    0  0.21364364656E+02  0.96596962388E+01  0.36522285998E+02  0.43400727910E+02  0.00000000000E+00 0. -1.
         11    1    3    3    0    0 -0.67664768810E+00 -0.33116460821E+01 -0.18044835160E+02  0.18358674464E+02  0.51100000000E-03 0. -1.
        -11    1    3    3    0    0 -0.19034298988E+01 -0.13408184864E+01  0.36342640083E+00  0.23564631555E+01  0.51100000000E-03 0.  1.
        -12    1    3    3    0    0 -0.18784287069E+02 -0.50072316703E+01 -0.18840877239E+02  0.27072134471E+02  0.00000000000E+00 0.  1.
</event>
<event>
 7    1  0.2339217E-009  0.4778727E+02  0.7816164E-02  0.1312668E+00
        -11   -1    0    0    0    0  0.00000000000E+00  0.00000000000E+00  0.45593999997E+02  0.45594000000E+02  0.51100000000E-03 0.  1.
         11   -1    0    0    0    0 -0.00000000000E+00 -0.00000000000E+00 -0.45593999997E+02  0.45594000000E+02  0.51100000000E-03 0. -1.
    9900012    2    1    2    0    0 -0.15954629862E+01  0.70143030582E+00  0.43365722024E+02  0.47787270130E+02  0.19999995829E+02 0.  0.
         12    1    1    2    0    0  0.15954629862E+01 -0.70143030582E+00 -0.43365722024E+02  0.43400729870E+02  0.00000000000E+00 0. -1.
         11    1    3    3    0    0  0.53065749652E+01 -0.18916928994E+01  0.10665942319E+02  0.12062361531E+02  0.51100000000E-03 0. -1.
        -11    1    3    3    0    0  0.22842173487E+00  0.30719399219E+01  0.10137296598E+01  0.32429368568E+01  0.51100000000E-03 0.  1.
        -12    1    3    3    0    0 -0.71304596863E+01 -0.47881671669E+00  0.31686050045E+02  0.32481971742E+02  0.00000000000E+00 0.  1.
</event>
<event>
 7    1  0.2339217E-009  0.4778727E+02  0.7816164E-02  0.1312668E+00
        -11   -1    0    0    0    0  0.00000000000E+00  0.00000000000E+00  0.45593999997E+02  0.45594000000E+02  0.51100000000E-03 0.  1.
         11   -1    0    0    0    0 -0.00000000000E+00 -0.00000000000E+00 -0.45593999997E+02  0.45594000000E+02  0.51100000000E-03 0. -1.
    9900012    2    1    2    0    0 -0.26891138210E+02 -0.13369301319E+02  0.31332918816E+02  0.47787270357E+02  0.19999996867E+02 0.  0.
         12    1    1    2    0    0  0.26891138210E+02  0.13369301319E+02 -0.31332918816E+02  0.43400729643E+02  0.00000000000E+00 0. -1.
         11    1    3    3    0    0 -0.10834020629E+02 -0.98940309716E+00  0.81858242857E+01  0.13614794930E+02  0.51100000000E-03 0. -1.
        -11    1    3    3    0    0 -0.65852204847E+01 -0.71064728382E+01  0.12892783846E+01  0.97739103765E+01  0.51100000000E-03 0.  1.
        -12    1    3    3    0    0 -0.94718970957E+01 -0.52734253834E+01  0.21857816146E+02  0.24398565051E+02  0.00000000000E+00 0.  1.
</event>
<event>
 7    1  0.2339217E-009  0.4778725E+02  0.7816164E-02  0.1312668E+00
        -11   -1    0    0    0    0  0.00000000000E+00  0.00000000000E+00  0.45593999997E+02  0.45594000000E+02  0.51100000000E-03 0.  1.
         11   -1    0    0    0    0 -0.00000000000E+00 -0.00000000000E+00 -0.45593999997E+02  0.45594000000E+02  0.51100000000E-03 0. -1.
    9900012    2    1    2    0    0 -0.10842874622E+02 -0.36863720669E+02  0.20177298343E+02  0.47787248854E+02  0.19999898825E+02 0.  0.
         12    1    1    2    0    0  0.10842874622E+02  0.36863720669E+02 -0.20177298343E+02  0.43400751146E+02  0.00000000000E+00 0. -1.
         11    1    3    3    0    0 -0.17075946212E+01 -0.57922488166E+00  0.60099785232E+01  0.62746492304E+01  0.51100000000E-03 0. -1.
        -11    1    3    3    0    0  0.54330293603E+00 -0.33639191287E+01  0.49017963804E+01  0.59698189253E+01  0.51100000000E-03 0.  1.
        -12    1    3    3    0    0 -0.96785829368E+01 -0.32920576658E+02  0.92655234395E+01  0.35542780698E+02  0.00000000000E+00 0.  1.
</event>
<event>
 7    1  0.2339217E-009  0.4778727E+02  0.7816164E-02  0.1312668E+00
        -11   -1    0    0    0    0  0.00000000000E+00  0.00000000000E+00  0.45593999997E+02  0.45594000000E+02  0.51100000000E-03 0.  1.
         11   -1    0    0    0    0 -0.00000000000E+00 -0.00000000000E+00 -0.45593999997E+02  0.45594000000E+02  0.51100000000E-03 0. -1.
    9900012    2    1    2    0    0  0.18085772915E+02 -0.32836513676E+02  0.21869870169E+02  0.47787273813E+02  0.20000012622E+02 0.  0.
         12    1    1    2    0    0 -0.18085772915E+02  0.32836513676E+02 -0.21869870169E+02  0.43400726187E+02  0.00000000000E+00 0. -1.
         11    1    3    3    0    0  0.74075021808E+00  0.15546630845E+01  0.26297316263E+01  0.31434339312E+01  0.51100000000E-03 0. -1.
        -11    1    3    3    0    0 -0.43631985921E+00 -0.21402059178E+01  0.44496095184E+01  0.49568015410E+01  0.51100000000E-03 0.  1.
        -12    1    3    3    0    0  0.17781342556E+02 -0.32250970843E+02  0.14790529024E+02  0.39687038341E+02  0.00000000000E+00 0.  1.
</event>
<event>
 7    1  0.2730109E-009  0.4778727E+02  0.7816164E-02  0.1312668E+00
        -11   -1    0    0    0    0  0.00000000000E+00  0.00000000000E+00  0.45593999997E+02  0.45594000000E+02  0.51100000000E-03 0.  1.
         11   -1    0    0    0    0 -0.00000000000E+00 -0.00000000000E+00 -0.45593999997E+02  0.45594000000E+02  0.51100000000E-03 0. -1.
    9900012    2    1    2    0    0 -0.37245232799E+02 -0.22280368658E+02 -0.33742342961E-01  0.47787270371E+02  0.19999996930E+02 0.  0.
         12    1    1    2    0    0  0.37245232799E+02  0.22280368658E+02  0.33742342961E-01  0.43400729629E+02  0.00000000000E+00 0. -1.
         11    1    3    3    0    0 -0.91894909056E+00  0.11928084714E+01  0.19168923658E+01  0.24375676573E+01  0.51100000000E-03 0. -1.
        -11    1    3    3    0    0 -0.16091323659E+02 -0.10635363671E+02  0.58370828009E+01  0.20152250331E+02  0.51100000000E-03 0.  1.
        -12    1    3    3    0    0 -0.20234960049E+02 -0.12837813459E+02 -0.77877175097E+01  0.25197452383E+02  0.00000000000E+00 0.  1.
</event>
<event>
 7    1  0.2339217E-009  0.4778727E+02  0.7816164E-02  0.1312668E+00
        -11   -1    0    0    0    0  0.00000000000E+00  0.00000000000E+00  0.45593999997E+02  0.45594000000E+02  0.51100000000E-03 0. -1.
         11   -1    0    0    0    0 -0.00000000000E+00 -0.00000000000E+00 -0.45593999997E+02  0.45594000000E+02  0.51100000000E-03 0.  1.
    9900012    2    1    2    0    0 -0.32559945006E+02 -0.83914611687E+01 -0.27441878117E+02  0.47787270583E+02  0.19999997896E+02 0.  0.
         12    1    1    2    0    0  0.32559945006E+02  0.83914611687E+01  0.27441878117E+02  0.43400729417E+02  0.00000000000E+00 0. -1.
         11    1    3    3    0    0 -0.37403894550E+01 -0.13491724725E+01 -0.49302269259E+00  0.40067257545E+01  0.51100000000E-03 0. -1.
        -11    1    3    3    0    0 -0.21544237487E+02 -0.12097618397E+02 -0.23993933542E+02  0.34441477710E+02  0.51100000000E-03 0.  1.
         12    1    3    3    0    0 -0.72753180634E+01  0.50553297007E+01 -0.29549218828E+01  0.93390671182E+01  0.00000000000E+00 0. -1.
</event>
<event>
 7    1  0.2339217E-009  0.4778728E+02  0.7816164E-02  0.1312668E+00
        -11   -1    0    0    0    0  0.00000000000E+00  0.00000000000E+00  0.45593999997E+02  0.45594000000E+02  0.51100000000E-03 0. -1.
         11   -1    0    0    0    0 -0.00000000000E+00 -0.00000000000E+00 -0.45593999997E+02  0.45594000000E+02  0.51100000000E-03 0.  1.
    9900012    2    1    2    0    0 -0.12846818993E+02  0.40937140726E+02 -0.65369991964E+01  0.47787278721E+02  0.20000034999E+02 0.  0.
         12    1    1    2    0    0  0.12846818993E+02 -0.40937140726E+02  0.65369991964E+01  0.43400721279E+02  0.00000000000E+00 0. -1.
         11    1    3    3    0    0 -0.98668057931E+01  0.10890174713E+02 -0.16881081517E+01  0.14791871796E+02  0.51100000000E-03 0. -1.
        -11    1    3    3    0    0 -0.92032496572E+00  0.18216218259E+02 -0.89352342716E+01  0.20310490330E+02  0.51100000000E-03 0.  1.
         12    1    3    3    0    0 -0.20596882346E+01  0.11830747754E+02  0.40863432269E+01  0.12684916595E+02  0.00000000000E+00 0. -1.
</event>
<event>
 7    1  0.2339217E-009  0.4778728E+02  0.7816164E-02  0.1312668E+00
        -11   -1    0    0    0    0  0.00000000000E+00  0.00000000000E+00  0.45593999997E+02  0.45594000000E+02  0.51100000000E-03 0. -1.
         11   -1    0    0    0    0 -0.00000000000E+00 -0.00000000000E+00 -0.45593999997E+02  0.45594000000E+02  0.51100000000E-03 0.  1.
    9900012    2    1    2    0    0  0.37713476334E+02  0.19007601648E+02 -0.10001379121E+02  0.47787276482E+02  0.20000024791E+02 0.  0.
         12    1    1    2    0    0 -0.37713476334E+02 -0.19007601648E+02  0.10001379121E+02  0.43400723518E+02  0.00000000000E+00 0. -1.
         11    1    3    3    0    0  0.16097554206E+02  0.55254049025E+01 -0.75722112821E+01  0.18627928890E+02  0.51100000000E-03 0. -1.
        -11    1    3    3    0    0  0.18664145509E+01  0.41701915436E+01 -0.54554251155E+01  0.71158741022E+01  0.51100000000E-03 0.  1.
         12    1    3    3    0    0  0.19749507576E+02  0.93120052019E+01  0.30262572763E+01  0.22043473490E+02  0.00000000000E+00 0. -1.
</event>
<event>
 7    1  0.2339217E-009  0.4778727E+02  0.7816164E-02  0.1312668E+00
        -11   -1    0    0    0    0  0.00000000000E+00  0.00000000000E+00  0.45593999997E+02  0.45594000000E+02  0.51100000000E-03 0.  1.
         11   -1    0    0    0    0 -0.00000000000E+00 -0.00000000000E+00 -0.45593999997E+02  0.45594000000E+02  0.51100000000E-03 0. -1.
    9900012    2    1    2    0    0  0.35485447322E+02  0.24463868371E+02 -0.50916923024E+01  0.47787272381E+02  0.20000006093E+02 0.  0.
         12    1    1    2    0    0 -0.35485447322E+02 -0.24463868371E+02  0.50916923024E+01  0.43400727619E+02  0.00000000000E+00 0. -1.
         11    1    3    3    0    0  0.19748426205E+02  0.18248811188E+02 -0.61763529696E+01  0.27589251233E+02  0.51100000000E-03 0. -1.
        -11    1    3    3    0    0  0.41772230271E+01  0.71525541240E+01 -0.12233075254E+01  0.83728552047E+01  0.51100000000E-03 0.  1.
         12    1    3    3    0    0  0.11559798091E+02 -0.93749694017E+00  0.23079681926E+01  0.11825165943E+02  0.00000000000E+00 0. -1.
</event>
<event>
 7    1  0.2339217E-009  0.4778728E+02  0.7816164E-02  0.1312668E+00
        -11   -1    0    0    0    0  0.00000000000E+00  0.00000000000E+00  0.45593999997E+02  0.45594000000E+02  0.51100000000E-03 0.  1.
         11   -1    0    0    0    0 -0.00000000000E+00 -0.00000000000E+00 -0.45593999997E+02  0.45594000000E+02  0.51100000000E-03 0. -1.
    9900012    2    1    2    0    0  0.42241040668E+02  0.23689019835E+00 -0.99629736550E+01  0.47787280217E+02  0.20000041819E+02 0.  0.
         12    1    1    2    0    0 -0.42241040668E+02 -0.23689019835E+00  0.99629736550E+01  0.43400719783E+02  0.00000000000E+00 0. -1.
         11    1    3    3    0    0  0.81183650863E+01  0.69232093105E+01  0.18567930947E+01  0.10829882718E+02  0.51100000000E-03 0. -1.
        -11    1    3    3    0    0  0.93755946509E+01 -0.14760549802E+01 -0.13515616577E+01  0.95868259887E+01  0.51100000000E-03 0.  1.
         12    1    3    3    0    0  0.24747080931E+02 -0.52102641320E+01 -0.10468205092E+02  0.27370571510E+02  0.00000000000E+00 0. -1.
</event>
<event>
 7    1  0.2339217E-009  0.4778727E+02  0.7816164E-02  0.1312668E+00
        -11   -1    0    0    0    0  0.00000000000E+00  0.00000000000E+00  0.45593999997E+02  0.45594000000E+02  0.51100000000E-03 0.  1.
         11   -1    0    0    0    0 -0.00000000000E+00 -0.00000000000E+00 -0.45593999997E+02  0.45594000000E+02  0.51100000000E-03 0. -1.
    9900012    2    1    2    0    0 -0.33453854694E+02  0.24562355628E+02  0.12694624427E+02  0.47787271928E+02  0.20000004028E+02 0.  0.
         12    1    1    2    0    0  0.33453854694E+02 -0.24562355628E+02 -0.12694624427E+02  0.43400728072E+02  0.00000000000E+00 0. -1.
         11    1    3    3    0    0 -0.10068029118E+02  0.51688502158E+01  0.12036994997E+02  0.16521848314E+02  0.51100000000E-03 0. -1.
        -11    1    3    3    0    0 -0.18191606387E+02  0.11107743086E+02  0.19383872395E+01  0.21402659758E+02  0.51100000000E-03 0.  1.
        -12    1    3    3    0    0 -0.51942191889E+01  0.82857623262E+01 -0.12807578094E+01  0.98627638558E+01  0.00000000000E+00 0.  1.
</event>
<event>
 7    1  0.2339217E-009  0.4778728E+02  0.7816164E-02  0.1312668E+00
        -11   -1    0    0    0    0  0.00000000000E+00  0.00000000000E+00  0.45593999997E+02  0.45594000000E+02  0.51100000000E-03 0.  1.
         11   -1    0    0    0    0 -0.00000000000E+00 -0.00000000000E+00 -0.45593999997E+02  0.45594000000E+02  0.51100000000E-03 0. -1.
    9900012    2    1    2    0    0 -0.78301348266E+01  0.21923282740E+02  0.36628966803E+02  0.47787279423E+02  0.20000038202E+02 0.  0.
         12    1    1    2    0    0  0.78301348266E+01 -0.21923282740E+02 -0.36628966803E+02  0.43400720577E+02  0.00000000000E+00 0. -1.
         11    1    3    3    0    0 -0.27497317696E+01  0.79629779100E+01  0.37824539162E+01  0.92345546665E+01  0.51100000000E-03 0. -1.
        -11    1    3    3    0    0 -0.84682414723E+01  0.46896485309E+01  0.11479261565E+02  0.15015903680E+02  0.51100000000E-03 0.  1.
        -12    1    3    3    0    0  0.33878384152E+01  0.92706562992E+01  0.21367251322E+02  0.23536821077E+02  0.00000000000E+00 0.  1.
</event>
<event>
 7    1  0.2339217E-009  0.4778727E+02  0.7816164E-02  0.1312668E+00
        -11   -1    0    0    0    0  0.00000000000E+00  0.00000000000E+00  0.45593999997E+02  0.45594000000E+02  0.51100000000E-03 0.  1.
         11   -1    0    0    0    0 -0.00000000000E+00 -0.00000000000E+00 -0.45593999997E+02  0.45594000000E+02  0.51100000000E-03 0. -1.
    9900012    2    1    2    0    0  0.36168541020E+02 -0.12798533916E+02  0.20289338821E+02  0.47787273051E+02  0.20000009148E+02 0.  0.
         12    1    1    2    0    0 -0.36168541020E+02  0.12798533916E+02 -0.20289338821E+02  0.43400726949E+02  0.00000000000E+00 0. -1.
         11    1    3    3    0    0  0.66278561651E+01 -0.52416081700E+01  0.69246829356E+00  0.84783516176E+01  0.51100000000E-03 0.  1.
        -11    1    3    3    0    0  0.26802555122E+02 -0.10773326762E+02  0.19894072009E+02  0.35074429887E+02  0.51100000000E-03 0. -1.
         12    1    3    3    0    0  0.27381297333E+01  0.32164010159E+01 -0.29720148125E+00  0.42344915458E+01  0.00000000000E+00 0. -1.
</event>
<event>
 7    1  0.2339217E-009  0.4778725E+02  0.7816164E-02  0.1312668E+00
        -11   -1    0    0    0    0  0.00000000000E+00  0.00000000000E+00  0.45593999997E+02  0.45594000000E+02  0.51100000000E-03 0.  1.
         11   -1    0    0    0    0 -0.00000000000E+00 -0.00000000000E+00 -0.45593999997E+02  0.45594000000E+02  0.51100000000E-03 0. -1.
    9900012    2    1    2    0    0 -0.11805254656E+02 -0.41763507914E+02  0.26585999783E+00  0.47787247560E+02  0.19999892926E+02 0.  0.
         12    1    1    2    0    0  0.11805254656E+02  0.41763507914E+02 -0.26585999783E+00  0.43400752440E+02  0.00000000000E+00 0. -1.
         11    1    3    3    0    0 -0.11629669435E+02 -0.29337987283E+02  0.15667848361E+01  0.31597808848E+02  0.51100000000E-03 0.  1.
        -11    1    3    3    0    0 -0.33470910676E+01 -0.23537950646E+01  0.26947164254E+01  0.48994761654E+01  0.51100000000E-03 0. -1.
         12    1    3    3    0    0  0.31715058457E+01 -0.10071725566E+02 -0.39956412637E+01  0.11289962547E+02  0.00000000000E+00 0. -1.
</event>
<event>
 7    1  0.2339217E-009  0.4778727E+02  0.7816164E-02  0.1312668E+00
        -11   -1    0    0    0    0  0.00000000000E+00  0.00000000000E+00  0.45593999997E+02  0.45594000000E+02  0.51100000000E-03 0.  1.
         11   -1    0    0    0    0 -0.00000000000E+00 -0.00000000000E+00 -0.45593999997E+02  0.45594000000E+02  0.51100000000E-03 0. -1.
    9900012    2    1    2    0    0  0.20154180438E+02  0.37116222137E+02  0.99909345617E+01  0.47787266040E+02  0.19999977181E+02 0.  0.
         12    1    1    2    0    0 -0.20154180438E+02 -0.37116222137E+02 -0.99909345617E+01  0.43400733960E+02  0.00000000000E+00 0. -1.
         11    1    3    3    0    0  0.41319053984E+01  0.75343268686E+01  0.53665894602E+01  0.10131091071E+02  0.51100000000E-03 0. -1.
        -11    1    3    3    0    0  0.65456907247E+01  0.10732302943E+02  0.97922466690E+01  0.15934757250E+02  0.51100000000E-03 0.  1.
        -12    1    3    3    0    0  0.94765843152E+01  0.18849592325E+02 -0.51679015674E+01  0.21721417719E+02  0.00000000000E+00 0.  1.
</event>
<event>
 7    1  0.2339217E-009  0.4778727E+02  0.7816164E-02  0.1312668E+00
        -11   -1    0    0    0    0  0.00000000000E+00  0.00000000000E+00  0.45593999997E+02  0.45594000000E+02  0.51100000000E-03 0.  1.
         11   -1    0    0    0    0 -0.00000000000E+00 -0.00000000000E+00 -0.45593999997E+02  0.45594000000E+02  0.51100000000E-03 0. -1.
    9900012    2    1    2    0    0  0.32296760351E+02  0.28545413584E+02  0.50697113469E+01  0.47787270295E+02  0.19999996582E+02 0.  0.
         12    1    1    2    0    0 -0.32296760351E+02 -0.28545413584E+02 -0.50697113469E+01  0.43400729705E+02  0.00000000000E+00 0. -1.
         11    1    3    3    0    0  0.31524193120E+01  0.91444219558E+01  0.17771547371E+01  0.98344537034E+01  0.51100000000E-03 0. -1.
        -11    1    3    3    0    0  0.15117983652E+02  0.17886869694E+02 -0.19314554281E+00  0.23420735314E+02  0.51100000000E-03 0.  1.
        -12    1    3    3    0    0  0.14026357386E+02  0.15141219334E+01  0.34857021527E+01  0.14532081277E+02  0.00000000000E+00 0.  1.
</event>
<event>
 7    1  0.2339217E-009  0.4778728E+02  0.7816164E-02  0.1312668E+00
        -11   -1    0    0    0    0  0.00000000000E+00  0.00000000000E+00  0.45593999997E+02  0.45594000000E+02  0.51100000000E-03 0. -1.
         11   -1    0    0    0    0 -0.00000000000E+00 -0.00000000000E+00 -0.45593999997E+02  0.45594000000E+02  0.51100000000E-03 0.  1.
    9900012    2    1    2    0    0  0.25265868921E+02  0.29213948992E+02  0.19794024038E+02  0.47787281853E+02  0.20000049282E+02 0.  0.
         12    1    1    2    0    0 -0.25265868921E+02 -0.29213948992E+02 -0.19794024038E+02  0.43400718147E+02  0.00000000000E+00 0. -1.
         11    1    3    3    0    0  0.40214523145E+01  0.74526383861E+00 -0.67427864677E+00  0.41451355661E+01  0.51100000000E-03 0. -1.
        -11    1    3    3    0    0  0.75207784740E+01  0.14199971229E+02  0.13578711851E+01  0.16125914119E+02  0.51100000000E-03 0.  1.
         12    1    3    3    0    0  0.13723638133E+02  0.14268713924E+02  0.19110431499E+02  0.27516232168E+02  0.00000000000E+00 0. -1.
</event>
<event>
 7    1  0.2339217E-009  0.4778727E+02  0.7816164E-02  0.1312668E+00
        -11   -1    0    0    0    0  0.00000000000E+00  0.00000000000E+00  0.45593999997E+02  0.45594000000E+02  0.51100000000E-03 0.  1.
         11   -1    0    0    0    0 -0.00000000000E+00 -0.00000000000E+00 -0.45593999997E+02  0.45594000000E+02  0.51100000000E-03 0. -1.
    9900012    2    1    2    0    0 -0.18282586162E+02  0.36819786700E+02  0.13916656301E+02  0.47787274522E+02  0.20000015855E+02 0.  0.
         12    1    1    2    0    0  0.18282586162E+02 -0.36819786700E+02 -0.13916656301E+02  0.43400725478E+02  0.00000000000E+00 0. -1.
         11    1    3    3    0    0  0.11612196674E+01 -0.16123575889E+01  0.16424493628E+00  0.19937664785E+01  0.51100000000E-03 0. -1.
        -11    1    3    3    0    0 -0.60085297101E+01  0.86043105956E+01  0.52866609706E+00  0.10507905510E+02  0.51100000000E-03 0.  1.
        -12    1    3    3    0    0 -0.13435276119E+02  0.29827833694E+02  0.13223745267E+02  0.35285602533E+02  0.00000000000E+00 0.  1.
</event>
<event>
 7    1  0.2339217E-009  0.4778727E+02  0.7816164E-02  0.1312668E+00
        -11   -1    0    0    0    0  0.00000000000E+00  0.00000000000E+00  0.45593999997E+02  0.45594000000E+02  0.51100000000E-03 0. -1.
         11   -1    0    0    0    0 -0.00000000000E+00 -0.00000000000E+00 -0.45593999997E+02  0.45594000000E+02  0.51100000000E-03 0.  1.
    9900012    2    1    2    0    0  0.28456414566E+02 -0.64737379695E+01  0.32123921195E+02  0.47787272745E+02  0.20000007756E+02 0.  0.
         12    1    1    2    0    0 -0.28456414566E+02  0.64737379695E+01 -0.32123921195E+02  0.43400727255E+02  0.00000000000E+00 0. -1.
         11    1    3    3    0    0  0.43036012787E+01 -0.43152869281E+01  0.12780145859E+02  0.14158912870E+02  0.51100000000E-03 0. -1.
        -11    1    3    3    0    0  0.94447212732E+01 -0.44914221542E+01  0.14677692220E+02  0.18022493780E+02  0.51100000000E-03 0.  1.
         12    1    3    3    0    0  0.14708092015E+02  0.23329711127E+01  0.46660831164E+01  0.15605866095E+02  0.00000000000E+00 0. -1.
</event>
<event>
 7    1  0.2339217E-009  0.4778727E+02  0.7816164E-02  0.1312668E+00
        -11   -1    0    0    0    0  0.00000000000E+00  0.00000000000E+00  0.45593999997E+02  0.45594000000E+02  0.51100000000E-03 0. -1.
         11   -1    0    0    0    0 -0.00000000000E+00 -0.00000000000E+00 -0.45593999997E+02  0.45594000000E+02  0.51100000000E-03 0.  1.
    9900012    2    1    2    0    0 -0.77481637572E+01  0.21476040941E+01 -0.42649464128E+02  0.47787273792E+02  0.20000012527E+02 0.  0.
         12    1    1    2    0    0  0.77481637572E+01 -0.21476040941E+01  0.42649464128E+02  0.43400726208E+02  0.00000000000E+00 0. -1.
         11    1    3    3    0    0  0.10464227840E+01 -0.12313178989E+00  0.52447434760E+00  0.11769603574E+01  0.51100000000E-03 0. -1.
        -11    1    3    3    0    0 -0.59043201089E+01  0.80909316502E+01 -0.17873695655E+02  0.20488854715E+02  0.51100000000E-03 0.  1.
         12    1    3    3    0    0 -0.28902664322E+01 -0.58201957663E+01 -0.25300242821E+02  0.26121458719E+02  0.00000000000E+00 0. -1.
</event>
<event>
 7    1  0.2339217E-009  0.4778727E+02  0.7816164E-02  0.1312668E+00
        -11   -1    0    0    0    0  0.00000000000E+00  0.00000000000E+00  0.45593999997E+02  0.45594000000E+02  0.51100000000E-03 0. -1.
         11   -1    0    0    0    0 -0.00000000000E+00 -0.00000000000E+00 -0.45593999997E+02  0.45594000000E+02  0.51100000000E-03 0.  1.
    9900012    2    1    2    0    0  0.19165601053E+02 -0.28811329201E+02 -0.26195614089E+02  0.47787272454E+02  0.20000006427E+02 0.  0.
         12    1    1    2    0    0 -0.19165601053E+02  0.28811329201E+02  0.26195614089E+02  0.43400727546E+02  0.00000000000E+00 0. -1.
         11    1    3    3    0    0  0.26243465356E+01 -0.18370823478E+00 -0.29226760837E+01  0.39322994807E+01  0.51100000000E-03 0. -1.
        -11    1    3    3    0    0  0.23229361242E+00 -0.10295056901E+02 -0.39225115255E+00  0.10305145227E+02  0.51100000000E-03 0.  1.
        -12    1    3    3    0    0  0.16308960905E+02 -0.18332564065E+02 -0.22880686852E+02  0.33549827747E+02  0.00000000000E+00 0.  1.
</event>
<event>
 7    1  0.2339217E-009  0.4778727E+02  0.7816164E-02  0.1312668E+00
        -11   -1    0    0    0    0  0.00000000000E+00  0.00000000000E+00  0.45593999997E+02  0.45594000000E+02  0.51100000000E-03 0.  1.
         11   -1    0    0    0    0 -0.00000000000E+00 -0.00000000000E+00 -0.45593999997E+02  0.45594000000E+02  0.51100000000E-03 0. -1.
    9900012    2    1    2    0    0 -0.23986423396E+02  0.36162257298E+02 -0.75236810062E+00  0.47787269384E+02  0.19999992428E+02 0.  0.
         12    1    1    2    0    0  0.23986423396E+02 -0.36162257298E+02  0.75236810062E+00  0.43400730616E+02  0.00000000000E+00 0. -1.
         11    1    3    3    0    0 -0.44391604038E+01  0.73179682814E+01 -0.42603720156E+01  0.95608354672E+01  0.51100000000E-03 0. -1.
        -11    1    3    3    0    0 -0.41255125313E+01  0.11945755994E+02 -0.53097732638E+01  0.13708195807E+02  0.51100000000E-03 0.  1.
        -12    1    3    3    0    0 -0.15421750461E+02  0.16898533023E+02  0.88177771788E+01  0.24518238110E+02  0.00000000000E+00 0.  1.
</event>
<event>
 7    1  0.2339217E-009  0.4778727E+02  0.7816164E-02  0.1312668E+00
        -11   -1    0    0    0    0  0.00000000000E+00  0.00000000000E+00  0.45593999997E+02  0.45594000000E+02  0.51100000000E-03 0.  1.
         11   -1    0    0    0    0 -0.00000000000E+00 -0.00000000000E+00 -0.45593999997E+02  0.45594000000E+02  0.51100000000E-03 0. -1.
    9900012    2    1    2    0    0 -0.79631487581E+01 -0.20159284876E+02  0.37600727140E+02  0.47787272053E+02  0.20000004598E+02 0.  0.
         12    1    1    2    0    0  0.79631487581E+01  0.20159284876E+02 -0.37600727140E+02  0.43400727947E+02  0.00000000000E+00 0. -1.
         11    1    3    3    0    0  0.35548500357E+01 -0.32094996086E+01  0.17812563009E+01  0.51098650456E+01  0.51100000000E-03 0. -1.
        -11    1    3    3    0    0  0.16736582854E+01 -0.45308367297E+01  0.10347144510E+02  0.11418976018E+02  0.51100000000E-03 0.  1.
        -12    1    3    3    0    0 -0.13191657079E+02 -0.12418948537E+02  0.25472326329E+02  0.31258430989E+02  0.00000000000E+00 0.  1.
</event>
<event>
 7    1  0.2339217E-009  0.4778727E+02  0.7816164E-02  0.1312668E+00
        -11   -1    0    0    0    0  0.00000000000E+00  0.00000000000E+00  0.45593999997E+02  0.45594000000E+02  0.51100000000E-03 0.  1.
         11   -1    0    0    0    0 -0.00000000000E+00 -0.00000000000E+00 -0.45593999997E+02  0.45594000000E+02  0.51100000000E-03 0. -1.
    9900012    2    1    2    0    0  0.17663118841E+02  0.20487311487E+02  0.33939765564E+02  0.47787269756E+02  0.19999994128E+02 0.  0.
         12    1    1    2    0    0 -0.17663118841E+02 -0.20487311487E+02 -0.33939765564E+02  0.43400730244E+02  0.00000000000E+00 0. -1.
         11    1    3    3    0    0  0.98909434460E+01  0.11150874343E+02  0.89434066287E+01  0.17382671925E+02  0.51100000000E-03 0. -1.
        -11    1    3    3    0    0  0.47699322433E+01  0.10656692393E+01  0.11986404727E+01  0.50323596630E+01  0.51100000000E-03 0.  1.
        -12    1    3    3    0    0  0.30022431521E+01  0.82707679043E+01  0.23797718462E+02  0.25372238169E+02  0.00000000000E+00 0.  1.
</event>
<event>
 7    1  0.2339217E-009  0.4778727E+02  0.7816164E-02  0.1312668E+00
        -11   -1    0    0    0    0  0.00000000000E+00  0.00000000000E+00  0.45593999997E+02  0.45594000000E+02  0.51100000000E-03 0.  1.
         11   -1    0    0    0    0 -0.00000000000E+00 -0.00000000000E+00 -0.45593999997E+02  0.45594000000E+02  0.51100000000E-03 0. -1.
    9900012    2    1    2    0    0  0.12045217079E+02  0.10303865905E+02  0.40402550719E+02  0.47787274065E+02  0.20000013774E+02 0.  0.
         12    1    1    2    0    0 -0.12045217079E+02 -0.10303865905E+02 -0.40402550719E+02  0.43400725935E+02  0.00000000000E+00 0. -1.
         11    1    3    3    0    0  0.75305968933E+01 -0.18024039030E+01  0.14777540479E+02  0.16683352549E+02  0.51100000000E-03 0. -1.
        -11    1    3    3    0    0  0.73039691002E+01  0.32108692439E+01  0.14835033129E+02  0.16844460636E+02  0.51100000000E-03 0.  1.
         12    1    3    3    0    0 -0.27893489141E+01  0.88954005638E+01  0.10789977111E+02  0.14259460881E+02  0.00000000000E+00 0. -1.
</event>
<event>
 7    1  0.2339217E-009  0.4778727E+02  0.7816164E-02  0.1312668E+00
        -11   -1    0    0    0    0  0.00000000000E+00  0.00000000000E+00  0.45593999997E+02  0.45594000000E+02  0.51100000000E-03 0. -1.
         11   -1    0    0    0    0 -0.00000000000E+00 -0.00000000000E+00 -0.45593999997E+02  0.45594000000E+02  0.51100000000E-03 0.  1.
    9900012    2    1    2    0    0  0.33385328745E+02  0.14634660213E+02 -0.23555685440E+02  0.47787265311E+02  0.19999973861E+02 0.  0.
         12    1    1    2    0    0 -0.33385328745E+02 -0.14634660213E+02  0.23555685440E+02  0.43400734689E+02  0.00000000000E+00 0. -1.
         11    1    3    3    0    0  0.86728647239E+01  0.24928113780E+01 -0.21067583545E+01  0.92666672602E+01  0.51100000000E-03 0. -1.
        -11    1    3    3    0    0  0.12034238483E+02  0.11019207297E+01 -0.11131668606E+01  0.12135743318E+02  0.51100000000E-03 0.  1.
         12    1    3    3    0    0  0.12678225538E+02  0.11039928105E+02 -0.20335760225E+02  0.26384854733E+02  0.00000000000E+00 0. -1.
</event>
<event>
 7    1  0.2339217E-009  0.4778727E+02  0.7816164E-02  0.1312668E+00
        -11   -1    0    0    0    0  0.00000000000E+00  0.00000000000E+00  0.45593999997E+02  0.45594000000E+02  0.51100000000E-03 0.  1.
         11   -1    0    0    0    0 -0.00000000000E+00 -0.00000000000E+00 -0.45593999997E+02  0.45594000000E+02  0.51100000000E-03 0. -1.
    9900012    2    1    2    0    0  0.34221391784E+02 -0.58948360658E+00  0.26686551838E+02  0.47787271947E+02  0.20000004113E+02 0.  0.
         12    1    1    2    0    0 -0.34221391784E+02  0.58948360658E+00 -0.26686551838E+02  0.43400728053E+02  0.00000000000E+00 0. -1.
         11    1    3    3    0    0  0.12452865333E+02 -0.27320071901E+01  0.16021271399E+02  0.20474834695E+02  0.51100000000E-03 0. -1.
        -11    1    3    3    0    0  0.24483428157E+00  0.25010959896E+01  0.40963870555E+01  0.48058102485E+01  0.51100000000E-03 0.  1.
        -12    1    3    3    0    0  0.21523692169E+02 -0.35857240617E+00  0.65688933842E+01  0.22506627003E+02  0.00000000000E+00 0.  1.
</event>
<event>
 7    1  0.2339217E-009  0.4778726E+02  0.7816164E-02  0.1312668E+00
        -11   -1    0    0    0    0  0.00000000000E+00  0.00000000000E+00  0.45593999997E+02  0.45594000000E+02  0.51100000000E-03 0. -1.
         11   -1    0    0    0    0 -0.00000000000E+00 -0.00000000000E+00 -0.45593999997E+02  0.45594000000E+02  0.51100000000E-03 0.  1.
    9900012    2    1    2    0    0 -0.14827551248E+01 -0.43174208367E+02 -0.41729101397E+01  0.47787262565E+02  0.19999961338E+02 0.  0.
         12    1    1    2    0    0  0.14827551248E+01  0.43174208367E+02  0.41729101397E+01  0.43400737435E+02  0.00000000000E+00 0. -1.
         11    1    3    3    0    0 -0.42354960526E+01 -0.81647798970E+01  0.64594419531E+00  0.92206454082E+01  0.51100000000E-03 0.  1.
        -11    1    3    3    0    0  0.92110345973E+00 -0.26192572538E+02 -0.10145663762E+02  0.28103981589E+02  0.51100000000E-03 0. -1.
         12    1    3    3    0    0  0.18316374681E+01 -0.88168559323E+01  0.53268094270E+01  0.10462635567E+02  0.00000000000E+00 0. -1.
</event>
<event>
 7    1  0.2339217E-009  0.4778727E+02  0.7816164E-02  0.1312668E+00
        -11   -1    0    0    0    0  0.00000000000E+00  0.00000000000E+00  0.45593999997E+02  0.45594000000E+02  0.51100000000E-03 0.  1.
         11   -1    0    0    0    0 -0.00000000000E+00 -0.00000000000E+00 -0.45593999997E+02  0.45594000000E+02  0.51100000000E-03 0. -1.
    9900012    2    1    2    0    0  0.34612407784E+01  0.43090252783E+02  0.38565546730E+01  0.47787273203E+02  0.20000009840E+02 0.  0.
         12    1    1    2    0    0 -0.34612407784E+01 -0.43090252783E+02 -0.38565546730E+01  0.43400726797E+02  0.00000000000E+00 0. -1.
         11    1    3    3    0    0  0.22649824459E+01  0.48723702174E+01 -0.97473558450E+00  0.54607917683E+01  0.51100000000E-03 0. -1.
        -11    1    3    3    0    0 -0.54574695282E+01  0.40849920090E+01 -0.14985091511E+01  0.69797323231E+01  0.51100000000E-03 0.  1.
        -12    1    3    3    0    0  0.66537278607E+01  0.34132890556E+02  0.63297994087E+01  0.35346749111E+02  0.00000000000E+00 0.  1.
</event>
<event>
 7    1  0.2339217E-009  0.4778727E+02  0.7816164E-02  0.1312668E+00
        -11   -1    0    0    0    0  0.00000000000E+00  0.00000000000E+00  0.45593999997E+02  0.45594000000E+02  0.51100000000E-03 0.  1.
         11   -1    0    0    0    0 -0.00000000000E+00 -0.00000000000E+00 -0.45593999997E+02  0.45594000000E+02  0.51100000000E-03 0. -1.
    9900012    2    1    2    0    0  0.37962694595E+02 -0.15980001819E+02 -0.13678327930E+02  0.47787270812E+02  0.19999998941E+02 0.  0.
         12    1    1    2    0    0 -0.37962694595E+02  0.15980001819E+02  0.13678327930E+02  0.43400729188E+02  0.00000000000E+00 0. -1.
         11    1    3    3    0    0 -0.50754239646E-01 -0.30564586008E+01 -0.28880776316E+01  0.42054141102E+01  0.51100000000E-03 0. -1.
        -11    1    3    3    0    0  0.13868144153E+02 -0.11365509683E+02 -0.31214788519E+01  0.18200106129E+02  0.51100000000E-03 0.  1.
         12    1    3    3    0    0  0.24145304681E+02 -0.15580335355E+01 -0.76687714470E+01  0.25381750573E+02  0.00000000000E+00 0. -1.
</event>
<event>
 7    1  0.2339217E-009  0.4778727E+02  0.7816164E-02  0.1312668E+00
        -11   -1    0    0    0    0  0.00000000000E+00  0.00000000000E+00  0.45593999997E+02  0.45594000000E+02  0.51100000000E-03 0. -1.
         11   -1    0    0    0    0 -0.00000000000E+00 -0.00000000000E+00 -0.45593999997E+02  0.45594000000E+02  0.51100000000E-03 0.  1.
    9900012    2    1    2    0    0 -0.36089849243E+02 -0.40838085247E+00 -0.24103517789E+02  0.47787267712E+02  0.19999984808E+02 0.  0.
         12    1    1    2    0    0  0.36089849243E+02  0.40838085247E+00  0.24103517789E+02  0.43400732288E+02  0.00000000000E+00 0. -1.
         11    1    3    3    0    0 -0.10805102433E+01  0.10108074733E+01  0.23910006075E+01  0.28117820506E+01  0.51100000000E-03 0. -1.
        -11    1    3    3    0    0 -0.69948105853E+01 -0.40297760787E+01 -0.43476894771E+01  0.91689080276E+01  0.51100000000E-03 0.  1.
        -12    1    3    3    0    0 -0.28014528414E+02  0.26105877529E+01 -0.22146828920E+02  0.35806577634E+02  0.00000000000E+00 0.  1.
</event>
<event>
 7    1  0.2339217E-009  0.4778728E+02  0.7816164E-02  0.1312668E+00
        -11   -1    0    0    0    0  0.00000000000E+00  0.00000000000E+00  0.45593999997E+02  0.45594000000E+02  0.51100000000E-03 0.  1.
         11   -1    0    0    0    0 -0.00000000000E+00 -0.00000000000E+00 -0.45593999997E+02  0.45594000000E+02  0.51100000000E-03 0. -1.
    9900012    2    1    2    0    0  0.39186847534E+02 -0.11909138096E+02  0.14359165337E+02  0.47787283197E+02  0.20000055408E+02 0.  0.
         12    1    1    2    0    0 -0.39186847534E+02  0.11909138096E+02 -0.14359165337E+02  0.43400716803E+02  0.00000000000E+00 0. -1.
         11    1    3    3    0    0  0.99366760540E+01 -0.11016506990E+02  0.50415824309E+01  0.15669030312E+02  0.51100000000E-03 0. -1.
        -11    1    3    3    0    0  0.15717126325E+02 -0.48965865349E+01  0.66541437021E+01  0.17756189013E+02  0.51100000000E-03 0.  1.
         12    1    3    3    0    0  0.13533045156E+02  0.40039554290E+01  0.26634392044E+01  0.14362063872E+02  0.00000000000E+00 0. -1.
</event>
<event>
 7    1  0.2339217E-009  0.4778727E+02  0.7816164E-02  0.1312668E+00
        -11   -1    0    0    0    0  0.00000000000E+00  0.00000000000E+00  0.45593999997E+02  0.45594000000E+02  0.51100000000E-03 0.  1.
         11   -1    0    0    0    0 -0.00000000000E+00 -0.00000000000E+00 -0.45593999997E+02  0.45594000000E+02  0.51100000000E-03 0. -1.
    9900012    2    1    2    0    0  0.40581586037E+02 -0.13599836110E+02  0.71973816182E+01  0.47787274549E+02  0.20000015979E+02 0.  0.
         12    1    1    2    0    0 -0.40581586037E+02  0.13599836110E+02 -0.71973816182E+01  0.43400725451E+02  0.00000000000E+00 0. -1.
         11    1    3    3    0    0  0.20007355154E+01 -0.60980750764E+00 -0.69132751302E+00  0.22028939580E+01  0.51100000000E-03 0. -1.
        -11    1    3    3    0    0  0.26834434777E+02  0.71712922076E+00  0.48551929667E+01  0.27279553939E+02  0.51100000000E-03 0.  1.
         12    1    3    3    0    0  0.11746415745E+02 -0.13707157823E+02  0.30335161646E+01  0.18304826652E+02  0.00000000000E+00 0. -1.
</event>
<event>
 7    1  0.2339217E-009  0.4778727E+02  0.7816164E-02  0.1312668E+00
        -11   -1    0    0    0    0  0.00000000000E+00  0.00000000000E+00  0.45593999997E+02  0.45594000000E+02  0.51100000000E-03 0.  1.
         11   -1    0    0    0    0 -0.00000000000E+00 -0.00000000000E+00 -0.45593999997E+02  0.45594000000E+02  0.51100000000E-03 0. -1.
    9900012    2    1    2    0    0  0.32565057821E+02 -0.25488595310E+02  0.13170865751E+02  0.47787272052E+02  0.20000004594E+02 0.  0.
         12    1    1    2    0    0 -0.32565057821E+02  0.25488595310E+02 -0.13170865751E+02  0.43400727948E+02  0.00000000000E+00 0. -1.
         11    1    3    3    0    0  0.99940543705E+01 -0.95275203130E+00  0.10328466053E+01  0.10092355105E+02  0.51100000000E-03 0. -1.
        -11    1    3    3    0    0  0.23797438863E+02 -0.21126772467E+02  0.12174820667E+02  0.34071760592E+02  0.51100000000E-03 0.  1.
         12    1    3    3    0    0 -0.12264354124E+01 -0.34090708119E+01 -0.36801521064E-01  0.36231563551E+01  0.00000000000E+00 0. -1.
</event>
<event>
 7    1  0.2339217E-009  0.4778727E+02  0.7816164E-02  0.1312668E+00
        -11   -1    0    0    0    0  0.00000000000E+00  0.00000000000E+00  0.45593999997E+02  0.45594000000E+02  0.51100000000E-03 0.  1.
         11   -1    0    0    0    0 -0.00000000000E+00 -0.00000000000E+00 -0.45593999997E+02  0.45594000000E+02  0.51100000000E-03 0. -1.
    9900012    2    1    2    0    0  0.35998641048E+02 -0.23831822478E+02  0.44458256247E+01  0.47787270912E+02  0.19999999395E+02 0.  0.
         12    1    1    2    0    0 -0.35998641048E+02  0.23831822478E+02 -0.44458256247E+01  0.43400729088E+02  0.00000000000E+00 0. -1.
         11    1    3    3    0    0  0.13929237166E+02 -0.78916719588E+01 -0.24651055620E+01  0.16198113471E+02  0.51100000000E-03 0. -1.
        -11    1    3    3    0    0  0.78831537315E+01 -0.51018739430E+01 -0.44882540806E+01  0.10407576828E+02  0.51100000000E-03 0.  1.
         12    1    3    3    0    0  0.14186250150E+02 -0.10838276576E+02  0.11399185267E+02  0.21181580612E+02  0.00000000000E+00 0. -1.
</event>
<event>
 7    1  0.2339217E-009  0.4778727E+02  0.7816164E-02  0.1312668E+00
        -11   -1    0    0    0    0  0.00000000000E+00  0.00000000000E+00  0.45593999997E+02  0.45594000000E+02  0.51100000000E-03 0.  1.
         11   -1    0    0    0    0 -0.00000000000E+00 -0.00000000000E+00 -0.45593999997E+02  0.45594000000E+02  0.51100000000E-03 0. -1.
    9900012    2    1    2    0    0 -0.61798266385E+00 -0.15855876198E+02  0.40395943776E+02  0.47787274360E+02  0.20000015116E+02 0.  0.
         12    1    1    2    0    0  0.61798266385E+00  0.15855876198E+02 -0.40395943776E+02  0.43400725640E+02  0.00000000000E+00 0. -1.
         11    1    3    3    0    0 -0.16161875457E+01 -0.32594130921E+01  0.14728162768E+02  0.15170847527E+02  0.51100000000E-03 0. -1.
        -11    1    3    3    0    0 -0.64258702771E+01 -0.10667856638E+02  0.15795284975E+02  0.20114323299E+02  0.51100000000E-03 0.  1.
         12    1    3    3    0    0  0.74240751590E+01 -0.19286064677E+01  0.98724960320E+01  0.12502103534E+02  0.00000000000E+00 0. -1.
</event>
<event>
 7    1  0.2339217E-009  0.4778727E+02  0.7816164E-02  0.1312668E+00
        -11   -1    0    0    0    0  0.00000000000E+00  0.00000000000E+00  0.45593999997E+02  0.45594000000E+02  0.51100000000E-03 0.  1.
         11   -1    0    0    0    0 -0.00000000000E+00 -0.00000000000E+00 -0.45593999997E+02  0.45594000000E+02  0.51100000000E-03 0. -1.
    9900012    2    1    2    0    0 -0.42813550403E+02  0.18123511337E+01  0.68802872534E+01  0.47787273423E+02  0.20000010845E+02 0.  0.
         12    1    1    2    0    0  0.42813550403E+02 -0.18123511337E+01 -0.68802872534E+01  0.43400726577E+02  0.00000000000E+00 0. -1.
         11    1    3    3    0    0 -0.24688030934E+01 -0.77000768991E+00  0.30959067199E+01  0.40339235535E+01  0.51100000000E-03 0. -1.
        -11    1    3    3    0    0 -0.33950752374E+02  0.31332722333E+01  0.92457611000E+01  0.35326407689E+02  0.51100000000E-03 0.  1.
         12    1    3    3    0    0 -0.63939949356E+01 -0.55091340973E+00 -0.54613805664E+01  0.84269421804E+01  0.00000000000E+00 0. -1.
</event>
<event>
 7    1  0.2339217E-009  0.4778727E+02  0.7816164E-02  0.1312668E+00
        -11   -1    0    0    0    0  0.00000000000E+00  0.00000000000E+00  0.45593999997E+02  0.45594000000E+02  0.51100000000E-03 0.  1.
         11   -1    0    0    0    0 -0.00000000000E+00 -0.00000000000E+00 -0.45593999997E+02  0.45594000000E+02  0.51100000000E-03 0. -1.
    9900012    2    1    2    0    0 -0.49923387465E+01  0.21307345021E+02  0.37479286584E+02  0.47787270503E+02  0.19999997532E+02 0.  0.
         12    1    1    2    0    0  0.49923387465E+01 -0.21307345021E+02 -0.37479286584E+02  0.43400729497E+02  0.00000000000E+00 0. -1.
         11    1    3    3    0    0 -0.23767664809E+01  0.40557162050E+01  0.57105826509E+01  0.73965267061E+01  0.51100000000E-03 0.  1.
        -11    1    3    3    0    0  0.48727102115E+01 -0.18869991973E+00  0.24308574993E+01  0.54486678104E+01  0.51100000000E-03 0. -1.
        -12    1    3    3    0    0 -0.74882824772E+01  0.17440328736E+02  0.29337846434E+02  0.34942075987E+02  0.00000000000E+00 0.  1.
</event>
<event>
 7    1  0.2339217E-009  0.4778727E+02  0.7816164E-02  0.1312668E+00
        -11   -1    0    0    0    0  0.00000000000E+00  0.00000000000E+00  0.45593999997E+02  0.45594000000E+02  0.51100000000E-03 0. -1.
         11   -1    0    0    0    0 -0.00000000000E+00 -0.00000000000E+00 -0.45593999997E+02  0.45594000000E+02  0.51100000000E-03 0.  1.
    9900012    2    1    2    0    0  0.19799147085E+02 -0.37636982645E+02 -0.86645694699E+01  0.47787268993E+02  0.19999990645E+02 0.  0.
         12    1    1    2    0    0 -0.19799147085E+02  0.37636982645E+02  0.86645694699E+01  0.43400731007E+02  0.00000000000E+00 0. -1.
         11    1    3    3    0    0  0.29206036673E+01 -0.15675238613E+01  0.12104662639E+01  0.35287796296E+01  0.51100000000E-03 0. -1.
        -11    1    3    3    0    0  0.11771614377E+02 -0.11891136814E+02 -0.10102619168E+02  0.19545663306E+02  0.51100000000E-03 0.  1.
         12    1    3    3    0    0  0.51069290399E+01 -0.24178321970E+02  0.22758343372E+00  0.24712826057E+02  0.00000000000E+00 0. -1.
</event>
<event>
 7    1  0.2339217E-009  0.4778727E+02  0.7816164E-02  0.1312668E+00
        -11   -1    0    0    0    0  0.00000000000E+00  0.00000000000E+00  0.45593999997E+02  0.45594000000E+02  0.51100000000E-03 0.  1.
         11   -1    0    0    0    0 -0.00000000000E+00 -0.00000000000E+00 -0.45593999997E+02  0.45594000000E+02  0.51100000000E-03 0. -1.
    9900012    2    1    2    0    0 -0.17700769774E+02  0.30675322839E+02  0.25086465026E+02  0.47787269484E+02  0.19999992884E+02 0.  0.
         12    1    1    2    0    0  0.17700769774E+02 -0.30675322839E+02 -0.25086465026E+02  0.43400730516E+02  0.00000000000E+00 0. -1.
         11    1    3    3    0    0 -0.12091057154E+01  0.54836348886E+01  0.14020346537E+01  0.57877361424E+01  0.51100000000E-03 0. -1.
        -11    1    3    3    0    0 -0.99001103781E+01  0.26118180320E+02  0.17849534158E+02  0.33147811370E+02  0.51100000000E-03 0.  1.
         12    1    3    3    0    0 -0.65915536801E+01 -0.92649236935E+00  0.58348962138E+01  0.88517219711E+01  0.00000000000E+00 0. -1.
</event>
<event>
 7    1  0.2339217E-009  0.4778727E+02  0.7816164E-02  0.1312668E+00
        -11   -1    0    0    0    0  0.00000000000E+00  0.00000000000E+00  0.45593999997E+02  0.45594000000E+02  0.51100000000E-03 0.  1.
         11   -1    0    0    0    0 -0.00000000000E+00 -0.00000000000E+00 -0.45593999997E+02  0.45594000000E+02  0.51100000000E-03 0. -1.
    9900012    2    1    2    0    0 -0.35367609685E+01 -0.30760973806E+02  0.30411790173E+02  0.47787272251E+02  0.20000005501E+02 0.  0.
         12    1    1    2    0    0  0.35367609685E+01  0.30760973806E+02 -0.30411790173E+02  0.43400727749E+02  0.00000000000E+00 0. -1.
         11    1    3    3    0    0 -0.41904179821E+01 -0.13383356820E+00  0.57496162593E+01  0.71158697065E+01  0.51100000000E-03 0. -1.
        -11    1    3    3    0    0  0.40578035161E+01 -0.16689536012E+02  0.17909451186E+02  0.24814407584E+02  0.51100000000E-03 0.  1.
        -12    1    3    3    0    0 -0.34041465025E+01 -0.13937604226E+02  0.67527227274E+01  0.15856994961E+02  0.00000000000E+00 0.  1.
</event>
<event>
 7    1  0.2339217E-009  0.4778727E+02  0.7816164E-02  0.1312668E+00
        -11   -1    0    0    0    0  0.00000000000E+00  0.00000000000E+00  0.45593999997E+02  0.45594000000E+02  0.51100000000E-03 0. -1.
         11   -1    0    0    0    0 -0.00000000000E+00 -0.00000000000E+00 -0.45593999997E+02  0.45594000000E+02  0.51100000000E-03 0.  1.
    9900012    2    1    2    0    0 -0.30879452274E+02 -0.92435065613E+01 -0.29062690310E+02  0.47787274725E+02  0.20000016782E+02 0.  0.
         12    1    1    2    0    0  0.30879452274E+02  0.92435065613E+01  0.29062690310E+02  0.43400725275E+02  0.00000000000E+00 0. -1.
         11    1    3    3    0    0  0.11647061665E+01 -0.32000838517E+01 -0.62136597367E+01  0.70856647322E+01  0.51100000000E-03 0. -1.
        -11    1    3    3    0    0 -0.46990196457E+01 -0.39905671194E+01 -0.30438634176E+01  0.68753557240E+01  0.51100000000E-03 0.  1.
        -12    1    3    3    0    0 -0.27345138795E+02 -0.20528555902E+01 -0.19805167156E+02  0.33826254269E+02  0.00000000000E+00 0.  1.
</event>
<event>
 7    1  0.2339217E-009  0.4778727E+02  0.7816164E-02  0.1312668E+00
        -11   -1    0    0    0    0  0.00000000000E+00  0.00000000000E+00  0.45593999997E+02  0.45594000000E+02  0.51100000000E-03 0.  1.
         11   -1    0    0    0    0 -0.00000000000E+00 -0.00000000000E+00 -0.45593999997E+02  0.45594000000E+02  0.51100000000E-03 0. -1.
    9900012    2    1    2    0    0 -0.13802223944E+02  0.40717324232E+02  0.59347595577E+01  0.47787271326E+02  0.20000001285E+02 0.  0.
         12    1    1    2    0    0  0.13802223944E+02 -0.40717324232E+02 -0.59347595577E+01  0.43400728674E+02  0.00000000000E+00 0. -1.
         11    1    3    3    0    0 -0.22907352317E+01  0.10999436587E+02  0.21981475739E+01  0.11448446452E+02  0.51100000000E-03 0. -1.
        -11    1    3    3    0    0  0.31282636102E+01  0.16392686706E+00  0.76105097853E+00  0.32236786573E+01  0.51100000000E-03 0.  1.
        -12    1    3    3    0    0 -0.14639752323E+02  0.29553960777E+02  0.29755610053E+01  0.33115146217E+02  0.00000000000E+00 0.  1.
</event>
<event>
 7    1  0.2339217E-009  0.4778728E+02  0.7816164E-02  0.1312668E+00
        -11   -1    0    0    0    0  0.00000000000E+00  0.00000000000E+00  0.45593999997E+02  0.45594000000E+02  0.51100000000E-03 0. -1.
         11   -1    0    0    0    0 -0.00000000000E+00 -0.00000000000E+00 -0.45593999997E+02  0.45594000000E+02  0.51100000000E-03 0.  1.
    9900012    2    1    2    0    0  0.30472899122E+02 -0.29663272722E+02  0.86669228888E+01  0.47787275561E+02  0.20000020594E+02 0.  0.
         12    1    1    2    0    0 -0.30472899122E+02  0.29663272722E+02 -0.86669228888E+01  0.43400724439E+02  0.00000000000E+00 0. -1.
         11    1    3    3    0    0  0.67846742561E+01 -0.20301052335E+00 -0.36498240241E+00  0.67975164913E+01  0.51100000000E-03 0. -1.
        -11    1    3    3    0    0 -0.53657602872E+00  0.89067312535E-01 -0.12985960098E+01  0.14079057776E+01  0.51100000000E-03 0.  1.
        -12    1    3    3    0    0  0.24224800894E+02 -0.29549329511E+02  0.10330501301E+02  0.39581853292E+02  0.00000000000E+00 0.  1.
</event>
<event>
 7    1  0.2339217E-009  0.4778727E+02  0.7816164E-02  0.1312668E+00
        -11   -1    0    0    0    0  0.00000000000E+00  0.00000000000E+00  0.45593999997E+02  0.45594000000E+02  0.51100000000E-03 0.  1.
         11   -1    0    0    0    0 -0.00000000000E+00 -0.00000000000E+00 -0.45593999997E+02  0.45594000000E+02  0.51100000000E-03 0. -1.
    9900012    2    1    2    0    0 -0.69620976096E+01 -0.19421403025E+02  0.38183263409E+02  0.47787270707E+02  0.19999998463E+02 0.  0.
         12    1    1    2    0    0  0.69620976096E+01  0.19421403025E+02 -0.38183263409E+02  0.43400729293E+02  0.00000000000E+00 0. -1.
         11    1    3    3    0    0  0.18534755133E+01 -0.12674577303E+02  0.20175203190E+02  0.23898098362E+02  0.51100000000E-03 0. -1.
        -11    1    3    3    0    0 -0.50008428890E+01 -0.81440012032E+01  0.17301699763E+02  0.19765677325E+02  0.51100000000E-03 0.  1.
         12    1    3    3    0    0 -0.38147302340E+01  0.13971754819E+01  0.70636045642E+00  0.41234950199E+01  0.00000000000E+00 0. -1.
</event>
<event>
 7    1  0.2339217E-009  0.4778728E+02  0.7816164E-02  0.1312668E+00
        -11   -1    0    0    0    0  0.00000000000E+00  0.00000000000E+00  0.45593999997E+02  0.45594000000E+02  0.51100000000E-03 0.  1.
         11   -1    0    0    0    0 -0.00000000000E+00 -0.00000000000E+00 -0.45593999997E+02  0.45594000000E+02  0.51100000000E-03 0. -1.
    9900012    2    1    2    0    0  0.19182070336E+02 -0.12552133770E+02  0.36852611301E+02  0.47787275994E+02  0.20000022568E+02 0.  0.
         12    1    1    2    0    0 -0.19182070336E+02  0.12552133770E+02 -0.36852611301E+02  0.43400724006E+02  0.00000000000E+00 0. -1.
         11    1    3    3    0    0  0.78616583759E+01 -0.12319229041E+02  0.13252244259E+02  0.19727925759E+02  0.51100000000E-03 0. -1.
        -11    1    3    3    0    0  0.51433376715E+01  0.47421935229E+00  0.19287759494E+01  0.55135273030E+01  0.51100000000E-03 0.  1.
        -12    1    3    3    0    0  0.61770742886E+01 -0.70712408154E+00  0.21671591092E+02  0.22545822932E+02  0.00000000000E+00 0.  1.
</event>
<event>
 7    1  0.2339217E-009  0.4778727E+02  0.7816164E-02  0.1312668E+00
        -11   -1    0    0    0    0  0.00000000000E+00  0.00000000000E+00  0.45593999997E+02  0.45594000000E+02  0.51100000000E-03 0. -1.
         11   -1    0    0    0    0 -0.00000000000E+00 -0.00000000000E+00 -0.45593999997E+02  0.45594000000E+02  0.51100000000E-03 0.  1.
    9900012    2    1    2    0    0 -0.25736825279E+02  0.34913757970E+02 -0.15062345211E+01  0.47787269437E+02  0.19999992670E+02 0.  0.
         12    1    1    2    0    0  0.25736825279E+02 -0.34913757970E+02  0.15062345211E+01  0.43400730563E+02  0.00000000000E+00 0. -1.
         11    1    3    3    0    0 -0.10482541485E+01  0.73685817059E+00  0.36761794282E+01  0.38930826055E+01  0.51100000000E-03 0. -1.
        -11    1    3    3    0    0  0.89380385660E+00  0.20803428962E+01  0.83030788407E+00  0.24116640195E+01  0.51100000000E-03 0.  1.
        -12    1    3    3    0    0 -0.25582374987E+02  0.32096556903E+02 -0.60127218334E+01  0.41482522812E+02  0.00000000000E+00 0.  1.
</event>
<event>
 7    1  0.2339217E-009  0.4778728E+02  0.7816164E-02  0.1312668E+00
        -11   -1    0    0    0    0  0.00000000000E+00  0.00000000000E+00  0.45593999997E+02  0.45594000000E+02  0.51100000000E-03 0. -1.
         11   -1    0    0    0    0 -0.00000000000E+00 -0.00000000000E+00 -0.45593999997E+02  0.45594000000E+02  0.51100000000E-03 0.  1.
    9900012    2    1    2    0    0  0.49753138987E+01 -0.41935502420E+02  0.10014127724E+02  0.47787275747E+02  0.20000021442E+02 0.  0.
         12    1    1    2    0    0 -0.49753138987E+01  0.41935502420E+02 -0.10014127724E+02  0.43400724253E+02  0.00000000000E+00 0. -1.
         11    1    3    3    0    0  0.60809153335E+01 -0.28145873960E+02  0.63299977627E+01  0.29482819136E+02  0.51100000000E-03 0. -1.
        -11    1    3    3    0    0  0.53996342733E+00 -0.10993408598E+02 -0.25305569035E+01  0.11293817407E+02  0.51100000000E-03 0.  1.
         12    1    3    3    0    0 -0.16455648622E+01 -0.27962198614E+01  0.62146868650E+01  0.70106392047E+01  0.00000000000E+00 0. -1.
</event>
<event>
 7    1  0.2339217E-009  0.4778723E+02  0.7816164E-02  0.1312668E+00
        -11   -1    0    0    0    0  0.00000000000E+00  0.00000000000E+00  0.45593999997E+02  0.45594000000E+02  0.51100000000E-03 0.  1.
         11   -1    0    0    0    0 -0.00000000000E+00 -0.00000000000E+00 -0.45593999997E+02  0.45594000000E+02  0.51100000000E-03 0. -1.
    9900012    2    1    2    0    0 -0.63532579809E+01 -0.42888465421E+02  0.19602840525E+01  0.47787227349E+02  0.19999800772E+02 0.  0.
         12    1    1    2    0    0  0.63532579809E+01  0.42888465421E+02 -0.19602840525E+01  0.43400772651E+02  0.00000000000E+00 0. -1.
         11    1    3    3    0    0  0.27142123933E+01 -0.11799824827E+01  0.82233814402E+00  0.30717336896E+01  0.51100000000E-03 0. -1.
        -11    1    3    3    0    0 -0.52756230374E+01 -0.98074806436E+01  0.52788165931E+01  0.12324154328E+02  0.51100000000E-03 0.  1.
        -12    1    3    3    0    0 -0.37918473368E+01 -0.31901002295E+02 -0.41408706846E+01  0.32391339331E+02  0.00000000000E+00 0.  1.
</event>
<event>
 7    1  0.2339217E-009  0.4778728E+02  0.7816164E-02  0.1312668E+00
        -11   -1    0    0    0    0  0.00000000000E+00  0.00000000000E+00  0.45593999997E+02  0.45594000000E+02  0.51100000000E-03 0.  1.
         11   -1    0    0    0    0 -0.00000000000E+00 -0.00000000000E+00 -0.45593999997E+02  0.45594000000E+02  0.51100000000E-03 0. -1.
    9900012    2    1    2    0    0 -0.20998457791E+02 -0.26222691555E+02  0.27478312234E+02  0.47787280822E+02  0.20000044579E+02 0.  0.
         12    1    1    2    0    0  0.20998457791E+02  0.26222691555E+02 -0.27478312234E+02  0.43400719178E+02  0.00000000000E+00 0. -1.
         11    1    3    3    0    0 -0.10592605367E+02 -0.81581594526E+01  0.17004815288E+02  0.21631518610E+02  0.51100000000E-03 0. -1.
        -11    1    3    3    0    0 -0.54680991220E+01 -0.13012725861E+02  0.12449166289E+02  0.18820544197E+02  0.51100000000E-03 0.  1.
         12    1    3    3    0    0 -0.49377533018E+01 -0.50518062413E+01 -0.19756693432E+01  0.73352180146E+01  0.00000000000E+00 0. -1.
</event>
<event>
 7    1  0.2339217E-009  0.4778727E+02  0.7816164E-02  0.1312668E+00
        -11   -1    0    0    0    0  0.00000000000E+00  0.00000000000E+00  0.45593999997E+02  0.45594000000E+02  0.51100000000E-03 0.  1.
         11   -1    0    0    0    0 -0.00000000000E+00 -0.00000000000E+00 -0.45593999997E+02  0.45594000000E+02  0.51100000000E-03 0. -1.
    9900012    2    1    2    0    0  0.10755976419E+02 -0.26054791026E+02  0.33001218304E+02  0.47787267590E+02  0.19999984252E+02 0.  0.
         12    1    1    2    0    0 -0.10755976419E+02  0.26054791026E+02 -0.33001218304E+02  0.43400732410E+02  0.00000000000E+00 0. -1.
         11    1    3    3    0    0 -0.65240968932E+00 -0.54660503373E+01  0.85979134678E+01  0.10209185127E+02  0.51100000000E-03 0. -1.
        -11    1    3    3    0    0 -0.37157318518E+01 -0.78764904025E+01  0.90218966480E+01  0.12539552769E+02  0.51100000000E-03 0.  1.
         12    1    3    3    0    0  0.15124117960E+02 -0.12712250287E+02  0.15381408188E+02  0.25038529695E+02  0.00000000000E+00 0. -1.
</event>
<event>
 7    1  0.2339217E-009  0.4778727E+02  0.7816164E-02  0.1312668E+00
        -11   -1    0    0    0    0  0.00000000000E+00  0.00000000000E+00  0.45593999997E+02  0.45594000000E+02  0.51100000000E-03 0.  1.
         11   -1    0    0    0    0 -0.00000000000E+00 -0.00000000000E+00 -0.45593999997E+02  0.45594000000E+02  0.51100000000E-03 0. -1.
    9900012    2    1    2    0    0  0.29313469455E+02  0.29371736745E+02  0.12713971564E+02  0.47787268626E+02  0.19999988972E+02 0.  0.
         12    1    1    2    0    0 -0.29313469455E+02 -0.29371736745E+02 -0.12713971564E+02  0.43400731374E+02  0.00000000000E+00 0. -1.
         11    1    3    3    0    0  0.69466087281E+01  0.13803992764E+02  0.78194051511E+01  0.17319026711E+02  0.51100000000E-03 0.  1.
        -11    1    3    3    0    0  0.13622522196E+02  0.24390151984E+01 -0.35417079813E+00  0.13843675211E+02  0.51100000000E-03 0. -1.
         12    1    3    3    0    0  0.87443385307E+01  0.13128728782E+02  0.52487372113E+01  0.16624566704E+02  0.00000000000E+00 0. -1.
</event>
<event>
 7    1  0.2339217E-009  0.4778727E+02  0.7816164E-02  0.1312668E+00
        -11   -1    0    0    0    0  0.00000000000E+00  0.00000000000E+00  0.45593999997E+02  0.45594000000E+02  0.51100000000E-03 0.  1.
         11   -1    0    0    0    0 -0.00000000000E+00 -0.00000000000E+00 -0.45593999997E+02  0.45594000000E+02  0.51100000000E-03 0. -1.
    9900012    2    1    2    0    0 -0.15927242638E+02 -0.29303613486E+02  0.27771290334E+02  0.47787269727E+02  0.19999993994E+02 0.  0.
         12    1    1    2    0    0  0.15927242638E+02  0.29303613486E+02 -0.27771290334E+02  0.43400730273E+02  0.00000000000E+00 0. -1.
         11    1    3    3    0    0  0.81146042978E+00 -0.12482600612E+01  0.10205950690E+00  0.14923262423E+01  0.51100000000E-03 0. -1.
        -11    1    3    3    0    0 -0.29722979856E+01 -0.87685902074E+01  0.18868279082E+02  0.21017485228E+02  0.51100000000E-03 0.  1.
         12    1    3    3    0    0 -0.13766405082E+02 -0.19286763217E+02  0.88009517454E+01  0.25277458257E+02  0.00000000000E+00 0. -1.
</event>
<event>
 7    1  0.2339217E-009  0.4778732E+02  0.7816164E-02  0.1312668E+00
        -11   -1    0    0    0    0  0.00000000000E+00  0.00000000000E+00  0.45593999997E+02  0.45594000000E+02  0.51100000000E-03 0.  1.
         11   -1    0    0    0    0 -0.00000000000E+00 -0.00000000000E+00 -0.45593999997E+02  0.45594000000E+02  0.51100000000E-03 0. -1.
    9900012    2    1    2    0    0 -0.27005852606E+02  0.27014057056E+02  0.20604447851E+02  0.47787324604E+02  0.20000244198E+02 0.  0.
         12    1    1    2    0    0  0.27005852606E+02 -0.27014057056E+02 -0.20604447851E+02  0.43400675396E+02  0.00000000000E+00 0. -1.
         11    1    3    3    0    0 -0.15369919834E+02  0.99095045528E+01  0.10373528199E+02  0.21024814000E+02  0.51100000000E-03 0. -1.
        -11    1    3    3    0    0 -0.13622477388E+02  0.17016512709E+02  0.11248464204E+02  0.24528790068E+02  0.51100000000E-03 0.  1.
        -12    1    3    3    0    0  0.19865446161E+01  0.88039793806E-01 -0.10175445526E+01  0.22337205361E+01  0.00000000000E+00 0.  1.
</event>
<event>
 7    1  0.2339217E-009  0.4778727E+02  0.7816164E-02  0.1312668E+00
        -11   -1    0    0    0    0  0.00000000000E+00  0.00000000000E+00  0.45593999997E+02  0.45594000000E+02  0.51100000000E-03 0.  1.
         11   -1    0    0    0    0 -0.00000000000E+00 -0.00000000000E+00 -0.45593999997E+02  0.45594000000E+02  0.51100000000E-03 0. -1.
    9900012    2    1    2    0    0  0.10892755855E+01 -0.26508033718E+02  0.34347648297E+02  0.47787270554E+02  0.19999997764E+02 0.  0.
         12    1    1    2    0    0 -0.10892755855E+01  0.26508033718E+02 -0.34347648297E+02  0.43400729446E+02  0.00000000000E+00 0. -1.
         11    1    3    3    0    0  0.26509003165E+01 -0.34954347450E+01  0.11181668702E+00  0.43883755282E+01  0.51100000000E-03 0. -1.
        -11    1    3    3    0    0 -0.46807139469E+01 -0.17730959613E+02  0.16632678201E+02  0.24757665404E+02  0.51100000000E-03 0.  1.
        -12    1    3    3    0    0  0.31190892160E+01 -0.52816393603E+01  0.17603153409E+02  0.18641229622E+02  0.00000000000E+00 0.  1.
</event>
<event>
 7    1  0.2339217E-009  0.4778727E+02  0.7816164E-02  0.1312668E+00
        -11   -1    0    0    0    0  0.00000000000E+00  0.00000000000E+00  0.45593999997E+02  0.45594000000E+02  0.51100000000E-03 0.  1.
         11   -1    0    0    0    0 -0.00000000000E+00 -0.00000000000E+00 -0.45593999997E+02  0.45594000000E+02  0.51100000000E-03 0. -1.
    9900012    2    1    2    0    0  0.85361991042E+01 -0.38366343418E+02  0.18405976870E+02  0.47787274350E+02  0.20000015072E+02 0.  0.
         12    1    1    2    0    0 -0.85361991042E+01  0.38366343418E+02 -0.18405976870E+02  0.43400725650E+02  0.00000000000E+00 0. -1.
         11    1    3    3    0    0 -0.12517323306E+01 -0.52697046582E+00 -0.99127929900E+00  0.16814180352E+01  0.51100000000E-03 0. -1.
        -11    1    3    3    0    0 -0.38609410972E+00 -0.72273791648E+01 -0.18605228940E+01  0.74729929716E+01  0.51100000000E-03 0.  1.
        -12    1    3    3    0    0  0.10174025545E+02 -0.30611993787E+02  0.21257779063E+02  0.38632863343E+02  0.00000000000E+00 0.  1.
</event>
<event>
 7    1  0.2339217E-009  0.4778729E+02  0.7816164E-02  0.1312668E+00
        -11   -1    0    0    0    0  0.00000000000E+00  0.00000000000E+00  0.45593999997E+02  0.45594000000E+02  0.51100000000E-03 0.  1.
         11   -1    0    0    0    0 -0.00000000000E+00 -0.00000000000E+00 -0.45593999997E+02  0.45594000000E+02  0.51100000000E-03 0. -1.
    9900012    2    1    2    0    0  0.38043351044E+01 -0.25987618296E+02  0.34551306325E+02  0.47787285270E+02  0.20000064861E+02 0.  0.
         12    1    1    2    0    0 -0.38043351044E+01  0.25987618296E+02 -0.34551306325E+02  0.43400714730E+02  0.00000000000E+00 0. -1.
         11    1    3    3    0    0 -0.19382876017E+01 -0.50695710123E+01  0.63020082263E+01  0.83170197199E+01  0.51100000000E-03 0. -1.
        -11    1    3    3    0    0 -0.27285915601E+01 -0.17098018160E+02  0.23028450146E+02  0.28811403181E+02  0.51100000000E-03 0.  1.
         12    1    3    3    0    0  0.84712142662E+01 -0.38200291238E+01  0.52208479529E+01  0.10658862369E+02  0.00000000000E+00 0. -1.
</event>
<event>
 7    1  0.2339217E-009  0.4778726E+02  0.7816164E-02  0.1312668E+00
        -11   -1    0    0    0    0  0.00000000000E+00  0.00000000000E+00  0.45593999997E+02  0.45594000000E+02  0.51100000000E-03 0. -1.
         11   -1    0    0    0    0 -0.00000000000E+00 -0.00000000000E+00 -0.45593999997E+02  0.45594000000E+02  0.51100000000E-03 0.  1.
    9900012    2    1    2    0    0  0.23188741653E+02  0.54152995149E+01 -0.36284716228E+02  0.47787264522E+02  0.19999970260E+02 0.  0.
         12    1    1    2    0    0 -0.23188741653E+02 -0.54152995149E+01  0.36284716228E+02  0.43400735478E+02  0.00000000000E+00 0. -1.
         11    1    3    3    0    0  0.10258062675E+02  0.16168083136E+01 -0.53605311427E+01  0.11686625405E+02  0.51100000000E-03 0. -1.
        -11    1    3    3    0    0  0.65484489657E+01 -0.34762890191E+01 -0.66154203916E+01  0.99363250963E+01  0.51100000000E-03 0.  1.
        -12    1    3    3    0    0  0.63822300119E+01  0.72747802204E+01 -0.24308764694E+02  0.26164314020E+02  0.00000000000E+00 0.  1.
</event>
<event>
 7    1  0.2339217E-009  0.4778727E+02  0.7816164E-02  0.1312668E+00
        -11   -1    0    0    0    0  0.00000000000E+00  0.00000000000E+00  0.45593999997E+02  0.45594000000E+02  0.51100000000E-03 0. -1.
         11   -1    0    0    0    0 -0.00000000000E+00 -0.00000000000E+00 -0.45593999997E+02  0.45594000000E+02  0.51100000000E-03 0.  1.
    9900012    2    1    2    0    0 -0.43069078869E+02  0.30280110153E+01  0.44168771372E+01  0.47787271792E+02  0.20000003407E+02 0.  0.
         12    1    1    2    0    0  0.43069078869E+02 -0.30280110153E+01 -0.44168771372E+01  0.43400728208E+02  0.00000000000E+00 0. -1.
         11    1    3    3    0    0 -0.11138689717E+02  0.39228414184E+01 -0.62007409725E+01  0.13338226354E+02  0.51100000000E-03 0. -1.
        -11    1    3    3    0    0 -0.74228640821E+01 -0.15540079870E+01 -0.34862378186E+00  0.75917976005E+01  0.51100000000E-03 0.  1.
        -12    1    3    3    0    0 -0.24507525070E+02  0.65917758388E+00  0.10966241892E+02  0.26857247837E+02  0.00000000000E+00 0.  1.
</event>
<event>
 7    1  0.2339217E-009  0.4778727E+02  0.7816164E-02  0.1312668E+00
        -11   -1    0    0    0    0  0.00000000000E+00  0.00000000000E+00  0.45593999997E+02  0.45594000000E+02  0.51100000000E-03 0. -1.
         11   -1    0    0    0    0 -0.00000000000E+00 -0.00000000000E+00 -0.45593999997E+02  0.45594000000E+02  0.51100000000E-03 0.  1.
    9900012    2    1    2    0    0 -0.15037391128E+02  0.40671376056E+02  0.18273173746E+01  0.47787273612E+02  0.20000011705E+02 0.  0.
         12    1    1    2    0    0  0.15037391128E+02 -0.40671376056E+02 -0.18273173746E+01  0.43400726388E+02  0.00000000000E+00 0. -1.
         11    1    3    3    0    0 -0.29016948453E+01  0.19818436676E+01 -0.20918253204E+01  0.40894095822E+01  0.51100000000E-03 0. -1.
        -11    1    3    3    0    0 -0.98576489932E+01  0.23206418783E+02 -0.49718009545E+01  0.25698831129E+02  0.51100000000E-03 0.  1.
         12    1    3    3    0    0 -0.22780472894E+01  0.15483113606E+02  0.88909436495E+01  0.17999032901E+02  0.00000000000E+00 0. -1.
</event>
<event>
 7    1  0.2339217E-009  0.4778727E+02  0.7816164E-02  0.1312668E+00
        -11   -1    0    0    0    0  0.00000000000E+00  0.00000000000E+00  0.45593999997E+02  0.45594000000E+02  0.51100000000E-03 0.  1.
         11   -1    0    0    0    0 -0.00000000000E+00 -0.00000000000E+00 -0.45593999997E+02  0.45594000000E+02  0.51100000000E-03 0. -1.
    9900012    2    1    2    0    0  0.18069857006E+02 -0.37332168244E+02  0.12783292515E+02  0.47787273214E+02  0.20000009894E+02 0.  0.
         12    1    1    2    0    0 -0.18069857006E+02  0.37332168244E+02 -0.12783292515E+02  0.43400726786E+02  0.00000000000E+00 0. -1.
         11    1    3    3    0    0  0.13352740667E+01 -0.19413599858E+01 -0.33183131921E+01  0.40697712626E+01  0.51100000000E-03 0. -1.
        -11    1    3    3    0    0 -0.87837432569E+00  0.11104490216E+00  0.92428861243E+00  0.12799148903E+01  0.51100000000E-03 0.  1.
        -12    1    3    3    0    0  0.17612957265E+02 -0.35501853160E+02  0.15177317095E+02  0.42437587062E+02  0.00000000000E+00 0.  1.
</event>
<event>
 7    1  0.2339217E-009  0.4778727E+02  0.7816164E-02  0.1312668E+00
        -11   -1    0    0    0    0  0.00000000000E+00  0.00000000000E+00  0.45593999997E+02  0.45594000000E+02  0.51100000000E-03 0. -1.
         11   -1    0    0    0    0 -0.00000000000E+00 -0.00000000000E+00 -0.45593999997E+02  0.45594000000E+02  0.51100000000E-03 0.  1.
    9900012    2    1    2    0    0 -0.25012796687E+02 -0.21815533609E+02 -0.27965437724E+02  0.47787271759E+02  0.20000003259E+02 0.  0.
         12    1    1    2    0    0  0.25012796687E+02  0.21815533609E+02  0.27965437724E+02  0.43400728241E+02  0.00000000000E+00 0. -1.
         11    1    3    3    0    0 -0.65671544038E+01 -0.99071862596E+01 -0.13959564745E+02  0.18334374947E+02  0.51100000000E-03 0. -1.
        -11    1    3    3    0    0 -0.15275321885E+02 -0.12627549536E+02 -0.16143869050E+02  0.25561982985E+02  0.51100000000E-03 0.  1.
        -12    1    3    3    0    0 -0.31703203981E+01  0.71920218657E+00  0.21379960714E+01  0.38909138275E+01  0.00000000000E+00 0.  1.
</event>
<event>
 7    1  0.2339217E-009  0.4778727E+02  0.7816164E-02  0.1312668E+00
        -11   -1    0    0    0    0  0.00000000000E+00  0.00000000000E+00  0.45593999997E+02  0.45594000000E+02  0.51100000000E-03 0.  1.
         11   -1    0    0    0    0 -0.00000000000E+00 -0.00000000000E+00 -0.45593999997E+02  0.45594000000E+02  0.51100000000E-03 0. -1.
    9900012    2    1    2    0    0 -0.52635386854E+01 -0.84919601349E+01  0.42235113682E+02  0.47787273576E+02  0.20000011542E+02 0.  0.
         12    1    1    2    0    0  0.52635386854E+01  0.84919601349E+01 -0.42235113682E+02  0.43400726424E+02  0.00000000000E+00 0. -1.
         11    1    3    3    0    0 -0.23812243628E+01 -0.83278430459E+00  0.64111857939E+01  0.68896344395E+01  0.51100000000E-03 0. -1.
        -11    1    3    3    0    0  0.46333908627E+01 -0.66152095986E+01  0.58352809769E+01  0.99639255949E+01  0.51100000000E-03 0.  1.
        -12    1    3    3    0    0 -0.75157051853E+01 -0.10439662318E+01  0.29988646911E+02  0.30933713542E+02  0.00000000000E+00 0.  1.
</event>
<event>
 7    1  0.2339217E-009  0.4778728E+02  0.7816164E-02  0.1312668E+00
        -11   -1    0    0    0    0  0.00000000000E+00  0.00000000000E+00  0.45593999997E+02  0.45594000000E+02  0.51100000000E-03 0.  1.
         11   -1    0    0    0    0 -0.00000000000E+00 -0.00000000000E+00 -0.45593999997E+02  0.45594000000E+02  0.51100000000E-03 0. -1.
    9900012    2    1    2    0    0  0.27669537741E+02  0.29504610192E+02  0.15732055528E+02  0.47787275208E+02  0.20000018984E+02 0.  0.
         12    1    1    2    0    0 -0.27669537741E+02 -0.29504610192E+02 -0.15732055528E+02  0.43400724792E+02  0.00000000000E+00 0. -1.
         11    1    3    3    0    0  0.62970856589E+01  0.12590575312E+02  0.64390225920E+01  0.15480209517E+02  0.51100000000E-03 0. -1.
        -11    1    3    3    0    0  0.10646047319E+02  0.16430715426E+02  0.28488304639E+01  0.19784402144E+02  0.51100000000E-03 0.  1.
         12    1    3    3    0    0  0.10726404762E+02  0.48331945370E+00  0.64442024718E+01  0.12522663547E+02  0.00000000000E+00 0. -1.
</event>
<event>
 7    1  0.2339217E-009  0.4778727E+02  0.7816164E-02  0.1312668E+00
        -11   -1    0    0    0    0  0.00000000000E+00  0.00000000000E+00  0.45593999997E+02  0.45594000000E+02  0.51100000000E-03 0. -1.
         11   -1    0    0    0    0 -0.00000000000E+00 -0.00000000000E+00 -0.45593999997E+02  0.45594000000E+02  0.51100000000E-03 0.  1.
    9900012    2    1    2    0    0 -0.32642272607E+02  0.27988012695E+02  0.58971631338E+01  0.47787270184E+02  0.19999996076E+02 0.  0.
         12    1    1    2    0    0  0.32642272607E+02 -0.27988012695E+02 -0.58971631338E+01  0.43400729816E+02  0.00000000000E+00 0. -1.
         11    1    3    3    0    0 -0.11493573040E+02  0.30003590351E+01  0.16730000164E+01  0.11995970360E+02  0.51100000000E-03 0. -1.
        -11    1    3    3    0    0  0.50076133581E+00  0.11907465911E+01 -0.26008983056E+01  0.29040164629E+01  0.51100000000E-03 0.  1.
         12    1    3    3    0    0 -0.21649460903E+02  0.23796907069E+02  0.68250614229E+01  0.32887283361E+02  0.00000000000E+00 0. -1.
</event>
<event>
 7    1  0.2339217E-009  0.4778727E+02  0.7816164E-02  0.1312668E+00
        -11   -1    0    0    0    0  0.00000000000E+00  0.00000000000E+00  0.45593999997E+02  0.45594000000E+02  0.51100000000E-03 0.  1.
         11   -1    0    0    0    0 -0.00000000000E+00 -0.00000000000E+00 -0.45593999997E+02  0.45594000000E+02  0.51100000000E-03 0. -1.
    9900012    2    1    2    0    0 -0.33706721372E+02 -0.18929667090E+02  0.19726824479E+02  0.47787274594E+02  0.20000016182E+02 0.  0.
         12    1    1    2    0    0  0.33706721372E+02  0.18929667090E+02 -0.19726824479E+02  0.43400725406E+02  0.00000000000E+00 0. -1.
         11    1    3    3    0    0 -0.27579080419E+01  0.63174001017E+00  0.39132572477E+01  0.48289475826E+01  0.51100000000E-03 0. -1.
        -11    1    3    3    0    0 -0.39067746163E+01  0.18199164227E+01  0.54749243831E+01  0.69677672859E+01  0.51100000000E-03 0.  1.
        -12    1    3    3    0    0 -0.27042038714E+02 -0.21381323523E+02  0.10338642848E+02  0.35990559725E+02  0.00000000000E+00 0.  1.
</event>
<event>
 7    1  0.2339217E-009  0.4778727E+02  0.7816164E-02  0.1312668E+00
        -11   -1    0    0    0    0  0.00000000000E+00  0.00000000000E+00  0.45593999997E+02  0.45594000000E+02  0.51100000000E-03 0.  1.
         11   -1    0    0    0    0 -0.00000000000E+00 -0.00000000000E+00 -0.45593999997E+02  0.45594000000E+02  0.51100000000E-03 0. -1.
    9900012    2    1    2    0    0 -0.26867365780E+01  0.30564956606E+02  0.30695082021E+02  0.47787272056E+02  0.20000004613E+02 0.  0.
         12    1    1    2    0    0  0.26867365780E+01 -0.30564956606E+02 -0.30695082021E+02  0.43400727944E+02  0.00000000000E+00 0. -1.
         11    1    3    3    0    0  0.94551288141E+00  0.29078880916E+01  0.10747461606E+01  0.32411243933E+01  0.51100000000E-03 0. -1.
        -11    1    3    3    0    0 -0.69210417285E+01  0.20583709038E+02  0.10968737792E+02  0.24329058867E+02  0.51100000000E-03 0.  1.
         12    1    3    3    0    0  0.32887922691E+01  0.70733594771E+01  0.18651598068E+02  0.20217088796E+02  0.00000000000E+00 0. -1.
</event>
<event>
 7    1  0.2339217E-009  0.4778727E+02  0.7816164E-02  0.1312668E+00
        -11   -1    0    0    0    0  0.00000000000E+00  0.00000000000E+00  0.45593999997E+02  0.45594000000E+02  0.51100000000E-03 0.  1.
         11   -1    0    0    0    0 -0.00000000000E+00 -0.00000000000E+00 -0.45593999997E+02  0.45594000000E+02  0.51100000000E-03 0. -1.
    9900012    2    1    2    0    0  0.13862128860E+02  0.41109035532E+02  0.12297335407E+01  0.47787266556E+02  0.19999979536E+02 0.  0.
         12    1    1    2    0    0 -0.13862128860E+02 -0.41109035532E+02 -0.12297335407E+01  0.43400733444E+02  0.00000000000E+00 0. -1.
         11    1    3    3    0    0 -0.28390568369E+01  0.52286637876E+01  0.31730731268E+01  0.67429638925E+01  0.51100000000E-03 0.  1.
        -11    1    3    3    0    0  0.50198847348E+00  0.37750838904E+01 -0.33273101430E+01  0.50570983633E+01  0.51100000000E-03 0. -1.
         12    1    3    3    0    0  0.16199197223E+02  0.32105287854E+02  0.13839705569E+01  0.35987204300E+02  0.00000000000E+00 0. -1.
</event>
<event>
 7    1  0.2339217E-009  0.4778727E+02  0.7816164E-02  0.1312668E+00
        -11   -1    0    0    0    0  0.00000000000E+00  0.00000000000E+00  0.45593999997E+02  0.45594000000E+02  0.51100000000E-03 0.  1.
         11   -1    0    0    0    0 -0.00000000000E+00 -0.00000000000E+00 -0.45593999997E+02  0.45594000000E+02  0.51100000000E-03 0. -1.
    9900012    2    1    2    0    0 -0.31604112675E+02  0.13287853064E+02  0.26612716995E+02  0.47787266332E+02  0.19999978516E+02 0.  0.
         12    1    1    2    0    0  0.31604112675E+02 -0.13287853064E+02 -0.26612716995E+02  0.43400733668E+02  0.00000000000E+00 0. -1.
         11    1    3    3    0    0 -0.77351721484E+01 -0.13301171837E+01  0.87386750726E+01  0.11745915978E+02  0.51100000000E-03 0. -1.
        -11    1    3    3    0    0 -0.16333543154E+02  0.66333140221E+01  0.17813787842E+02  0.25062252980E+02  0.51100000000E-03 0.  1.
         12    1    3    3    0    0 -0.75353973724E+01  0.79846562253E+01  0.60254080623E-01  0.10979097374E+02  0.00000000000E+00 0. -1.
</event>
<event>
 7    1  0.2339217E-009  0.4778728E+02  0.7816164E-02  0.1312668E+00
        -11   -1    0    0    0    0  0.00000000000E+00  0.00000000000E+00  0.45593999997E+02  0.45594000000E+02  0.51100000000E-03 0.  1.
         11   -1    0    0    0    0 -0.00000000000E+00 -0.00000000000E+00 -0.45593999997E+02  0.45594000000E+02  0.51100000000E-03 0. -1.
    9900012    2    1    2    0    0 -0.27073833974E+02  0.17733880795E+02  0.28916074573E+02  0.47787281310E+02  0.20000046804E+02 0.  0.
         12    1    1    2    0    0  0.27073833974E+02 -0.17733880795E+02 -0.28916074573E+02  0.43400718690E+02  0.00000000000E+00 0. -1.
         11    1    3    3    0    0 -0.26083818695E+01  0.72012897872E+01  0.74179013021E+01  0.10662433614E+02  0.51100000000E-03 0.  1.
        -11    1    3    3    0    0 -0.45211706761E+01  0.64625198933E+01  0.12699356656E+02  0.14949207584E+02  0.51100000000E-03 0. -1.
         12    1    3    3    0    0 -0.19944281428E+02  0.40700711150E+01  0.87988166156E+01  0.22175640112E+02  0.00000000000E+00 0. -1.
</event>
<event>
 7    1  0.2339217E-009  0.4778730E+02  0.7816164E-02  0.1312668E+00
        -11   -1    0    0    0    0  0.00000000000E+00  0.00000000000E+00  0.45593999997E+02  0.45594000000E+02  0.51100000000E-03 0.  1.
         11   -1    0    0    0    0 -0.00000000000E+00 -0.00000000000E+00 -0.45593999997E+02  0.45594000000E+02  0.51100000000E-03 0. -1.
    9900012    2    1    2    0    0 -0.39225803300E+02 -0.54857540062E+01  0.17744389139E+02  0.47787303145E+02  0.20000146359E+02 0.  0.
         12    1    1    2    0    0  0.39225803300E+02  0.54857540062E+01 -0.17744389139E+02  0.43400696855E+02  0.00000000000E+00 0. -1.
         11    1    3    3    0    0 -0.40535175884E+00 -0.18880681359E+01  0.24228332770E+01  0.30982628493E+01  0.51100000000E-03 0. -1.
        -11    1    3    3    0    0 -0.23318187742E+02 -0.86228108535E+01  0.48838793032E+01  0.25336594560E+02  0.51100000000E-03 0.  1.
         12    1    3    3    0    0 -0.15502263800E+02  0.50251249832E+01  0.10437676559E+02  0.19352445736E+02  0.00000000000E+00 0. -1.
</event>
<event>
 7    1  0.2339217E-009  0.4778727E+02  0.7816164E-02  0.1312668E+00
        -11   -1    0    0    0    0  0.00000000000E+00  0.00000000000E+00  0.45593999997E+02  0.45594000000E+02  0.51100000000E-03 0.  1.
         11   -1    0    0    0    0 -0.00000000000E+00 -0.00000000000E+00 -0.45593999997E+02  0.45594000000E+02  0.51100000000E-03 0. -1.
    9900012    2    1    2    0    0  0.18494470880E+02 -0.36133633802E+02  0.15360294814E+02  0.47787267268E+02  0.19999982784E+02 0.  0.
         12    1    1    2    0    0 -0.18494470880E+02  0.36133633802E+02 -0.15360294814E+02  0.43400732732E+02  0.00000000000E+00 0. -1.
         11    1    3    3    0    0  0.37388381310E+01 -0.43712958732E+01  0.49812662279E+01  0.76092149184E+01  0.51100000000E-03 0.  1.
        -11    1    3    3    0    0  0.13205992736E+02 -0.13055164810E+02 -0.31867738526E+00  0.18572483084E+02  0.51100000000E-03 0. -1.
         12    1    3    3    0    0  0.15496400127E+01 -0.18707173119E+02  0.10697705972E+02  0.21605569266E+02  0.00000000000E+00 0. -1.
</event>
<event>
 7    1  0.2339217E-009  0.4778727E+02  0.7816164E-02  0.1312668E+00
        -11   -1    0    0    0    0  0.00000000000E+00  0.00000000000E+00  0.45593999997E+02  0.45594000000E+02  0.51100000000E-03 0.  1.
         11   -1    0    0    0    0 -0.00000000000E+00 -0.00000000000E+00 -0.45593999997E+02  0.45594000000E+02  0.51100000000E-03 0. -1.
    9900012    2    1    2    0    0 -0.32393346401E+02 -0.25353199744E+02  0.13838705896E+02  0.47787269486E+02  0.19999992892E+02 0.  0.
         12    1    1    2    0    0  0.32393346401E+02  0.25353199744E+02 -0.13838705896E+02  0.43400730514E+02  0.00000000000E+00 0. -1.
         11    1    3    3    0    0 -0.19051414296E+02 -0.12792123639E+02  0.82519721772E+00  0.22962486028E+02  0.51100000000E-03 0. -1.
        -11    1    3    3    0    0 -0.14917741848E+02 -0.11920426953E+02  0.10506083822E+02  0.21794802089E+02  0.51100000000E-03 0.  1.
         12    1    3    3    0    0  0.15758097427E+01 -0.64064915171E+00  0.25074248564E+01  0.30299813682E+01  0.00000000000E+00 0. -1.
</event>
<event>
 7    1  0.2339217E-009  0.4778727E+02  0.7816164E-02  0.1312668E+00
        -11   -1    0    0    0    0  0.00000000000E+00  0.00000000000E+00  0.45593999997E+02  0.45594000000E+02  0.51100000000E-03 0. -1.
         11   -1    0    0    0    0 -0.00000000000E+00 -0.00000000000E+00 -0.45593999997E+02  0.45594000000E+02  0.51100000000E-03 0.  1.
    9900012    2    1    2    0    0  0.34571953899E+01  0.41492100101E+02 -0.12250569041E+02  0.47787274055E+02  0.20000013725E+02 0.  0.
         12    1    1    2    0    0 -0.34571953899E+01 -0.41492100101E+02  0.12250569041E+02  0.43400725945E+02  0.00000000000E+00 0. -1.
         11    1    3    3    0    0 -0.15463245901E+01  0.16302052350E+02 -0.69286032385E+01  0.17780707907E+02  0.51100000000E-03 0. -1.
        -11    1    3    3    0    0 -0.26038491315E+00  0.53534180411E+01 -0.76618419531E+01  0.93504388882E+01  0.51100000000E-03 0.  1.
         12    1    3    3    0    0  0.52639048931E+01  0.19836629710E+02  0.23398761509E+01  0.20656127260E+02  0.00000000000E+00 0. -1.
</event>
<event>
 7    1  0.2339217E-009  0.4778727E+02  0.7816164E-02  0.1312668E+00
        -11   -1    0    0    0    0  0.00000000000E+00  0.00000000000E+00  0.45593999997E+02  0.45594000000E+02  0.51100000000E-03 0.  1.
         11   -1    0    0    0    0 -0.00000000000E+00 -0.00000000000E+00 -0.45593999997E+02  0.45594000000E+02  0.51100000000E-03 0. -1.
    9900012    2    1    2    0    0 -0.74114357718E+01  0.39421564255E+02  0.16572086954E+02  0.47787272189E+02  0.20000005217E+02 0.  0.
         12    1    1    2    0    0  0.74114357718E+01 -0.39421564255E+02 -0.16572086954E+02  0.43400727811E+02  0.00000000000E+00 0. -1.
         11    1    3    3    0    0 -0.37228696305E+01  0.61803674735E+01 -0.20096324619E+01  0.74896811205E+01  0.51100000000E-03 0. -1.
        -11    1    3    3    0    0 -0.68615696312E+01  0.94008202663E+01  0.49025605638E+01  0.12629000745E+02  0.51100000000E-03 0.  1.
        -12    1    3    3    0    0  0.31730034900E+01  0.23840376515E+02  0.13679158852E+02  0.27668590323E+02  0.00000000000E+00 0.  1.
</event>
<event>
 7    1  0.2339217E-009  0.4778727E+02  0.7816164E-02  0.1312668E+00
        -11   -1    0    0    0    0  0.00000000000E+00  0.00000000000E+00  0.45593999997E+02  0.45594000000E+02  0.51100000000E-03 0.  1.
         11   -1    0    0    0    0 -0.00000000000E+00 -0.00000000000E+00 -0.45593999997E+02  0.45594000000E+02  0.51100000000E-03 0. -1.
    9900012    2    1    2    0    0  0.14354615921E+02  0.40816740275E+02  0.34002728326E+01  0.47787272584E+02  0.20000007021E+02 0.  0.
         12    1    1    2    0    0 -0.14354615921E+02 -0.40816740275E+02 -0.34002728326E+01  0.43400727416E+02  0.00000000000E+00 0. -1.
         11    1    3    3    0    0  0.10849213318E+02  0.22321074158E+02  0.97365306569E+01  0.26659628855E+02  0.51100000000E-03 0. -1.
        -11    1    3    3    0    0  0.22819142856E+00  0.48744158581E+01  0.14613715436E+01  0.50938794976E+01  0.51100000000E-03 0.  1.
         12    1    3    3    0    0  0.32772111742E+01  0.13621250258E+02 -0.77976293679E+01  0.16033764231E+02  0.00000000000E+00 0. -1.
</event>
<event>
 7    1  0.3235722E-009  0.4778727E+02  0.7816164E-02  0.1312668E+00
        -11   -1    0    0    0    0  0.00000000000E+00  0.00000000000E+00  0.45593999997E+02  0.45594000000E+02  0.51100000000E-03 0.  1.
         11   -1    0    0    0    0 -0.00000000000E+00 -0.00000000000E+00 -0.45593999997E+02  0.45594000000E+02  0.51100000000E-03 0. -1.
    9900012    2    1    2    0    0 -0.11033557179E+02 -0.34729653426E+02 -0.23574041027E+02  0.47787267040E+02  0.19999981743E+02 0.  0.
         12    1    1    2    0    0  0.11033557179E+02  0.34729653426E+02  0.23574041027E+02  0.43400732960E+02  0.00000000000E+00 0. -1.
         11    1    3    3    0    0  0.23921926490E+01 -0.29412402711E+01  0.33544944214E+00  0.38060486849E+01  0.51100000000E-03 0. -1.
        -11    1    3    3    0    0 -0.72163601453E+01 -0.38825791057E+01 -0.38268160777E+01  0.90440475348E+01  0.51100000000E-03 0.  1.
        -12    1    3    3    0    0 -0.62093896824E+01 -0.27905834049E+02 -0.20082674392E+02  0.34937170820E+02  0.00000000000E+00 0.  1.
</event>
<event>
 7    1  0.2339217E-009  0.4778728E+02  0.7816164E-02  0.1312668E+00
        -11   -1    0    0    0    0  0.00000000000E+00  0.00000000000E+00  0.45593999997E+02  0.45594000000E+02  0.51100000000E-03 0.  1.
         11   -1    0    0    0    0 -0.00000000000E+00 -0.00000000000E+00 -0.45593999997E+02  0.45594000000E+02  0.51100000000E-03 0. -1.
    9900012    2    1    2    0    0 -0.47318456208E+01 -0.35173356875E+02  0.24981336224E+02  0.47787279311E+02  0.20000037690E+02 0.  0.
         12    1    1    2    0    0  0.47318456208E+01  0.35173356875E+02 -0.24981336224E+02  0.43400720689E+02  0.00000000000E+00 0. -1.
         11    1    3    3    0    0  0.31799483259E+01 -0.75761854312E+00  0.86927171793E+00  0.33825568426E+01  0.51100000000E-03 0. -1.
        -11    1    3    3    0    0 -0.22833281104E+00 -0.17568256985E+02  0.61711944473E+01  0.18622014674E+02  0.51100000000E-03 0.  1.
        -12    1    3    3    0    0 -0.76834611357E+01 -0.16847481347E+02  0.17940870058E+02  0.25782707794E+02  0.00000000000E+00 0.  1.
</event>
<event>
 7    1  0.2339217E-009  0.4778727E+02  0.7816164E-02  0.1312668E+00
        -11   -1    0    0    0    0  0.00000000000E+00  0.00000000000E+00  0.45593999997E+02  0.45594000000E+02  0.51100000000E-03 0.  1.
         11   -1    0    0    0    0 -0.00000000000E+00 -0.00000000000E+00 -0.45593999997E+02  0.45594000000E+02  0.51100000000E-03 0. -1.
    9900012    2    1    2    0    0 -0.19765789048E+02  0.46444313880E+01  0.38358389839E+02  0.47787271543E+02  0.20000002271E+02 0.  0.
         12    1    1    2    0    0  0.19765789048E+02 -0.46444313880E+01 -0.38358389839E+02  0.43400728457E+02  0.00000000000E+00 0. -1.
         11    1    3    3    0    0 -0.12194231856E+02  0.15860911877E-01  0.16426875103E+02  0.20458293380E+02  0.51100000000E-03 0.  1.
        -11    1    3    3    0    0 -0.99683129318E+01  0.22965585346E+01  0.79565394142E+01  0.12959473891E+02  0.51100000000E-03 0. -1.
         12    1    3    3    0    0  0.23967557399E+01  0.23320119416E+01  0.13974975322E+02  0.14369504272E+02  0.00000000000E+00 0. -1.
</event>
<event>
 7    1  0.2339217E-009  0.4778727E+02  0.7816164E-02  0.1312668E+00
        -11   -1    0    0    0    0  0.00000000000E+00  0.00000000000E+00  0.45593999997E+02  0.45594000000E+02  0.51100000000E-03 0.  1.
         11   -1    0    0    0    0 -0.00000000000E+00 -0.00000000000E+00 -0.45593999997E+02  0.45594000000E+02  0.51100000000E-03 0. -1.
    9900012    2    1    2    0    0 -0.20009987401E+02 -0.74047714915E+01  0.37794088933E+02  0.47787269650E+02  0.19999993642E+02 0.  0.
         12    1    1    2    0    0  0.20009987401E+02  0.74047714915E+01 -0.37794088933E+02  0.43400730350E+02  0.00000000000E+00 0. -1.
         11    1    3    3    0    0  0.79799753548E+00 -0.15947657038E+01  0.35532337163E+01  0.39756191744E+01  0.51100000000E-03 0. -1.
        -11    1    3    3    0    0 -0.15170217393E+02  0.42876298840E+01  0.20035643992E+02  0.25494044328E+02  0.51100000000E-03 0.  1.
        -12    1    3    3    0    0 -0.56377675438E+01 -0.10097635672E+02  0.14205211225E+02  0.18317606148E+02  0.00000000000E+00 0.  1.
</event>
<event>
 7    1  0.2339217E-009  0.4778727E+02  0.7816164E-02  0.1312668E+00
        -11   -1    0    0    0    0  0.00000000000E+00  0.00000000000E+00  0.45593999997E+02  0.45594000000E+02  0.51100000000E-03 0. -1.
         11   -1    0    0    0    0 -0.00000000000E+00 -0.00000000000E+00 -0.45593999997E+02  0.45594000000E+02  0.51100000000E-03 0.  1.
    9900012    2    1    2    0    0  0.17788024283E+02 -0.20746638490E+02 -0.33716262260E+02  0.47787272387E+02  0.20000006123E+02 0.  0.
         12    1    1    2    0    0 -0.17788024283E+02  0.20746638490E+02  0.33716262260E+02  0.43400727613E+02  0.00000000000E+00 0. -1.
         11    1    3    3    0    0  0.28637056403E+01  0.16494272696E+01 -0.55835575947E+01  0.64882613993E+01  0.51100000000E-03 0. -1.
        -11    1    3    3    0    0  0.11277612870E+02 -0.62879554244E+01 -0.17140410951E+02  0.21459651052E+02  0.51100000000E-03 0.  1.
         12    1    3    3    0    0  0.36467057732E+01 -0.16108110335E+02 -0.10992293715E+02  0.19839359936E+02  0.00000000000E+00 0. -1.
</event>
<event>
 7    1  0.2339217E-009  0.4778728E+02  0.7816164E-02  0.1312668E+00
        -11   -1    0    0    0    0  0.00000000000E+00  0.00000000000E+00  0.45593999997E+02  0.45594000000E+02  0.51100000000E-03 0. -1.
         11   -1    0    0    0    0 -0.00000000000E+00 -0.00000000000E+00 -0.45593999997E+02  0.45594000000E+02  0.51100000000E-03 0.  1.
    9900012    2    1    2    0    0  0.17303339191E+02  0.39288356809E+02 -0.63751261264E+01  0.47787276953E+02  0.20000026939E+02 0.  0.
         12    1    1    2    0    0 -0.17303339191E+02 -0.39288356809E+02  0.63751261264E+01  0.43400723047E+02  0.00000000000E+00 0. -1.
         11    1    3    3    0    0  0.13271683375E+01 -0.13919679080E+01 -0.18832170340E+00  0.19324636550E+01  0.51100000000E-03 0. -1.
        -11    1    3    3    0    0  0.57457309894E+01  0.37839453288E+01  0.82679361610E+00  0.69293040631E+01  0.51100000000E-03 0.  1.
        -12    1    3    3    0    0  0.10230439864E+02  0.36896379388E+02 -0.70135980391E+01  0.38925509235E+02  0.00000000000E+00 0.  1.
</event>
<event>
 7    1  0.2339217E-009  0.4778727E+02  0.7816164E-02  0.1312668E+00
        -11   -1    0    0    0    0  0.00000000000E+00  0.00000000000E+00  0.45593999997E+02  0.45594000000E+02  0.51100000000E-03 0.  1.
         11   -1    0    0    0    0 -0.00000000000E+00 -0.00000000000E+00 -0.45593999997E+02  0.45594000000E+02  0.51100000000E-03 0. -1.
    9900012    2    1    2    0    0  0.32540091594E+02  0.15490337166E+02  0.24182958708E+02  0.47787267306E+02  0.19999982957E+02 0.  0.
         12    1    1    2    0    0 -0.32540091594E+02 -0.15490337166E+02 -0.24182958708E+02  0.43400732694E+02  0.00000000000E+00 0. -1.
         11    1    3    3    0    0  0.22953468777E+02  0.76792860988E+01  0.59061768112E+01  0.24914174453E+02  0.51100000000E-03 0. -1.
        -11    1    3    3    0    0  0.55149060377E+01  0.70844470182E+00  0.70741297343E+01  0.89977438427E+01  0.51100000000E-03 0.  1.
         12    1    3    3    0    0  0.40717167799E+01  0.71026063650E+01  0.11202652162E+02  0.13875349011E+02  0.00000000000E+00 0. -1.
</event>
<event>
 7    1  0.2339217E-009  0.4778727E+02  0.7816164E-02  0.1312668E+00
        -11   -1    0    0    0    0  0.00000000000E+00  0.00000000000E+00  0.45593999997E+02  0.45594000000E+02  0.51100000000E-03 0.  1.
         11   -1    0    0    0    0 -0.00000000000E+00 -0.00000000000E+00 -0.45593999997E+02  0.45594000000E+02  0.51100000000E-03 0. -1.
    9900012    2    1    2    0    0 -0.66212565279E+01 -0.10293314372E+02  0.41639284252E+02  0.47787270146E+02  0.19999995906E+02 0.  0.
         12    1    1    2    0    0  0.66212565279E+01  0.10293314372E+02 -0.41639284252E+02  0.43400729854E+02  0.00000000000E+00 0. -1.
         11    1    3    3    0    0 -0.21726668814E+00 -0.15315568469E+01  0.45566749083E+01  0.48120845452E+01  0.51100000000E-03 0.  1.
        -11    1    3    3    0    0 -0.13134576040E+02 -0.60583107904E+01  0.24418303402E+02  0.28380869590E+02  0.51100000000E-03 0. -1.
         12    1    3    3    0    0  0.67305862002E+01 -0.27034467351E+01  0.12664305942E+02  0.14594316012E+02  0.00000000000E+00 0. -1.
</event>
<event>
 7    1  0.2339217E-009  0.4778727E+02  0.7816164E-02  0.1312668E+00
        -11   -1    0    0    0    0  0.00000000000E+00  0.00000000000E+00  0.45593999997E+02  0.45594000000E+02  0.51100000000E-03 0.  1.
         11   -1    0    0    0    0 -0.00000000000E+00 -0.00000000000E+00 -0.45593999997E+02  0.45594000000E+02  0.51100000000E-03 0. -1.
    9900012    2    1    2    0    0  0.13531247525E+02 -0.33294408727E+02  0.24331278331E+02  0.47787269392E+02  0.19999992466E+02 0.  0.
         12    1    1    2    0    0 -0.13531247525E+02  0.33294408727E+02 -0.24331278331E+02  0.43400730608E+02  0.00000000000E+00 0. -1.
         11    1    3    3    0    0  0.60828927608E+01 -0.44853722884E+01 -0.78127890459E-03  0.75577873598E+01  0.51100000000E-03 0. -1.
        -11    1    3    3    0    0  0.66892015863E+01 -0.72204101590E+01  0.42021478614E+01  0.10702232834E+02  0.51100000000E-03 0.  1.
         12    1    3    3    0    0  0.75915317769E+00 -0.21588626280E+02  0.20129911749E+02  0.29527249198E+02  0.00000000000E+00 0. -1.
</event>
<event>
 7    1  0.2339217E-009  0.4778727E+02  0.7816164E-02  0.1312668E+00
        -11   -1    0    0    0    0  0.00000000000E+00  0.00000000000E+00  0.45593999997E+02  0.45594000000E+02  0.51100000000E-03 0. -1.
         11   -1    0    0    0    0 -0.00000000000E+00 -0.00000000000E+00 -0.45593999997E+02  0.45594000000E+02  0.51100000000E-03 0.  1.
    9900012    2    1    2    0    0 -0.81117719985E+01 -0.41558533172E+02 -0.95242202334E+01  0.47787270796E+02  0.19999998867E+02 0.  0.
         12    1    1    2    0    0  0.81117719985E+01  0.41558533172E+02  0.95242202334E+01  0.43400729204E+02  0.00000000000E+00 0. -1.
         11    1    3    3    0    0  0.18785196156E+01 -0.17296986045E+02 -0.13790139402E+01  0.17453258776E+02  0.51100000000E-03 0. -1.
        -11    1    3    3    0    0 -0.43764299852E+01 -0.19006390025E+02 -0.52895281928E+00  0.19510914703E+02  0.51100000000E-03 0.  1.
         12    1    3    3    0    0 -0.56138616289E+01 -0.52551571023E+01 -0.76162534739E+01  0.10823097317E+02  0.00000000000E+00 0. -1.
</event>
<event>
 7    1  0.2339217E-009  0.4778727E+02  0.7816164E-02  0.1312668E+00
        -11   -1    0    0    0    0  0.00000000000E+00  0.00000000000E+00  0.45593999997E+02  0.45594000000E+02  0.51100000000E-03 0. -1.
         11   -1    0    0    0    0 -0.00000000000E+00 -0.00000000000E+00 -0.45593999997E+02  0.45594000000E+02  0.51100000000E-03 0.  1.
    9900012    2    1    2    0    0  0.23220739983E+02 -0.19344336029E+02 -0.31148311257E+02  0.47787269638E+02  0.19999993587E+02 0.  0.
         12    1    1    2    0    0 -0.23220739983E+02  0.19344336029E+02  0.31148311257E+02  0.43400730362E+02  0.00000000000E+00 0. -1.
         11    1    3    3    0    0  0.91378167068E+01 -0.11021659414E+02 -0.59553660576E+01  0.15506226347E+02  0.51100000000E-03 0. -1.
        -11    1    3    3    0    0  0.33761666567E+01 -0.88042439831E+01 -0.12765248906E+02  0.15870248684E+02  0.51100000000E-03 0.  1.
         12    1    3    3    0    0  0.10706756620E+02  0.48156736721E+00 -0.12427696294E+02  0.16410794606E+02  0.00000000000E+00 0. -1.
</event>
<event>
 7    1  0.2339217E-009  0.4778729E+02  0.7816164E-02  0.1312668E+00
        -11   -1    0    0    0    0  0.00000000000E+00  0.00000000000E+00  0.45593999997E+02  0.45594000000E+02  0.51100000000E-03 0.  1.
         11   -1    0    0    0    0 -0.00000000000E+00 -0.00000000000E+00 -0.45593999997E+02  0.45594000000E+02  0.51100000000E-03 0. -1.
    9900012    2    1    2    0    0  0.29368273018E+02 -0.28647720730E+02  0.14157478419E+02  0.47787290809E+02  0.20000090115E+02 0.  0.
         12    1    1    2    0    0 -0.29368273018E+02  0.28647720730E+02 -0.14157478419E+02  0.43400709191E+02  0.00000000000E+00 0. -1.
         11    1    3    3    0    0  0.57070439360E+01 -0.12156699835E+02  0.23753740438E+01  0.13638112167E+02  0.51100000000E-03 0. -1.
        -11    1    3    3    0    0  0.80215647291E+00 -0.71327359727E+01  0.41759728403E+01  0.83041030152E+01  0.51100000000E-03 0.  1.
         12    1    3    3    0    0  0.22859072609E+02 -0.93582849224E+01  0.76061315349E+01  0.25845075627E+02  0.00000000000E+00 0. -1.
</event>
<event>
 7    1  0.2339217E-009  0.4778728E+02  0.7816164E-02  0.1312668E+00
        -11   -1    0    0    0    0  0.00000000000E+00  0.00000000000E+00  0.45593999997E+02  0.45594000000E+02  0.51100000000E-03 0.  1.
         11   -1    0    0    0    0 -0.00000000000E+00 -0.00000000000E+00 -0.45593999997E+02  0.45594000000E+02  0.51100000000E-03 0. -1.
    9900012    2    1    2    0    0  0.36970900012E+02 -0.77503021327E+00  0.22719476446E+02  0.47787277316E+02  0.20000028594E+02 0.  0.
         12    1    1    2    0    0 -0.36970900012E+02  0.77503021327E+00 -0.22719476446E+02  0.43400722684E+02  0.00000000000E+00 0. -1.
         11    1    3    3    0    0  0.11769146105E+02 -0.33454706423E+01  0.14352560837E+02  0.18860036498E+02  0.51100000000E-03 0. -1.
        -11    1    3    3    0    0  0.18203215138E+02  0.20202463364E+01  0.11074714686E+02  0.21402984424E+02  0.51100000000E-03 0.  1.
         12    1    3    3    0    0  0.69985387686E+01  0.55019409265E+00 -0.27077990772E+01  0.75242563937E+01  0.00000000000E+00 0. -1.
</event>
<event>
 7    1  0.2339217E-009  0.4778727E+02  0.7816164E-02  0.1312668E+00
        -11   -1    0    0    0    0  0.00000000000E+00  0.00000000000E+00  0.45593999997E+02  0.45594000000E+02  0.51100000000E-03 0.  1.
         11   -1    0    0    0    0 -0.00000000000E+00 -0.00000000000E+00 -0.45593999997E+02  0.45594000000E+02  0.51100000000E-03 0. -1.
    9900012    2    1    2    0    0 -0.13167109589E+02  0.17916957678E+02  0.37272417025E+02  0.47787271686E+02  0.20000002923E+02 0.  0.
         12    1    1    2    0    0  0.13167109589E+02 -0.17916957678E+02 -0.37272417025E+02  0.43400728314E+02  0.00000000000E+00 0. -1.
         11    1    3    3    0    0 -0.34846104193E+01  0.10850799184E+02  0.20127029880E+02  0.23129627856E+02  0.51100000000E-03 0. -1.
        -11    1    3    3    0    0 -0.23417213758E+01  0.96169550172E+01  0.10533188154E+02  0.14453979928E+02  0.51100000000E-03 0.  1.
         12    1    3    3    0    0 -0.73407777942E+01 -0.25507965236E+01  0.66121989909E+01  0.10203663902E+02  0.00000000000E+00 0. -1.
</event>
<event>
 7    1  0.2339217E-009  0.4778727E+02  0.7816164E-02  0.1312668E+00
        -11   -1    0    0    0    0  0.00000000000E+00  0.00000000000E+00  0.45593999997E+02  0.45594000000E+02  0.51100000000E-03 0. -1.
         11   -1    0    0    0    0 -0.00000000000E+00 -0.00000000000E+00 -0.45593999997E+02  0.45594000000E+02  0.51100000000E-03 0.  1.
    9900012    2    1    2    0    0  0.30755566931E+02 -0.20895853922E+02 -0.22384856979E+02  0.47787269242E+02  0.19999991781E+02 0.  0.
         12    1    1    2    0    0 -0.30755566931E+02  0.20895853922E+02  0.22384856979E+02  0.43400730758E+02  0.00000000000E+00 0. -1.
         11    1    3    3    0    0 -0.77987762177E+00 -0.39473961213E+01  0.68869760419E+00  0.40822113975E+01  0.51100000000E-03 0. -1.
        -11    1    3    3    0    0  0.12429922598E+02 -0.85825829508E+01 -0.44588418048E+01  0.15749443685E+02  0.51100000000E-03 0.  1.
        -12    1    3    3    0    0  0.19105521955E+02 -0.83658748497E+01 -0.18614712778E+02  0.27955614159E+02  0.00000000000E+00 0.  1.
</event>
<event>
 7    1  0.2339217E-009  0.4778727E+02  0.7816164E-02  0.1312668E+00
        -11   -1    0    0    0    0  0.00000000000E+00  0.00000000000E+00  0.45593999997E+02  0.45594000000E+02  0.51100000000E-03 0. -1.
         11   -1    0    0    0    0 -0.00000000000E+00 -0.00000000000E+00 -0.45593999997E+02  0.45594000000E+02  0.51100000000E-03 0.  1.
    9900012    2    1    2    0    0  0.43059336643E+02 -0.17574249299E+01  0.51408549641E+01  0.47787269542E+02  0.19999993152E+02 0.  0.
         12    1    1    2    0    0 -0.43059336643E+02  0.17574249299E+01 -0.51408549641E+01  0.43400730458E+02  0.00000000000E+00 0. -1.
         11    1    3    3    0    0  0.18346067963E+02  0.33643289363E+01  0.37165727099E+01  0.19018670612E+02  0.51100000000E-03 0. -1.
        -11    1    3    3    0    0  0.23847366192E+02 -0.59015619647E+01  0.49454825282E+01  0.25059591090E+02  0.51100000000E-03 0.  1.
        -12    1    3    3    0    0  0.86590248816E+00  0.77980809854E+00 -0.35212002740E+01  0.37090078403E+01  0.00000000000E+00 0.  1.
</event>
<event>
 7    1  0.2339217E-009  0.4778727E+02  0.7816164E-02  0.1312668E+00
        -11   -1    0    0    0    0  0.00000000000E+00  0.00000000000E+00  0.45593999997E+02  0.45594000000E+02  0.51100000000E-03 0. -1.
         11   -1    0    0    0    0 -0.00000000000E+00 -0.00000000000E+00 -0.45593999997E+02  0.45594000000E+02  0.51100000000E-03 0.  1.
    9900012    2    1    2    0    0 -0.42818828764E+02 -0.23821641669E+01 -0.66705775350E+01  0.47787269505E+02  0.19999992983E+02 0.  0.
         12    1    1    2    0    0  0.42818828764E+02  0.23821641669E+01  0.66705775350E+01  0.43400730495E+02  0.00000000000E+00 0. -1.
         11    1    3    3    0    0 -0.35294183541E+01 -0.38578248519E+01 -0.46722260427E+00  0.52495622417E+01  0.51100000000E-03 0. -1.
        -11    1    3    3    0    0  0.11379506887E+01 -0.27385892192E+00  0.87075352662E+00  0.14588154250E+01  0.51100000000E-03 0.  1.
        -12    1    3    3    0    0 -0.40427361098E+02  0.17495196070E+01 -0.70741084574E+01  0.41078891839E+02  0.00000000000E+00 0.  1.
</event>
<event>
 7    1  0.2339217E-009  0.4778727E+02  0.7816164E-02  0.1312668E+00
        -11   -1    0    0    0    0  0.00000000000E+00  0.00000000000E+00  0.45593999997E+02  0.45594000000E+02  0.51100000000E-03 0. -1.
         11   -1    0    0    0    0 -0.00000000000E+00 -0.00000000000E+00 -0.45593999997E+02  0.45594000000E+02  0.51100000000E-03 0.  1.
    9900012    2    1    2    0    0  0.39420144089E+02  0.83324285306E+01 -0.16132149397E+02  0.47787269944E+02  0.19999994984E+02 0.  0.
         12    1    1    2    0    0 -0.39420144089E+02 -0.83324285306E+01  0.16132149397E+02  0.43400730056E+02  0.00000000000E+00 0. -1.
         11    1    3    3    0    0  0.14896738393E+02  0.14615548028E+01 -0.80856013598E+01  0.17012522059E+02  0.51100000000E-03 0. -1.
        -11    1    3    3    0    0  0.19414189066E+02 -0.13927813383E+01 -0.80398230642E+01  0.21059186407E+02  0.51100000000E-03 0.  1.
         12    1    3    3    0    0  0.51092166302E+01  0.82636550661E+01 -0.67249728216E-02  0.97155614789E+01  0.00000000000E+00 0. -1.
</event>
<event>
 7    1  0.2339217E-009  0.4778727E+02  0.7816164E-02  0.1312668E+00
        -11   -1    0    0    0    0  0.00000000000E+00  0.00000000000E+00  0.45593999997E+02  0.45594000000E+02  0.51100000000E-03 0.  1.
         11   -1    0    0    0    0 -0.00000000000E+00 -0.00000000000E+00 -0.45593999997E+02  0.45594000000E+02  0.51100000000E-03 0. -1.
    9900012    2    1    2    0    0  0.29894787049E+02  0.12665328008E+02  0.28801293312E+02  0.47787270482E+02  0.19999997435E+02 0.  0.
         12    1    1    2    0    0 -0.29894787049E+02 -0.12665328008E+02 -0.28801293312E+02  0.43400729518E+02  0.00000000000E+00 0. -1.
         11    1    3    3    0    0  0.74162477222E+01  0.79364505087E+01  0.64902077703E+01  0.12653488614E+02  0.51100000000E-03 0. -1.
        -11    1    3    3    0    0  0.14681731894E+02  0.99679699101E+01  0.14444326606E+02  0.22881264102E+02  0.51100000000E-03 0.  1.
         12    1    3    3    0    0  0.77968074322E+01 -0.52390924111E+01  0.78667589357E+01  0.12252517765E+02  0.00000000000E+00 0. -1.
</event>
<event>
 7    1  0.2339217E-009  0.4778727E+02  0.7816164E-02  0.1312668E+00
        -11   -1    0    0    0    0  0.00000000000E+00  0.00000000000E+00  0.45593999997E+02  0.45594000000E+02  0.51100000000E-03 0.  1.
         11   -1    0    0    0    0 -0.00000000000E+00 -0.00000000000E+00 -0.45593999997E+02  0.45594000000E+02  0.51100000000E-03 0. -1.
    9900012    2    1    2    0    0  0.30687999310E+02  0.29708495078E+02  0.76990639942E+01  0.47787267658E+02  0.19999984560E+02 0.  0.
         12    1    1    2    0    0 -0.30687999310E+02 -0.29708495078E+02 -0.76990639942E+01  0.43400732342E+02  0.00000000000E+00 0. -1.
         11    1    3    3    0    0  0.64627534358E+01  0.12607517304E+02  0.60070809922E+01  0.15388362384E+02  0.51100000000E-03 0. -1.
        -11    1    3    3    0    0  0.11339767697E+02  0.15327446183E+02 -0.10915242520E+01  0.19097443896E+02  0.51100000000E-03 0.  1.
         12    1    3    3    0    0  0.12885478177E+02  0.17735315908E+01  0.27835072540E+01  0.13301461378E+02  0.00000000000E+00 0. -1.
</event>
<event>
 7    1  0.2339217E-009  0.4778727E+02  0.7816164E-02  0.1312668E+00
        -11   -1    0    0    0    0  0.00000000000E+00  0.00000000000E+00  0.45593999997E+02  0.45594000000E+02  0.51100000000E-03 0. -1.
         11   -1    0    0    0    0 -0.00000000000E+00 -0.00000000000E+00 -0.45593999997E+02  0.45594000000E+02  0.51100000000E-03 0.  1.
    9900012    2    1    2    0    0 -0.14594841906E+02 -0.12383563590E+02 -0.38952038934E+02  0.47787269655E+02  0.19999993663E+02 0.  0.
         12    1    1    2    0    0  0.14594841906E+02  0.12383563590E+02  0.38952038934E+02  0.43400730345E+02  0.00000000000E+00 0. -1.
         11    1    3    3    0    0 -0.98082823672E+01 -0.17937104453E+01 -0.11917084400E+02  0.15538233523E+02  0.51100000000E-03 0. -1.
        -11    1    3    3    0    0 -0.82746065127E+01 -0.89347390568E+01 -0.13531066830E+02  0.18204077696E+02  0.51100000000E-03 0.  1.
        -12    1    3    3    0    0  0.34880469743E+01 -0.16551140876E+01 -0.13503887704E+02  0.14044958436E+02  0.00000000000E+00 0.  1.
</event>
<event>
 7    1  0.2339217E-009  0.4778727E+02  0.7816164E-02  0.1312668E+00
        -11   -1    0    0    0    0  0.00000000000E+00  0.00000000000E+00  0.45593999997E+02  0.45594000000E+02  0.51100000000E-03 0. -1.
         11   -1    0    0    0    0 -0.00000000000E+00 -0.00000000000E+00 -0.45593999997E+02  0.45594000000E+02  0.51100000000E-03 0.  1.
    9900012    2    1    2    0    0 -0.63551017483E+01  0.40775485719E+02 -0.13438603637E+02  0.47787267039E+02  0.19999981738E+02 0.  0.
         12    1    1    2    0    0  0.63551017483E+01 -0.40775485719E+02  0.13438603637E+02  0.43400732961E+02  0.00000000000E+00 0. -1.
         11    1    3    3    0    0  0.29956684264E+01  0.25407013786E+01  0.61136919535E-02  0.39280059133E+01  0.51100000000E-03 0. -1.
        -11    1    3    3    0    0  0.10395980029E+01  0.16603552585E+02 -0.10522854736E+02  0.19684745223E+02  0.51100000000E-03 0.  1.
         12    1    3    3    0    0 -0.10390368178E+02  0.21631231756E+02 -0.29218625931E+01  0.24174515903E+02  0.00000000000E+00 0. -1.
</event>
<event>
 7    1  0.2339217E-009  0.4778727E+02  0.7816164E-02  0.1312668E+00
        -11   -1    0    0    0    0  0.00000000000E+00  0.00000000000E+00  0.45593999997E+02  0.45594000000E+02  0.51100000000E-03 0. -1.
         11   -1    0    0    0    0 -0.00000000000E+00 -0.00000000000E+00 -0.45593999997E+02  0.45594000000E+02  0.51100000000E-03 0.  1.
    9900012    2    1    2    0    0 -0.74071202489E+01 -0.52769697169E+01 -0.42437147788E+02  0.47787270142E+02  0.19999995886E+02 0.  0.
         12    1    1    2    0    0  0.74071202489E+01  0.52769697169E+01  0.42437147788E+02  0.43400729858E+02  0.00000000000E+00 0. -1.
         11    1    3    3    0    0 -0.51227558342E+01 -0.18330823227E+01 -0.12325475009E+02  0.13472941497E+02  0.51100000000E-03 0. -1.
        -11    1    3    3    0    0 -0.80515766661E+00 -0.24486358290E+01  0.12759352264E+01  0.28761271276E+01  0.51100000000E-03 0.  1.
        -12    1    3    3    0    0 -0.14792067482E+01 -0.99525156511E+00 -0.31387608006E+02  0.31438201517E+02  0.00000000000E+00 0.  1.
</event>
<event>
 7    1  0.2339217E-009  0.4778728E+02  0.7816164E-02  0.1312668E+00
        -11   -1    0    0    0    0  0.00000000000E+00  0.00000000000E+00  0.45593999997E+02  0.45594000000E+02  0.51100000000E-03 0.  1.
         11   -1    0    0    0    0 -0.00000000000E+00 -0.00000000000E+00 -0.45593999997E+02  0.45594000000E+02  0.51100000000E-03 0. -1.
    9900012    2    1    2    0    0  0.57182221052E+01  0.83335363935E+01  0.42207546558E+02  0.47787275590E+02  0.20000020726E+02 0.  0.
         12    1    1    2    0    0 -0.57182221052E+01 -0.83335363935E+01 -0.42207546558E+02  0.43400724410E+02  0.00000000000E+00 0. -1.
         11    1    3    3    0    0  0.36646562927E+01  0.25440329378E+00  0.69255772517E+01  0.78395183086E+01  0.51100000000E-03 0. -1.
        -11    1    3    3    0    0 -0.33250070135E+01  0.70554045150E+01  0.33177716826E+02  0.34082184474E+02  0.51100000000E-03 0.  1.
         12    1    3    3    0    0  0.53785728260E+01  0.10237285848E+01  0.21042524803E+01  0.58655728075E+01  0.00000000000E+00 0. -1.
</event>
<event>
 7    1  0.2339217E-009  0.4778727E+02  0.7816164E-02  0.1312668E+00
        -11   -1    0    0    0    0  0.00000000000E+00  0.00000000000E+00  0.45593999997E+02  0.45594000000E+02  0.51100000000E-03 0. -1.
         11   -1    0    0    0    0 -0.00000000000E+00 -0.00000000000E+00 -0.45593999997E+02  0.45594000000E+02  0.51100000000E-03 0.  1.
    9900012    2    1    2    0    0 -0.42347298235E+02  0.77271870253E+01 -0.55335605800E+01  0.47787269824E+02  0.19999994436E+02 0.  0.
         12    1    1    2    0    0  0.42347298235E+02 -0.77271870253E+01  0.55335605800E+01  0.43400730176E+02  0.00000000000E+00 0. -1.
         11    1    3    3    0    0 -0.10553173772E+02 -0.72395975769E+00  0.36074138890E+01  0.11176181353E+02  0.51100000000E-03 0.  1.
        -11    1    3    3    0    0  0.33918318856E+00  0.92352268403E-01 -0.27830216643E+01  0.28051352947E+01  0.51100000000E-03 0. -1.
        -12    1    3    3    0    0 -0.32133307651E+02  0.83587945146E+01 -0.63579528047E+01  0.33805953177E+02  0.00000000000E+00 0.  1.
</event>
<event>
 7    1  0.2339217E-009  0.4778727E+02  0.7816164E-02  0.1312668E+00
        -11   -1    0    0    0    0  0.00000000000E+00  0.00000000000E+00  0.45593999997E+02  0.45594000000E+02  0.51100000000E-03 0.  1.
         11   -1    0    0    0    0 -0.00000000000E+00 -0.00000000000E+00 -0.45593999997E+02  0.45594000000E+02  0.51100000000E-03 0. -1.
    9900012    2    1    2    0    0  0.60982540099E+01  0.38658721645E+01  0.42795903391E+02  0.47787274008E+02  0.20000013513E+02 0.  0.
         12    1    1    2    0    0 -0.60982540099E+01 -0.38658721645E+01 -0.42795903391E+02  0.43400725992E+02  0.00000000000E+00 0. -1.
         11    1    3    3    0    0  0.54460173243E+01  0.29309481923E+01  0.69418055076E+01  0.92972160332E+01  0.51100000000E-03 0. -1.
        -11    1    3    3    0    0  0.13519986925E+01  0.61417503099E+01  0.29879542105E+02  0.30534178129E+02  0.51100000000E-03 0.  1.
         12    1    3    3    0    0 -0.69976200687E+00 -0.52068263377E+01  0.59745557783E+01  0.79558798461E+01  0.00000000000E+00 0. -1.
</event>
<event>
 7    1  0.2339217E-009  0.4778727E+02  0.7816164E-02  0.1312668E+00
        -11   -1    0    0    0    0  0.00000000000E+00  0.00000000000E+00  0.45593999997E+02  0.45594000000E+02  0.51100000000E-03 0. -1.
         11   -1    0    0    0    0 -0.00000000000E+00 -0.00000000000E+00 -0.45593999997E+02  0.45594000000E+02  0.51100000000E-03 0.  1.
    9900012    2    1    2    0    0 -0.40553930107E+01 -0.37997994498E+02 -0.20574975947E+02  0.47787269205E+02  0.19999991612E+02 0.  0.
         12    1    1    2    0    0  0.40553930107E+01  0.37997994498E+02  0.20574975947E+02  0.43400730795E+02  0.00000000000E+00 0. -1.
         11    1    3    3    0    0  0.54753609651E+00 -0.21160451244E+02 -0.76617183291E+01  0.22511473089E+02  0.51100000000E-03 0. -1.
        -11    1    3    3    0    0  0.34574715490E+01 -0.74451402229E+01 -0.13141970373E+01  0.83133228354E+01  0.51100000000E-03 0.  1.
         12    1    3    3    0    0 -0.80604006561E+01 -0.93924030316E+01 -0.11599060580E+02  0.16962473280E+02  0.00000000000E+00 0. -1.
</event>
<event>
 7    1  0.2339217E-009  0.4778727E+02  0.7816164E-02  0.1312668E+00
        -11   -1    0    0    0    0  0.00000000000E+00  0.00000000000E+00  0.45593999997E+02  0.45594000000E+02  0.51100000000E-03 0.  1.
         11   -1    0    0    0    0 -0.00000000000E+00 -0.00000000000E+00 -0.45593999997E+02  0.45594000000E+02  0.51100000000E-03 0. -1.
    9900012    2    1    2    0    0 -0.15888720121E+02 -0.57521583524E+01  0.39976052328E+02  0.47787268295E+02  0.19999987463E+02 0.  0.
         12    1    1    2    0    0  0.15888720121E+02  0.57521583524E+01 -0.39976052328E+02  0.43400731705E+02  0.00000000000E+00 0. -1.
         11    1    3    3    0    0 -0.54579654831E+00 -0.92003485125E+01  0.13502417114E+02  0.16348075569E+02  0.51100000000E-03 0. -1.
        -11    1    3    3    0    0 -0.12429974087E+01  0.24761787921E+01  0.53245922001E+01  0.60023150806E+01  0.51100000000E-03 0.  1.
         12    1    3    3    0    0 -0.14099926164E+02  0.97201136799E+00  0.21149043014E+02  0.25436877645E+02  0.00000000000E+00 0. -1.
</event>
<event>
 7    1  0.2339217E-009  0.4778727E+02  0.7816164E-02  0.1312668E+00
        -11   -1    0    0    0    0  0.00000000000E+00  0.00000000000E+00  0.45593999997E+02  0.45594000000E+02  0.51100000000E-03 0. -1.
         11   -1    0    0    0    0 -0.00000000000E+00 -0.00000000000E+00 -0.45593999997E+02  0.45594000000E+02  0.51100000000E-03 0.  1.
    9900012    2    1    2    0    0  0.40895748086E+01 -0.43179345600E+02 -0.15629059658E+01  0.47787272084E+02  0.20000004741E+02 0.  0.
         12    1    1    2    0    0 -0.40895748086E+01  0.43179345600E+02  0.15629059658E+01  0.43400727916E+02  0.00000000000E+00 0. -1.
         11    1    3    3    0    0  0.17239354113E+01 -0.68675986679E+01 -0.18125460713E+01  0.73089799759E+01  0.51100000000E-03 0. -1.
        -11    1    3    3    0    0  0.31630783799E+00 -0.36491809238E+02 -0.30171683148E+01  0.36617693770E+02  0.51100000000E-03 0.  1.
         12    1    3    3    0    0  0.20493315593E+01  0.18006230626E+00  0.32668084202E+01  0.38605983381E+01  0.00000000000E+00 0. -1.
</event>
<event>
 7    1  0.2339217E-009  0.4778727E+02  0.7816164E-02  0.1312668E+00
        -11   -1    0    0    0    0  0.00000000000E+00  0.00000000000E+00  0.45593999997E+02  0.45594000000E+02  0.51100000000E-03 0.  1.
         11   -1    0    0    0    0 -0.00000000000E+00 -0.00000000000E+00 -0.45593999997E+02  0.45594000000E+02  0.51100000000E-03 0. -1.
    9900012    2    1    2    0    0  0.75513506100E+01  0.20077527652E+02  0.37729208315E+02  0.47787272210E+02  0.20000005313E+02 0.  0.
         12    1    1    2    0    0 -0.75513506100E+01 -0.20077527652E+02 -0.37729208315E+02  0.43400727790E+02  0.00000000000E+00 0. -1.
         11    1    3    3    0    0 -0.22995474733E+01  0.12723549735E+01  0.13876075109E+02  0.14122757041E+02  0.51100000000E-03 0. -1.
        -11    1    3    3    0    0  0.47622687115E+01  0.23532824379E+01  0.10867795497E+02  0.12096533418E+02  0.51100000000E-03 0.  1.
        -12    1    3    3    0    0  0.50886293719E+01  0.16451890240E+02  0.12985337709E+02  0.21567981750E+02  0.00000000000E+00 0.  1.
</event>
<event>
 7    1  0.2339217E-009  0.4778727E+02  0.7816164E-02  0.1312668E+00
        -11   -1    0    0    0    0  0.00000000000E+00  0.00000000000E+00  0.45593999997E+02  0.45594000000E+02  0.51100000000E-03 0.  1.
         11   -1    0    0    0    0 -0.00000000000E+00 -0.00000000000E+00 -0.45593999997E+02  0.45594000000E+02  0.51100000000E-03 0. -1.
    9900012    2    1    2    0    0  0.54115442491E+01 -0.42376638626E+02  0.76523888459E+01  0.47787269966E+02  0.19999995085E+02 0.  0.
         12    1    1    2    0    0 -0.54115442491E+01  0.42376638626E+02 -0.76523888459E+01  0.43400730034E+02  0.00000000000E+00 0. -1.
         11    1    3    3    0    0  0.18807792273E+01 -0.13800016257E+02  0.81258165443E+00  0.13951274795E+02  0.51100000000E-03 0. -1.
        -11    1    3    3    0    0 -0.31903214717E+01 -0.12594411641E+02  0.97653313192E+01  0.16252970550E+02  0.51100000000E-03 0.  1.
         12    1    3    3    0    0  0.67210864935E+01 -0.15982210729E+02 -0.29255241277E+01  0.17583024622E+02  0.00000000000E+00 0. -1.
</event>
<event>
 7    1  0.2339217E-009  0.4778727E+02  0.7816164E-02  0.1312668E+00
        -11   -1    0    0    0    0  0.00000000000E+00  0.00000000000E+00  0.45593999997E+02  0.45594000000E+02  0.51100000000E-03 0. -1.
         11   -1    0    0    0    0 -0.00000000000E+00 -0.00000000000E+00 -0.45593999997E+02  0.45594000000E+02  0.51100000000E-03 0.  1.
    9900012    2    1    2    0    0  0.30232751216E+02  0.26890013117E+02  0.15701322165E+02  0.47787267642E+02  0.19999984486E+02 0.  0.
         12    1    1    2    0    0 -0.30232751216E+02 -0.26890013117E+02 -0.15701322165E+02  0.43400732358E+02  0.00000000000E+00 0. -1.
         11    1    3    3    0    0  0.81232694557E+01  0.23575134147E+01  0.21492118778E+01  0.87272268280E+01  0.51100000000E-03 0. -1.
        -11    1    3    3    0    0  0.67547375894E+01  0.14961439196E+02 -0.63791996208E-01  0.16415700180E+02  0.51100000000E-03 0.  1.
         12    1    3    3    0    0  0.15354744171E+02  0.95710605066E+01  0.13615902283E+02  0.22644340634E+02  0.00000000000E+00 0. -1.
</event>
<event>
 7    1  0.2339217E-009  0.4778727E+02  0.7816164E-02  0.1312668E+00
        -11   -1    0    0    0    0  0.00000000000E+00  0.00000000000E+00  0.45593999997E+02  0.45594000000E+02  0.51100000000E-03 0.  1.
         11   -1    0    0    0    0 -0.00000000000E+00 -0.00000000000E+00 -0.45593999997E+02  0.45594000000E+02  0.51100000000E-03 0. -1.
    9900012    2    1    2    0    0  0.37941817820E+02 -0.11247238122E+02 -0.17819699346E+02  0.47787267406E+02  0.19999983413E+02 0.  0.
         12    1    1    2    0    0 -0.37941817820E+02  0.11247238122E+02  0.17819699346E+02  0.43400732594E+02  0.00000000000E+00 0. -1.
         11    1    3    3    0    0  0.62695760938E+01 -0.30116246285E+01  0.11407629569E+01  0.70483194936E+01  0.51100000000E-03 0. -1.
        -11    1    3    3    0    0  0.30436041607E+01 -0.17023306185E+01  0.25656079314E+01  0.43294110617E+01  0.51100000000E-03 0.  1.
        -12    1    3    3    0    0  0.28628637566E+02 -0.65332828753E+01 -0.21526070234E+02  0.36409536851E+02  0.00000000000E+00 0.  1.
</event>
<event>
 7    1  0.2339217E-009  0.4778727E+02  0.7816164E-02  0.1312668E+00
        -11   -1    0    0    0    0  0.00000000000E+00  0.00000000000E+00  0.45593999997E+02  0.45594000000E+02  0.51100000000E-03 0.  1.
         11   -1    0    0    0    0 -0.00000000000E+00 -0.00000000000E+00 -0.45593999997E+02  0.45594000000E+02  0.51100000000E-03 0. -1.
    9900012    2    1    2    0    0  0.12849870367E+02  0.32198123798E+02  0.26111018196E+02  0.47787267106E+02  0.19999982043E+02 0.  0.
         12    1    1    2    0    0 -0.12849870367E+02 -0.32198123798E+02 -0.26111018196E+02  0.43400732894E+02  0.00000000000E+00 0. -1.
         11    1    3    3    0    0  0.68213034519E+01  0.47298705023E+01  0.54607090525E+01  0.99358542345E+01  0.51100000000E-03 0. -1.
        -11    1    3    3    0    0  0.10895643275E+02  0.17256320455E+02  0.13112553644E+02  0.24257673041E+02  0.51100000000E-03 0.  1.
        -12    1    3    3    0    0 -0.48670763598E+01  0.10211932840E+02  0.75377554995E+01  0.13593739831E+02  0.00000000000E+00 0.  1.
</event>
<event>
 7    1  0.2339217E-009  0.4778727E+02  0.7816164E-02  0.1312668E+00
        -11   -1    0    0    0    0  0.00000000000E+00  0.00000000000E+00  0.45593999997E+02  0.45594000000E+02  0.51100000000E-03 0. -1.
         11   -1    0    0    0    0 -0.00000000000E+00 -0.00000000000E+00 -0.45593999997E+02  0.45594000000E+02  0.51100000000E-03 0.  1.
    9900012    2    1    2    0    0  0.35022152534E+01  0.17129563570E+02 -0.39723243198E+02  0.47787268325E+02  0.19999987600E+02 0.  0.
         12    1    1    2    0    0 -0.35022152534E+01 -0.17129563570E+02  0.39723243198E+02  0.43400731675E+02  0.00000000000E+00 0. -1.
         11    1    3    3    0    0  0.55075556810E+01  0.56163301776E+01 -0.11889260243E+02  0.14255905570E+02  0.51100000000E-03 0. -1.
        -11    1    3    3    0    0  0.17940128329E+01  0.69397218760E+01 -0.26480535942E+02  0.27433501522E+02  0.51100000000E-03 0.  1.
         12    1    3    3    0    0 -0.37993532605E+01  0.45735115167E+01 -0.13534470134E+01  0.60978612324E+01  0.00000000000E+00 0. -1.
</event>
<event>
 7    1  0.2339217E-009  0.4778727E+02  0.7816164E-02  0.1312668E+00
        -11   -1    0    0    0    0  0.00000000000E+00  0.00000000000E+00  0.45593999997E+02  0.45594000000E+02  0.51100000000E-03 0. -1.
         11   -1    0    0    0    0 -0.00000000000E+00 -0.00000000000E+00 -0.45593999997E+02  0.45594000000E+02  0.51100000000E-03 0.  1.
    9900012    2    1    2    0    0  0.27220684725E+01 -0.15782313698E+02 -0.40337727110E+02  0.47787270619E+02  0.19999998059E+02 0.  0.
         12    1    1    2    0    0 -0.27220684725E+01  0.15782313698E+02  0.40337727110E+02  0.43400729381E+02  0.00000000000E+00 0. -1.
         11    1    3    3    0    0 -0.27695766684E+01 -0.57521324081E+01 -0.36468934073E+01  0.73523747149E+01  0.51100000000E-03 0. -1.
        -11    1    3    3    0    0  0.40891012959E+01 -0.71622356819E+01 -0.77460384113E+01  0.11314569400E+02  0.51100000000E-03 0.  1.
         12    1    3    3    0    0  0.14025438450E+01 -0.28679456081E+01 -0.28944795291E+02  0.29120326504E+02  0.00000000000E+00 0. -1.
</event>
<event>
 7    1  0.2339217E-009  0.4778727E+02  0.7816164E-02  0.1312668E+00
        -11   -1    0    0    0    0  0.00000000000E+00  0.00000000000E+00  0.45593999997E+02  0.45594000000E+02  0.51100000000E-03 0.  1.
         11   -1    0    0    0    0 -0.00000000000E+00 -0.00000000000E+00 -0.45593999997E+02  0.45594000000E+02  0.51100000000E-03 0. -1.
    9900012    2    1    2    0    0 -0.42805916164E+02  0.49284412410E+01  0.51949062680E+01  0.47787273706E+02  0.20000012135E+02 0.  0.
         12    1    1    2    0    0  0.42805916164E+02 -0.49284412410E+01 -0.51949062680E+01  0.43400726294E+02  0.00000000000E+00 0. -1.
         11    1    3    3    0    0 -0.21557978337E+02  0.77595935040E+01 -0.11779687781E+01  0.22942217243E+02  0.51100000000E-03 0. -1.
        -11    1    3    3    0    0 -0.20843868324E+02  0.31032475579E+00  0.55728040148E+01  0.21578213388E+02  0.51100000000E-03 0.  1.
         12    1    3    3    0    0 -0.40406950331E+00 -0.31414770187E+01  0.80007103130E+00  0.32668430752E+01  0.00000000000E+00 0. -1.
</event>
<event>
 7    1  0.2339217E-009  0.4778727E+02  0.7816164E-02  0.1312668E+00
        -11   -1    0    0    0    0  0.00000000000E+00  0.00000000000E+00  0.45593999997E+02  0.45594000000E+02  0.51100000000E-03 0.  1.
         11   -1    0    0    0    0 -0.00000000000E+00 -0.00000000000E+00 -0.45593999997E+02  0.45594000000E+02  0.51100000000E-03 0. -1.
    9900012    2    1    2    0    0  0.30391929146E+02  0.29607687208E+02  0.91290067211E+01  0.47787271173E+02  0.20000000585E+02 0.  0.
         12    1    1    2    0    0 -0.30391929146E+02 -0.29607687208E+02 -0.91290067211E+01  0.43400728827E+02  0.00000000000E+00 0. -1.
         11    1    3    3    0    0  0.17796427742E+00 -0.91776247674E+00 -0.19856404142E+01  0.21947043909E+01  0.51100000000E-03 0. -1.
        -11    1    3    3    0    0  0.36752820292E+01  0.89739339137E+01  0.48254160367E+01  0.10831612441E+02  0.51100000000E-03 0.  1.
         12    1    3    3    0    0  0.26538682840E+02  0.21551515771E+02  0.62892310986E+01  0.34760954341E+02  0.00000000000E+00 0. -1.
</event>
<event>
 7    1  0.2339217E-009  0.4778727E+02  0.7816164E-02  0.1312668E+00
        -11   -1    0    0    0    0  0.00000000000E+00  0.00000000000E+00  0.45593999997E+02  0.45594000000E+02  0.51100000000E-03 0. -1.
         11   -1    0    0    0    0 -0.00000000000E+00 -0.00000000000E+00 -0.45593999997E+02  0.45594000000E+02  0.51100000000E-03 0.  1.
    9900012    2    1    2    0    0 -0.22341138938E+02  0.23280167176E+02 -0.29026378894E+02  0.47787270231E+02  0.19999996291E+02 0.  0.
         12    1    1    2    0    0  0.22341138938E+02 -0.23280167176E+02  0.29026378894E+02  0.43400729769E+02  0.00000000000E+00 0. -1.
         11    1    3    3    0    0 -0.52797530394E+01  0.96249853109E+01 -0.40295806908E+01  0.11694171847E+02  0.51100000000E-03 0. -1.
        -11    1    3    3    0    0 -0.18907020763E+02  0.12156882935E+02 -0.18295351833E+02  0.28982497059E+02  0.51100000000E-03 0.  1.
        -12    1    3    3    0    0  0.18456348644E+01  0.14982989295E+01 -0.67014463708E+01  0.71106013244E+01  0.00000000000E+00 0.  1.
</event>
<event>
 7    1  0.2339217E-009  0.4778728E+02  0.7816164E-02  0.1312668E+00
        -11   -1    0    0    0    0  0.00000000000E+00  0.00000000000E+00  0.45593999997E+02  0.45594000000E+02  0.51100000000E-03 0.  1.
         11   -1    0    0    0    0 -0.00000000000E+00 -0.00000000000E+00 -0.45593999997E+02  0.45594000000E+02  0.51100000000E-03 0. -1.
    9900012    2    1    2    0    0 -0.23500821594E+02 -0.43230983124E+01  0.36230442023E+02  0.47787277382E+02  0.20000028894E+02 0.  0.
         12    1    1    2    0    0  0.23500821594E+02  0.43230983124E+01 -0.36230442023E+02  0.43400722618E+02  0.00000000000E+00 0. -1.
         11    1    3    3    0    0  0.20556495893E+01  0.32443991374E+00  0.17620680603E+01  0.27268737782E+01  0.51100000000E-03 0. -1.
        -11    1    3    3    0    0 -0.42271752517E+01  0.23845572790E+01  0.13364758609E+01  0.50340135095E+01  0.51100000000E-03 0.  1.
        -12    1    3    3    0    0 -0.21329295932E+02 -0.70320955052E+01  0.33131898102E+02  0.40026390094E+02  0.00000000000E+00 0.  1.
</event>
<event>
 7    1  0.2339217E-009  0.4778727E+02  0.7816164E-02  0.1312668E+00
        -11   -1    0    0    0    0  0.00000000000E+00  0.00000000000E+00  0.45593999997E+02  0.45594000000E+02  0.51100000000E-03 0.  1.
         11   -1    0    0    0    0 -0.00000000000E+00 -0.00000000000E+00 -0.45593999997E+02  0.45594000000E+02  0.51100000000E-03 0. -1.
    9900012    2    1    2    0    0 -0.87647725962E+01 -0.18010742405E+02  0.38502145582E+02  0.47787270801E+02  0.19999998889E+02 0.  0.
         12    1    1    2    0    0  0.87647725962E+01  0.18010742405E+02 -0.38502145582E+02  0.43400729199E+02  0.00000000000E+00 0. -1.
         11    1    3    3    0    0 -0.44371557236E+01 -0.50676323257E+01  0.47994132618E+01  0.82706478719E+01  0.51100000000E-03 0. -1.
        -11    1    3    3    0    0 -0.65474072383E+01 -0.14693084727E+02  0.32828791909E+02  0.36557965737E+02  0.51100000000E-03 0.  1.
         12    1    3    3    0    0  0.22197903656E+01  0.17499746482E+01  0.87394041040E+00  0.29586571916E+01  0.00000000000E+00 0. -1.
</event>
<event>
 7    1  0.2339217E-009  0.4778727E+02  0.7816164E-02  0.1312668E+00
        -11   -1    0    0    0    0  0.00000000000E+00  0.00000000000E+00  0.45593999997E+02  0.45594000000E+02  0.51100000000E-03 0.  1.
         11   -1    0    0    0    0 -0.00000000000E+00 -0.00000000000E+00 -0.45593999997E+02  0.45594000000E+02  0.51100000000E-03 0. -1.
    9900012    2    1    2    0    0  0.21404088834E+01  0.13895847878E+02  0.41060290331E+02  0.47787269816E+02  0.19999994398E+02 0.  0.
         12    1    1    2    0    0 -0.21404088834E+01 -0.13895847878E+02 -0.41060290331E+02  0.43400730184E+02  0.00000000000E+00 0. -1.
         11    1    3    3    0    0  0.62515038468E+01  0.15937844219E+01  0.13728281995E+02  0.15168624721E+02  0.51100000000E-03 0. -1.
        -11    1    3    3    0    0  0.72287793649E-01  0.73993579304E+01  0.24474446723E+02  0.25568618774E+02  0.51100000000E-03 0.  1.
         12    1    3    3    0    0 -0.41833827570E+01  0.49027055255E+01  0.28575616134E+01  0.70500263216E+01  0.00000000000E+00 0. -1.
</event>
<event>
 7    1  0.2339217E-009  0.4778727E+02  0.7816164E-02  0.1312668E+00
        -11   -1    0    0    0    0  0.00000000000E+00  0.00000000000E+00  0.45593999997E+02  0.45594000000E+02  0.51100000000E-03 0. -1.
         11   -1    0    0    0    0 -0.00000000000E+00 -0.00000000000E+00 -0.45593999997E+02  0.45594000000E+02  0.51100000000E-03 0.  1.
    9900012    2    1    2    0    0  0.65750976987E+01 -0.34084415138E+02 -0.26050793874E+02  0.47787272742E+02  0.20000007741E+02 0.  0.
         12    1    1    2    0    0 -0.65750976987E+01  0.34084415138E+02  0.26050793874E+02  0.43400727258E+02  0.00000000000E+00 0. -1.
         11    1    3    3    0    0  0.41139832616E-01 -0.84909566592E+01 -0.12685375106E+02  0.15264887138E+02  0.51100000000E-03 0. -1.
        -11    1    3    3    0    0  0.67669047298E+01 -0.26533877403E+02 -0.10215107388E+02  0.29226461792E+02  0.51100000000E-03 0.  1.
         12    1    3    3    0    0 -0.23294686369E+00  0.94041892428E+00 -0.31503113792E+01  0.32959238129E+01  0.00000000000E+00 0. -1.
</event>
<event>
 7    1  0.2339217E-009  0.4778727E+02  0.7816164E-02  0.1312668E+00
        -11   -1    0    0    0    0  0.00000000000E+00  0.00000000000E+00  0.45593999997E+02  0.45594000000E+02  0.51100000000E-03 0. -1.
         11   -1    0    0    0    0 -0.00000000000E+00 -0.00000000000E+00 -0.45593999997E+02  0.45594000000E+02  0.51100000000E-03 0.  1.
    9900012    2    1    2    0    0  0.15102346635E+02  0.30678250042E+02 -0.26728027538E+02  0.47787270102E+02  0.19999995705E+02 0.  0.
         12    1    1    2    0    0 -0.15102346635E+02 -0.30678250042E+02  0.26728027538E+02  0.43400729898E+02  0.00000000000E+00 0. -1.
         11    1    3    3    0    0  0.15066122436E+01  0.53885817453E+01 -0.77591377103E+00  0.56487818262E+01  0.51100000000E-03 0. -1.
        -11    1    3    3    0    0  0.11733742197E+01  0.72202604214E+01 -0.16901411711E+02  0.18416478645E+02  0.51100000000E-03 0.  1.
        -12    1    3    3    0    0  0.12422360172E+02  0.18069407876E+02 -0.90507020563E+01  0.23722009631E+02  0.00000000000E+00 0.  1.
</event>
<event>
 7    1  0.2339217E-009  0.4778727E+02  0.7816164E-02  0.1312668E+00
        -11   -1    0    0    0    0  0.00000000000E+00  0.00000000000E+00  0.45593999997E+02  0.45594000000E+02  0.51100000000E-03 0. -1.
         11   -1    0    0    0    0 -0.00000000000E+00 -0.00000000000E+00 -0.45593999997E+02  0.45594000000E+02  0.51100000000E-03 0.  1.
    9900012    2    1    2    0    0 -0.35499602851E+02 -0.22906384454E+01 -0.24862713932E+02  0.47787269924E+02  0.19999994892E+02 0.  0.
         12    1    1    2    0    0  0.35499602851E+02  0.22906384454E+01  0.24862713932E+02  0.43400730076E+02  0.00000000000E+00 0. -1.
         11    1    3    3    0    0 -0.30675212145E+01 -0.40272489282E+00 -0.44789951307E+01  0.54436450456E+01  0.51100000000E-03 0. -1.
        -11    1    3    3    0    0 -0.14429357824E+02  0.29922757359E+00  0.80363487027E+00  0.14454816970E+02  0.51100000000E-03 0.  1.
        -12    1    3    3    0    0 -0.18002723812E+02 -0.21871411262E+01 -0.21187353672E+02  0.27888807909E+02  0.00000000000E+00 0.  1.
</event>
<event>
 7    1  0.2416771E-009  0.4778727E+02  0.7816164E-02  0.1312668E+00
        -11   -1    0    0    0    0  0.00000000000E+00  0.00000000000E+00  0.45593999997E+02  0.45594000000E+02  0.51100000000E-03 0. -1.
         11   -1    0    0    0    0 -0.00000000000E+00 -0.00000000000E+00 -0.45593999997E+02  0.45594000000E+02  0.51100000000E-03 0.  1.
    9900012    2    1    2    0    0 -0.25326746704E+02 -0.19199407287E+00 -0.35244037309E+02  0.47787272746E+02  0.20000007757E+02 0.  0.
         12    1    1    2    0    0  0.25326746704E+02  0.19199407287E+00  0.35244037309E+02  0.43400727254E+02  0.00000000000E+00 0. -1.
         11    1    3    3    0    0 -0.36640124905E+01 -0.16991388848E+01  0.10304330789E+01  0.41681954215E+01  0.51100000000E-03 0. -1.
        -11    1    3    3    0    0 -0.14108539390E+02 -0.24415434371E+01 -0.15179068651E+02  0.20866627505E+02  0.51100000000E-03 0.  1.
         12    1    3    3    0    0 -0.75541948242E+01  0.39486882490E+01 -0.21095401737E+02  0.22752449819E+02  0.00000000000E+00 0. -1.
</event>
<event>
 7    1  0.2339217E-009  0.4778727E+02  0.7816164E-02  0.1312668E+00
        -11   -1    0    0    0    0  0.00000000000E+00  0.00000000000E+00  0.45593999997E+02  0.45594000000E+02  0.51100000000E-03 0. -1.
         11   -1    0    0    0    0 -0.00000000000E+00 -0.00000000000E+00 -0.45593999997E+02  0.45594000000E+02  0.51100000000E-03 0.  1.
    9900012    2    1    2    0    0 -0.15150596736E+02  0.38603743222E+02  0.12799758392E+02  0.47787269740E+02  0.19999994055E+02 0.  0.
         12    1    1    2    0    0  0.15150596736E+02 -0.38603743222E+02 -0.12799758392E+02  0.43400730260E+02  0.00000000000E+00 0. -1.
         11    1    3    3    0    0 -0.35848544612E+01  0.14480410019E+02  0.25215214960E+01  0.15129161469E+02  0.51100000000E-03 0.  1.
        -11    1    3    3    0    0  0.21695675030E+01  0.72661071618E+01  0.76224668375E+01  0.10751992252E+02  0.51100000000E-03 0. -1.
         12    1    3    3    0    0 -0.13735309777E+02  0.16857226041E+02  0.26557700586E+01  0.21906116020E+02  0.00000000000E+00 0. -1.
</event>
<event>
 7    1  0.2339217E-009  0.4778728E+02  0.7816164E-02  0.1312668E+00
        -11   -1    0    0    0    0  0.00000000000E+00  0.00000000000E+00  0.45593999997E+02  0.45594000000E+02  0.51100000000E-03 0.  1.
         11   -1    0    0    0    0 -0.00000000000E+00 -0.00000000000E+00 -0.45593999997E+02  0.45594000000E+02  0.51100000000E-03 0. -1.
    9900012    2    1    2    0    0  0.17461574151E+02  0.27943614158E+02  0.28246604822E+02  0.47787276181E+02  0.20000023421E+02 0.  0.
         12    1    1    2    0    0 -0.17461574151E+02 -0.27943614158E+02 -0.28246604822E+02  0.43400723819E+02  0.00000000000E+00 0. -1.
         11    1    3    3    0    0 -0.19844656723E+01  0.11314962092E+02  0.46748899563E+01  0.12402462155E+02  0.51100000000E-03 0. -1.
        -11    1    3    3    0    0  0.64706877092E+01  0.47060378176E+01  0.36684024611E+01  0.88019184413E+01  0.51100000000E-03 0.  1.
         12    1    3    3    0    0  0.12975352114E+02  0.11922614249E+02  0.19903312404E+02  0.26582895584E+02  0.00000000000E+00 0. -1.
</event>
<event>
 7    1  0.2339217E-009  0.4778727E+02  0.7816164E-02  0.1312668E+00
        -11   -1    0    0    0    0  0.00000000000E+00  0.00000000000E+00  0.45593999997E+02  0.45594000000E+02  0.51100000000E-03 0.  1.
         11   -1    0    0    0    0 -0.00000000000E+00 -0.00000000000E+00 -0.45593999997E+02  0.45594000000E+02  0.51100000000E-03 0. -1.
    9900012    2    1    2    0    0  0.11788958885E+02  0.36281361368E+02  0.20695560312E+02  0.47787274764E+02  0.20000016960E+02 0.  0.
         12    1    1    2    0    0 -0.11788958885E+02 -0.36281361368E+02 -0.20695560312E+02  0.43400725236E+02  0.00000000000E+00 0. -1.
         11    1    3    3    0    0  0.26164063989E+00  0.25381330466E+01 -0.22713056209E+01  0.34160510346E+01  0.51100000000E-03 0. -1.
        -11    1    3    3    0    0 -0.16563509390E+01  0.10952448586E+02  0.34655322147E+01  0.11606443997E+02  0.51100000000E-03 0.  1.
         12    1    3    3    0    0  0.13183669184E+02  0.22790779735E+02  0.19501333718E+02  0.32764779732E+02  0.00000000000E+00 0. -1.
</event>
<event>
 7    1  0.2339217E-009  0.4778727E+02  0.7816164E-02  0.1312668E+00
        -11   -1    0    0    0    0  0.00000000000E+00  0.00000000000E+00  0.45593999997E+02  0.45594000000E+02  0.51100000000E-03 0.  1.
         11   -1    0    0    0    0 -0.00000000000E+00 -0.00000000000E+00 -0.45593999997E+02  0.45594000000E+02  0.51100000000E-03 0. -1.
    9900012    2    1    2    0    0  0.24052876373E+02 -0.17917238419E+02  0.31369654413E+02  0.47787268297E+02  0.19999987472E+02 0.  0.
         12    1    1    2    0    0 -0.24052876373E+02  0.17917238419E+02 -0.31369654413E+02  0.43400731703E+02  0.00000000000E+00 0. -1.
         11    1    3    3    0    0 -0.96465234788E+00  0.18171677320E+00  0.72659955365E+01  0.73320029006E+01  0.51100000000E-03 0. -1.
        -11    1    3    3    0    0  0.10250400752E+01 -0.22862463601E+01  0.59769991336E+01  0.64809064551E+01  0.51100000000E-03 0.  1.
        -12    1    3    3    0    0  0.23992488646E+02 -0.15812708832E+02  0.18126659743E+02  0.33974358941E+02  0.00000000000E+00 0.  1.
</event>
<event>
 7    1  0.2339217E-009  0.4778727E+02  0.7816164E-02  0.1312668E+00
        -11   -1    0    0    0    0  0.00000000000E+00  0.00000000000E+00  0.45593999997E+02  0.45594000000E+02  0.51100000000E-03 0.  1.
         11   -1    0    0    0    0 -0.00000000000E+00 -0.00000000000E+00 -0.45593999997E+02  0.45594000000E+02  0.51100000000E-03 0. -1.
    9900012    2    1    2    0    0  0.28308445312E+02  0.23096194051E+02  0.23426927338E+02  0.47787272124E+02  0.20000004923E+02 0.  0.
         12    1    1    2    0    0 -0.28308445312E+02 -0.23096194051E+02 -0.23426927338E+02  0.43400727876E+02  0.00000000000E+00 0. -1.
         11    1    3    3    0    0  0.11136326937E+02  0.12861719991E+02  0.10336582509E+02  0.19906947456E+02  0.51100000000E-03 0. -1.
        -11    1    3    3    0    0  0.17841342434E+02  0.10412330155E+02  0.70901980036E+01  0.21840353181E+02  0.51100000000E-03 0.  1.
         12    1    3    3    0    0 -0.66922405918E+00 -0.17785609514E+00  0.60001468256E+01  0.60399714868E+01  0.00000000000E+00 0. -1.
</event>
<event>
 7    1  0.2339217E-009  0.4778727E+02  0.7816164E-02  0.1312668E+00
        -11   -1    0    0    0    0  0.00000000000E+00  0.00000000000E+00  0.45593999997E+02  0.45594000000E+02  0.51100000000E-03 0.  1.
         11   -1    0    0    0    0 -0.00000000000E+00 -0.00000000000E+00 -0.45593999997E+02  0.45594000000E+02  0.51100000000E-03 0. -1.
    9900012    2    1    2    0    0 -0.49648318424E+01  0.60978243542E+01  0.42682433300E+02  0.47787272707E+02  0.20000007582E+02 0.  0.
         12    1    1    2    0    0  0.49648318424E+01 -0.60978243542E+01 -0.42682433300E+02  0.43400727293E+02  0.00000000000E+00 0. -1.
         11    1    3    3    0    0 -0.16910707543E+00  0.70902227091E+01  0.17623917228E+02  0.18997429142E+02  0.51100000000E-03 0. -1.
        -11    1    3    3    0    0 -0.49785980976E+01  0.70923163760E+00  0.26235265635E+02  0.26712892238E+02  0.51100000000E-03 0.  1.
         12    1    3    3    0    0  0.18287333057E+00 -0.17016299926E+01 -0.11767495622E+01  0.20769513279E+01  0.00000000000E+00 0. -1.
</event>
<event>
 7    1  0.2339217E-009  0.4778727E+02  0.7816164E-02  0.1312668E+00
        -11   -1    0    0    0    0  0.00000000000E+00  0.00000000000E+00  0.45593999997E+02  0.45594000000E+02  0.51100000000E-03 0. -1.
         11   -1    0    0    0    0 -0.00000000000E+00 -0.00000000000E+00 -0.45593999997E+02  0.45594000000E+02  0.51100000000E-03 0.  1.
    9900012    2    1    2    0    0  0.30440150079E+02  0.65201963786E+01 -0.30240829464E+02  0.47787268850E+02  0.19999989996E+02 0.  0.
         12    1    1    2    0    0 -0.30440150079E+02 -0.65201963786E+01  0.30240829464E+02  0.43400731150E+02  0.00000000000E+00 0. -1.
         11    1    3    3    0    0 -0.53339476882E+00 -0.34243485441E+00  0.20693281744E+00  0.66677811975E+00  0.51100000000E-03 0. -1.
        -11    1    3    3    0    0  0.39673677964E+01 -0.24020505773E+01 -0.12657206706E+02  0.13480160832E+02  0.51100000000E-03 0.  1.
         12    1    3    3    0    0  0.27006177051E+02  0.92646818103E+01 -0.17790555576E+02  0.33640329898E+02  0.00000000000E+00 0. -1.
</event>
<event>
 7    1  0.2339217E-009  0.4778727E+02  0.7816164E-02  0.1312668E+00
        -11   -1    0    0    0    0  0.00000000000E+00  0.00000000000E+00  0.45593999997E+02  0.45594000000E+02  0.51100000000E-03 0.  1.
         11   -1    0    0    0    0 -0.00000000000E+00 -0.00000000000E+00 -0.45593999997E+02  0.45594000000E+02  0.51100000000E-03 0. -1.
    9900012    2    1    2    0    0 -0.78492932329E+01 -0.15319824750E+02  0.39841124217E+02  0.47787267132E+02  0.19999982161E+02 0.  0.
         12    1    1    2    0    0  0.78492932329E+01  0.15319824750E+02 -0.39841124217E+02  0.43400732868E+02  0.00000000000E+00 0. -1.
         11    1    3    3    0    0 -0.61853937688E+01 -0.81822826008E+00  0.42417598805E+01  0.75446087179E+01  0.51100000000E-03 0. -1.
        -11    1    3    3    0    0  0.18323330012E+01  0.14619061850E+01  0.33436910098E+01  0.40834891639E+01  0.51100000000E-03 0.  1.
        -12    1    3    3    0    0 -0.34962324653E+01 -0.15963502675E+02  0.32255673327E+02  0.36159169250E+02  0.00000000000E+00 0.  1.
</event>
<event>
 7    1  0.2339217E-009  0.4778727E+02  0.7816164E-02  0.1312668E+00
        -11   -1    0    0    0    0  0.00000000000E+00  0.00000000000E+00  0.45593999997E+02  0.45594000000E+02  0.51100000000E-03 0.  1.
         11   -1    0    0    0    0 -0.00000000000E+00 -0.00000000000E+00 -0.45593999997E+02  0.45594000000E+02  0.51100000000E-03 0. -1.
    9900012    2    1    2    0    0 -0.25633067146E+02  0.20771376719E+02  0.28197856842E+02  0.47787270138E+02  0.19999995866E+02 0.  0.
         12    1    1    2    0    0  0.25633067146E+02 -0.20771376719E+02 -0.28197856842E+02  0.43400729862E+02  0.00000000000E+00 0. -1.
         11    1    3    3    0    0 -0.21773430594E+02  0.19533877529E+02  0.21764595022E+02  0.36460283157E+02  0.51100000000E-03 0. -1.
        -11    1    3    3    0    0 -0.56544073179E+01 -0.15968962532E+01  0.33122533657E+01  0.67448811984E+01  0.51100000000E-03 0.  1.
        -12    1    3    3    0    0  0.17947707662E+01  0.28343954427E+01  0.31210084543E+01  0.45821057824E+01  0.00000000000E+00 0.  1.
</event>
<event>
 7    1  0.2339217E-009  0.4778728E+02  0.7816164E-02  0.1312668E+00
        -11   -1    0    0    0    0  0.00000000000E+00  0.00000000000E+00  0.45593999997E+02  0.45594000000E+02  0.51100000000E-03 0. -1.
         11   -1    0    0    0    0 -0.00000000000E+00 -0.00000000000E+00 -0.45593999997E+02  0.45594000000E+02  0.51100000000E-03 0.  1.
    9900012    2    1    2    0    0  0.36620823184E+02 -0.20639875247E+02 -0.10795071670E+02  0.47787277503E+02  0.20000029449E+02 0.  0.
         12    1    1    2    0    0 -0.36620823184E+02  0.20639875247E+02  0.10795071670E+02  0.43400722497E+02  0.00000000000E+00 0. -1.
         11    1    3    3    0    0  0.24280042330E+01 -0.87328021740E+01 -0.42331515230E+01  0.10003829789E+02  0.51100000000E-03 0. -1.
        -11    1    3    3    0    0  0.77109440256E+01 -0.17807299159E+01 -0.50569065043E+01  0.93915898789E+01  0.51100000000E-03 0.  1.
        -12    1    3    3    0    0  0.26481874925E+02 -0.10126343157E+02 -0.15050136429E+01  0.28391857836E+02  0.00000000000E+00 0.  1.
</event>
<event>
 7    1  0.2339217E-009  0.4778724E+02  0.7816164E-02  0.1312668E+00
        -11   -1    0    0    0    0  0.00000000000E+00  0.00000000000E+00  0.45593999997E+02  0.45594000000E+02  0.51100000000E-03 0. -1.
         11   -1    0    0    0    0 -0.00000000000E+00 -0.00000000000E+00 -0.45593999997E+02  0.45594000000E+02  0.51100000000E-03 0.  1.
    9900012    2    1    2    0    0  0.37572082110E+02  0.20861743164E+02 -0.60623335185E+01  0.47787244596E+02  0.19999879411E+02 0.  0.
         12    1    1    2    0    0 -0.37572082110E+02 -0.20861743164E+02  0.60623335185E+01  0.43400755404E+02  0.00000000000E+00 0. -1.
         11    1    3    3    0    0  0.36295127022E+01  0.31613616841E+01 -0.54958894347E+01  0.73056396771E+01  0.51100000000E-03 0. -1.
        -11    1    3    3    0    0  0.28837307282E+02  0.98610427707E+01  0.26433026335E+01  0.30591134416E+02  0.51100000000E-03 0.  1.
         12    1    3    3    0    0  0.51052621262E+01  0.78393387096E+01 -0.32097467173E+01  0.98904705030E+01  0.00000000000E+00 0. -1.
</event>
<event>
 7    1  0.2339217E-009  0.4778726E+02  0.7816164E-02  0.1312668E+00
        -11   -1    0    0    0    0  0.00000000000E+00  0.00000000000E+00  0.45593999997E+02  0.45594000000E+02  0.51100000000E-03 0. -1.
         11   -1    0    0    0    0 -0.00000000000E+00 -0.00000000000E+00 -0.45593999997E+02  0.45594000000E+02  0.51100000000E-03 0.  1.
    9900012    2    1    2    0    0  0.22311137062E+01  0.41702598265E+02 -0.11812686084E+02  0.47787261262E+02  0.19999955399E+02 0.  0.
         12    1    1    2    0    0 -0.22311137062E+01 -0.41702598265E+02  0.11812686084E+02  0.43400738738E+02  0.00000000000E+00 0. -1.
         11    1    3    3    0    0  0.43141692834E+01  0.60388710615E+01 -0.15697829407E+01  0.75857919195E+01  0.51100000000E-03 0. -1.
        -11    1    3    3    0    0  0.45579076101E+01  0.27086930123E+02 -0.10351767501E+02  0.29353626623E+02  0.51100000000E-03 0.  1.
         12    1    3    3    0    0 -0.66409631873E+01  0.85767970808E+01  0.10886435807E+00  0.10847842720E+02  0.00000000000E+00 0. -1.
</event>
<event>
 7    1  0.2339217E-009  0.4778727E+02  0.7816164E-02  0.1312668E+00
        -11   -1    0    0    0    0  0.00000000000E+00  0.00000000000E+00  0.45593999997E+02  0.45594000000E+02  0.51100000000E-03 0.  1.
         11   -1    0    0    0    0 -0.00000000000E+00 -0.00000000000E+00 -0.45593999997E+02  0.45594000000E+02  0.51100000000E-03 0. -1.
    9900012    2    1    2    0    0 -0.10226886880E+02 -0.13540815231E+02  0.39945964660E+02  0.47787274373E+02  0.20000015175E+02 0.  0.
         12    1    1    2    0    0  0.10226886880E+02  0.13540815231E+02 -0.39945964660E+02  0.43400725627E+02  0.00000000000E+00 0. -1.
         11    1    3    3    0    0  0.33998160462E+00 -0.13507760140E+02  0.24144861145E+02  0.27668565042E+02  0.51100000000E-03 0. -1.
        -11    1    3    3    0    0 -0.18224886495E+00  0.17730780269E+01  0.34350838586E+01  0.38699898857E+01  0.51100000000E-03 0.  1.
         12    1    3    3    0    0 -0.10384619619E+02 -0.18061331177E+01  0.12366019656E+02  0.16248719445E+02  0.00000000000E+00 0. -1.
</event>
<event>
 7    1  0.2339217E-009  0.4778727E+02  0.7816164E-02  0.1312668E+00
        -11   -1    0    0    0    0  0.00000000000E+00  0.00000000000E+00  0.45593999997E+02  0.45594000000E+02  0.51100000000E-03 0.  1.
         11   -1    0    0    0    0 -0.00000000000E+00 -0.00000000000E+00 -0.45593999997E+02  0.45594000000E+02  0.51100000000E-03 0. -1.
    9900012    2    1    2    0    0 -0.88949627880E+01 -0.42126268272E+02  0.54662699581E+01  0.47787274790E+02  0.20000017076E+02 0.  0.
         12    1    1    2    0    0  0.88949627880E+01  0.42126268272E+02 -0.54662699581E+01  0.43400725210E+02  0.00000000000E+00 0. -1.
         11    1    3    3    0    0  0.51916273590E+01 -0.14051949597E+02 -0.25894176962E+01  0.15202478955E+02  0.51100000000E-03 0. -1.
        -11    1    3    3    0    0 -0.67083707316E+01 -0.11643200348E+02  0.48748920086E+01  0.14294436840E+02  0.51100000000E-03 0.  1.
        -12    1    3    3    0    0 -0.73782194153E+01 -0.16431118327E+02  0.31807956457E+01  0.18290358994E+02  0.00000000000E+00 0.  1.
</event>
<event>
 7    1  0.2339217E-009  0.4778727E+02  0.7816164E-02  0.1312668E+00
        -11   -1    0    0    0    0  0.00000000000E+00  0.00000000000E+00  0.45593999997E+02  0.45594000000E+02  0.51100000000E-03 0.  1.
         11   -1    0    0    0    0 -0.00000000000E+00 -0.00000000000E+00 -0.45593999997E+02  0.45594000000E+02  0.51100000000E-03 0. -1.
    9900012    2    1    2    0    0  0.28304129258E+02  0.12774134788E+02  0.30320301702E+02  0.47787274800E+02  0.20000017121E+02 0.  0.
         12    1    1    2    0    0 -0.28304129258E+02 -0.12774134788E+02 -0.30320301702E+02  0.43400725200E+02  0.00000000000E+00 0. -1.
         11    1    3    3    0    0  0.46492971672E+01 -0.17023010440E+01  0.10030645667E+02  0.11186046923E+02  0.51100000000E-03 0. -1.
        -11    1    3    3    0    0  0.11199616159E+01 -0.90170695933E+00 -0.11994345967E+01  0.18724404061E+01  0.51100000000E-03 0.  1.
        -12    1    3    3    0    0  0.22534870475E+02  0.15378142792E+02  0.21489090631E+02  0.34728787471E+02  0.00000000000E+00 0.  1.
</event>
<event>
 7    1  0.2339217E-009  0.4778727E+02  0.7816164E-02  0.1312668E+00
        -11   -1    0    0    0    0  0.00000000000E+00  0.00000000000E+00  0.45593999997E+02  0.45594000000E+02  0.51100000000E-03 0. -1.
         11   -1    0    0    0    0 -0.00000000000E+00 -0.00000000000E+00 -0.45593999997E+02  0.45594000000E+02  0.51100000000E-03 0.  1.
    9900012    2    1    2    0    0  0.14984339498E+02 -0.35504430970E+02 -0.19963177792E+02  0.47787268252E+02  0.19999987270E+02 0.  0.
         12    1    1    2    0    0 -0.14984339498E+02  0.35504430970E+02  0.19963177792E+02  0.43400731748E+02  0.00000000000E+00 0. -1.
         11    1    3    3    0    0  0.13312732355E+02 -0.11023167838E+02 -0.81870016328E+01  0.19125011580E+02  0.51100000000E-03 0. -1.
        -11    1    3    3    0    0  0.13248804407E+01 -0.64885305550E+00  0.83652341546E+00  0.16959039347E+01  0.51100000000E-03 0.  1.
        -12    1    3    3    0    0  0.34672670309E+00 -0.23832410076E+02 -0.12612699574E+02  0.26966352738E+02  0.00000000000E+00 0.  1.
</event>
<event>
 7    1  0.2339217E-009  0.4778726E+02  0.7816164E-02  0.1312668E+00
        -11   -1    0    0    0    0  0.00000000000E+00  0.00000000000E+00  0.45593999997E+02  0.45594000000E+02  0.51100000000E-03 0.  1.
         11   -1    0    0    0    0 -0.00000000000E+00 -0.00000000000E+00 -0.45593999997E+02  0.45594000000E+02  0.51100000000E-03 0. -1.
    9900012    2    1    2    0    0 -0.12723986181E+02  0.35933917942E+02  0.20747953665E+02  0.47787264243E+02  0.19999968991E+02 0.  0.
         12    1    1    2    0    0  0.12723986181E+02 -0.35933917942E+02 -0.20747953665E+02  0.43400735757E+02  0.00000000000E+00 0. -1.
         11    1    3    3    0    0 -0.57283058621E+01  0.17590157148E+01  0.38332201634E+01  0.71134521448E+01  0.51100000000E-03 0. -1.
        -11    1    3    3    0    0 -0.45390140491E+00  0.49828363915E+01  0.80388824018E+01  0.94688075026E+01  0.51100000000E-03 0.  1.
         12    1    3    3    0    0 -0.65417789136E+01  0.29192065835E+02  0.88758510993E+01  0.31205004596E+02  0.00000000000E+00 0. -1.
</event>
<event>
 7    1  0.2339217E-009  0.4778727E+02  0.7816164E-02  0.1312668E+00
        -11   -1    0    0    0    0  0.00000000000E+00  0.00000000000E+00  0.45593999997E+02  0.45594000000E+02  0.51100000000E-03 0.  1.
         11   -1    0    0    0    0 -0.00000000000E+00 -0.00000000000E+00 -0.45593999997E+02  0.45594000000E+02  0.51100000000E-03 0. -1.
    9900012    2    1    2    0    0  0.14960034686E+02  0.36997158636E+02  0.17059619013E+02  0.47787274364E+02  0.20000015133E+02 0.  0.
         12    1    1    2    0    0 -0.14960034686E+02 -0.36997158636E+02 -0.17059619013E+02  0.43400725636E+02  0.00000000000E+00 0. -1.
         11    1    3    3    0    0  0.83481217138E+01  0.11077262334E+02  0.37102993166E+01  0.14358384249E+02  0.51100000000E-03 0. -1.
        -11    1    3    3    0    0  0.10328250956E+02  0.12082328833E+02  0.97805970534E+01  0.18663212928E+02  0.51100000000E-03 0.  1.
        -12    1    3    3    0    0 -0.37163379839E+01  0.13837567469E+02  0.35687226430E+01  0.14765677186E+02  0.00000000000E+00 0.  1.
</event>
<event>
 7    1  0.2339217E-009  0.4778727E+02  0.7816164E-02  0.1312668E+00
        -11   -1    0    0    0    0  0.00000000000E+00  0.00000000000E+00  0.45593999997E+02  0.45594000000E+02  0.51100000000E-03 0.  1.
         11   -1    0    0    0    0 -0.00000000000E+00 -0.00000000000E+00 -0.45593999997E+02  0.45594000000E+02  0.51100000000E-03 0. -1.
    9900012    2    1    2    0    0 -0.35830330755E+02  0.19448892383E+02  0.14884595708E+02  0.47787271822E+02  0.20000003547E+02 0.  0.
         12    1    1    2    0    0  0.35830330755E+02 -0.19448892383E+02 -0.14884595708E+02  0.43400728178E+02  0.00000000000E+00 0. -1.
         11    1    3    3    0    0 -0.80620496904E+00 -0.18898306889E+01  0.29127553204E+01  0.35644873829E+01  0.51100000000E-03 0. -1.
        -11    1    3    3    0    0  0.60739858091E+00  0.50688097509E+00  0.14127888082E+01  0.16192077806E+01  0.51100000000E-03 0.  1.
        -12    1    3    3    0    0 -0.35631524367E+02  0.20831842097E+02  0.10559051579E+02  0.42603576659E+02  0.00000000000E+00 0.  1.
</event>
<event>
 7    1  0.2339217E-009  0.4778728E+02  0.7816164E-02  0.1312668E+00
        -11   -1    0    0    0    0  0.00000000000E+00  0.00000000000E+00  0.45593999997E+02  0.45594000000E+02  0.51100000000E-03 0. -1.
         11   -1    0    0    0    0 -0.00000000000E+00 -0.00000000000E+00 -0.45593999997E+02  0.45594000000E+02  0.51100000000E-03 0.  1.
    9900012    2    1    2    0    0  0.10630848315E+02 -0.13614226917E+02 -0.39815327752E+02  0.47787280715E+02  0.20000044093E+02 0.  0.
         12    1    1    2    0    0 -0.10630848315E+02  0.13614226917E+02  0.39815327752E+02  0.43400719285E+02  0.00000000000E+00 0. -1.
         11    1    3    3    0    0  0.10553308990E+02  0.20910850226E-01 -0.20498377241E+02  0.23055503414E+02  0.51100000000E-03 0. -1.
        -11    1    3    3    0    0  0.23418948969E+01 -0.90038091365E+00 -0.30687724507E+01  0.39639023844E+01  0.51100000000E-03 0.  1.
         12    1    3    3    0    0 -0.22643555722E+01 -0.12734756853E+02 -0.16248178061E+02  0.20767874917E+02  0.00000000000E+00 0. -1.
</event>
<event>
 7    1  0.2339217E-009  0.4778728E+02  0.7816164E-02  0.1312668E+00
        -11   -1    0    0    0    0  0.00000000000E+00  0.00000000000E+00  0.45593999997E+02  0.45594000000E+02  0.51100000000E-03 0.  1.
         11   -1    0    0    0    0 -0.00000000000E+00 -0.00000000000E+00 -0.45593999997E+02  0.45594000000E+02  0.51100000000E-03 0. -1.
    9900012    2    1    2    0    0 -0.28838643108E+01 -0.41098123186E+02  0.13647361627E+02  0.47787275557E+02  0.20000020577E+02 0.  0.
         12    1    1    2    0    0  0.28838643108E+01  0.41098123186E+02 -0.13647361627E+02  0.43400724443E+02  0.00000000000E+00 0. -1.
         11    1    3    3    0    0 -0.12399791704E+01  0.51683840017E+00 -0.95143025753E+00  0.16461743744E+01  0.51100000000E-03 0. -1.
        -11    1    3    3    0    0  0.22161241962E+01 -0.19832334891E+02  0.60565063373E+00  0.19964957466E+02  0.51100000000E-03 0.  1.
         12    1    3    3    0    0 -0.38600093366E+01 -0.21782626695E+02  0.13993141251E+02  0.26176143717E+02  0.00000000000E+00 0. -1.
</event>
<event>
 7    1  0.2339217E-009  0.4778728E+02  0.7816164E-02  0.1312668E+00
        -11   -1    0    0    0    0  0.00000000000E+00  0.00000000000E+00  0.45593999997E+02  0.45594000000E+02  0.51100000000E-03 0.  1.
         11   -1    0    0    0    0 -0.00000000000E+00 -0.00000000000E+00 -0.45593999997E+02  0.45594000000E+02  0.51100000000E-03 0. -1.
    9900012    2    1    2    0    0 -0.31524073339E+02  0.28009594764E+02  0.10262434768E+02  0.47787283807E+02  0.20000058189E+02 0.  0.
         12    1    1    2    0    0  0.31524073339E+02 -0.28009594764E+02 -0.10262434768E+02  0.43400716193E+02  0.00000000000E+00 0. -1.
         11    1    3    3    0    0 -0.30159579639E+01  0.92225136546E+01  0.91110527362E+01  0.13310223243E+02  0.51100000000E-03 0. -1.
        -11    1    3    3    0    0 -0.33994258915E+01  0.42575548641E+01  0.21091130389E+00  0.54522796748E+01  0.51100000000E-03 0.  1.
         12    1    3    3    0    0 -0.25108689484E+02  0.14529526245E+02  0.94047072839E+00  0.29024780889E+02  0.00000000000E+00 0. -1.
</event>
<event>
 7    1  0.2339217E-009  0.4778727E+02  0.7816164E-02  0.1312668E+00
        -11   -1    0    0    0    0  0.00000000000E+00  0.00000000000E+00  0.45593999997E+02  0.45594000000E+02  0.51100000000E-03 0.  1.
         11   -1    0    0    0    0 -0.00000000000E+00 -0.00000000000E+00 -0.45593999997E+02  0.45594000000E+02  0.51100000000E-03 0. -1.
    9900012    2    1    2    0    0  0.25278299800E+02  0.32598349270E+02  0.13489932357E+02  0.47787273153E+02  0.20000009613E+02 0.  0.
         12    1    1    2    0    0 -0.25278299800E+02 -0.32598349270E+02 -0.13489932357E+02  0.43400726847E+02  0.00000000000E+00 0. -1.
         11    1    3    3    0    0  0.11629840936E+02  0.11682418170E+02  0.79079793455E+01  0.18283003913E+02  0.51100000000E-03 0. -1.
        -11    1    3    3    0    0  0.14278057863E+02  0.13347245584E+02 -0.83288654253E+00  0.19562862808E+02  0.51100000000E-03 0.  1.
        -12    1    3    3    0    0 -0.62959899840E+00  0.75686855165E+01  0.64148395538E+01  0.99414064321E+01  0.00000000000E+00 0.  1.
</event>
<event>
 7    1  0.2999760E-009  0.4778726E+02  0.7816164E-02  0.1312668E+00
        -11   -1    0    0    0    0  0.00000000000E+00  0.00000000000E+00  0.45593999997E+02  0.45594000000E+02  0.51100000000E-03 0. -1.
         11   -1    0    0    0    0 -0.00000000000E+00 -0.00000000000E+00 -0.45593999997E+02  0.45594000000E+02  0.51100000000E-03 0.  1.
    9900012    2    1    2    0    0  0.11854850325E+02  0.57671330273E+00 -0.41746312017E+02  0.47787255289E+02  0.19999928164E+02 0.  0.
         12    1    1    2    0    0 -0.11854850325E+02 -0.57671330273E+00  0.41746312017E+02  0.43400744711E+02  0.00000000000E+00 0. -1.
         11    1    3    3    0    0 -0.13760794128E+01  0.54941504027E+01 -0.95513061954E+01  0.11104356510E+02  0.51100000000E-03 0. -1.
        -11    1    3    3    0    0  0.69936763522E+01  0.88941636135E+00 -0.23389604769E+02  0.24429002883E+02  0.51100000000E-03 0.  1.
        -12    1    3    3    0    0  0.62372533854E+01 -0.58068534613E+01 -0.88054010529E+01  0.12253895896E+02  0.00000000000E+00 0.  1.
</event>
<event>
 7    1  0.2339217E-009  0.4778727E+02  0.7816164E-02  0.1312668E+00
        -11   -1    0    0    0    0  0.00000000000E+00  0.00000000000E+00  0.45593999997E+02  0.45594000000E+02  0.51100000000E-03 0.  1.
         11   -1    0    0    0    0 -0.00000000000E+00 -0.00000000000E+00 -0.45593999997E+02  0.45594000000E+02  0.51100000000E-03 0. -1.
    9900012    2    1    2    0    0  0.35672170520E+02 -0.16667175355E+02  0.18257182270E+02  0.47787272029E+02  0.20000004490E+02 0.  0.
         12    1    1    2    0    0 -0.35672170520E+02  0.16667175355E+02 -0.18257182270E+02  0.43400727971E+02  0.00000000000E+00 0. -1.
         11    1    3    3    0    0  0.98280101734E+01 -0.63362874993E+01  0.94043106265E+01  0.15005978204E+02  0.51100000000E-03 0. -1.
        -11    1    3    3    0    0  0.19469705462E+02 -0.34505983456E+00  0.74596455883E+01  0.20852693103E+02  0.51100000000E-03 0.  1.
         12    1    3    3    0    0  0.63744548847E+01 -0.99858280214E+01  0.13932260550E+01  0.11928600722E+02  0.00000000000E+00 0. -1.
</event>
<event>
 7    1  0.2339217E-009  0.4778727E+02  0.7816164E-02  0.1312668E+00
        -11   -1    0    0    0    0  0.00000000000E+00  0.00000000000E+00  0.45593999997E+02  0.45594000000E+02  0.51100000000E-03 0.  1.
         11   -1    0    0    0    0 -0.00000000000E+00 -0.00000000000E+00 -0.45593999997E+02  0.45594000000E+02  0.51100000000E-03 0. -1.
    9900012    2    1    2    0    0 -0.40247133833E+02 -0.45877446989E+01 -0.15580258391E+02  0.47787266887E+02  0.19999981046E+02 0.  0.
         12    1    1    2    0    0  0.40247133833E+02  0.45877446989E+01  0.15580258391E+02  0.43400733113E+02  0.00000000000E+00 0. -1.
         11    1    3    3    0    0 -0.55527791831E+01  0.34277324109E+01 -0.45660124651E+01  0.79643691671E+01  0.51100000000E-03 0. -1.
        -11    1    3    3    0    0 -0.30624676317E+01 -0.57438799809E+01 -0.26253339819E+01  0.70187779569E+01  0.51100000000E-03 0.  1.
        -12    1    3    3    0    0 -0.31631887018E+02 -0.22715971289E+01 -0.83889119442E+01  0.32804119763E+02  0.00000000000E+00 0.  1.
</event>
<event>
 7    1  0.2339217E-009  0.4778729E+02  0.7816164E-02  0.1312668E+00
        -11   -1    0    0    0    0  0.00000000000E+00  0.00000000000E+00  0.45593999997E+02  0.45594000000E+02  0.51100000000E-03 0.  1.
         11   -1    0    0    0    0 -0.00000000000E+00 -0.00000000000E+00 -0.45593999997E+02  0.45594000000E+02  0.51100000000E-03 0. -1.
    9900012    2    1    2    0    0 -0.17182033230E+02 -0.36091432355E+02  0.16905853711E+02  0.47787289809E+02  0.20000085555E+02 0.  0.
         12    1    1    2    0    0  0.17182033230E+02  0.36091432355E+02 -0.16905853711E+02  0.43400710191E+02  0.00000000000E+00 0. -1.
         11    1    3    3    0    0  0.39923786738E+00 -0.77836700841E+01  0.63516465292E+01  0.10054268981E+02  0.51100000000E-03 0. -1.
        -11    1    3    3    0    0 -0.79760396235E+01 -0.24712197820E+02  0.73363507653E+01  0.26983920619E+02  0.51100000000E-03 0.  1.
        -12    1    3    3    0    0 -0.96052314734E+01 -0.35955644517E+01  0.32178564167E+01  0.10749100209E+02  0.00000000000E+00 0.  1.
</event>
<event>
 7    1  0.2339217E-009  0.4778728E+02  0.7816164E-02  0.1312668E+00
        -11   -1    0    0    0    0  0.00000000000E+00  0.00000000000E+00  0.45593999997E+02  0.45594000000E+02  0.51100000000E-03 0. -1.
         11   -1    0    0    0    0 -0.00000000000E+00 -0.00000000000E+00 -0.45593999997E+02  0.45594000000E+02  0.51100000000E-03 0.  1.
    9900012    2    1    2    0    0 -0.12773099462E+02  0.37530617955E+02 -0.17661343058E+02  0.47787281198E+02  0.20000046294E+02 0.  0.
         12    1    1    2    0    0  0.12773099462E+02 -0.37530617955E+02  0.17661343058E+02  0.43400718802E+02  0.00000000000E+00 0. -1.
         11    1    3    3    0    0 -0.61822639034E+01  0.30566212621E+02 -0.73128535759E+01  0.32031103144E+02  0.51100000000E-03 0. -1.
        -11    1    3    3    0    0 -0.18922801327E+01 -0.10647556226E+01 -0.53949433356E+00  0.22372936851E+01  0.51100000000E-03 0.  1.
        -12    1    3    3    0    0 -0.46985554257E+01  0.80291609564E+01 -0.98089951486E+01  0.13518884369E+02  0.00000000000E+00 0.  1.
</event>
<event>
 7    1  0.2339217E-009  0.4778727E+02  0.7816164E-02  0.1312668E+00
        -11   -1    0    0    0    0  0.00000000000E+00  0.00000000000E+00  0.45593999997E+02  0.45594000000E+02  0.51100000000E-03 0.  1.
         11   -1    0    0    0    0 -0.00000000000E+00 -0.00000000000E+00 -0.45593999997E+02  0.45594000000E+02  0.51100000000E-03 0. -1.
    9900012    2    1    2    0    0  0.66644641842E+01 -0.42769513496E+02  0.31586231223E+01  0.47787271117E+02  0.20000000333E+02 0.  0.
         12    1    1    2    0    0 -0.66644641842E+01  0.42769513496E+02 -0.31586231223E+01  0.43400728883E+02  0.00000000000E+00 0. -1.
         11    1    3    3    0    0  0.85149899779E+01 -0.12668129105E+02  0.12702942102E+01  0.15316664029E+02  0.51100000000E-03 0. -1.
        -11    1    3    3    0    0 -0.55654240331E+00 -0.95668387252E+01  0.62461486346E+01  0.11438903604E+02  0.51100000000E-03 0.  1.
        -12    1    3    3    0    0 -0.12939833904E+01 -0.20534545665E+02 -0.43578197225E+01  0.21031703484E+02  0.00000000000E+00 0.  1.
</event>
<event>
 7    1  0.2339217E-009  0.4778728E+02  0.7816164E-02  0.1312668E+00
        -11   -1    0    0    0    0  0.00000000000E+00  0.00000000000E+00  0.45593999997E+02  0.45594000000E+02  0.51100000000E-03 0.  1.
         11   -1    0    0    0    0 -0.00000000000E+00 -0.00000000000E+00 -0.45593999997E+02  0.45594000000E+02  0.51100000000E-03 0. -1.
    9900012    2    1    2    0    0 -0.34225639820E+02  0.13659776937E+02  0.22926816927E+02  0.47787275796E+02  0.20000021663E+02 0.  0.
         12    1    1    2    0    0  0.34225639820E+02 -0.13659776937E+02 -0.22926816927E+02  0.43400724204E+02  0.00000000000E+00 0. -1.
         11    1    3    3    0    0 -0.50440742561E+01 -0.90860636925E+00  0.19402199729E-01  0.51252929030E+01  0.51100000000E-03 0. -1.
        -11    1    3    3    0    0 -0.26377663243E+02  0.68971438976E+01  0.14265129173E+02  0.30770856710E+02  0.51100000000E-03 0.  1.
         12    1    3    3    0    0 -0.28039023212E+01  0.76712394086E+01  0.86422855544E+01  0.11891126183E+02  0.00000000000E+00 0. -1.
</event>
<event>
 7    1  0.2339217E-009  0.4778727E+02  0.7816164E-02  0.1312668E+00
        -11   -1    0    0    0    0  0.00000000000E+00  0.00000000000E+00  0.45593999997E+02  0.45594000000E+02  0.51100000000E-03 0.  1.
         11   -1    0    0    0    0 -0.00000000000E+00 -0.00000000000E+00 -0.45593999997E+02  0.45594000000E+02  0.51100000000E-03 0. -1.
    9900012    2    1    2    0    0 -0.77964754740E+01 -0.28699998171E+02  0.31609308824E+02  0.47787270408E+02  0.19999997097E+02 0.  0.
         12    1    1    2    0    0  0.77964754740E+01  0.28699998171E+02 -0.31609308824E+02  0.43400729592E+02  0.00000000000E+00 0. -1.
         11    1    3    3    0    0 -0.55025301875E+00 -0.24680582089E+01  0.62777430182E+01  0.67678761344E+01  0.51100000000E-03 0. -1.
        -11    1    3    3    0    0 -0.44977672468E+01 -0.28223582334E+02  0.20752355152E+02  0.35319410451E+02  0.51100000000E-03 0.  1.
         12    1    3    3    0    0 -0.27484552084E+01  0.19916423720E+01  0.45792106533E+01  0.56999838226E+01  0.00000000000E+00 0. -1.
</event>
<event>
 7    1  0.2339217E-009  0.4778727E+02  0.7816164E-02  0.1312668E+00
        -11   -1    0    0    0    0  0.00000000000E+00  0.00000000000E+00  0.45593999997E+02  0.45594000000E+02  0.51100000000E-03 0. -1.
         11   -1    0    0    0    0 -0.00000000000E+00 -0.00000000000E+00 -0.45593999997E+02  0.45594000000E+02  0.51100000000E-03 0.  1.
    9900012    2    1    2    0    0 -0.95572302592E+01  0.41841852880E+02  0.64452965569E+01  0.47787272467E+02  0.20000006487E+02 0.  0.
         12    1    1    2    0    0  0.95572302592E+01 -0.41841852880E+02 -0.64452965569E+01  0.43400727533E+02  0.00000000000E+00 0. -1.
         11    1    3    3    0    0 -0.11979168061E+02  0.13901825096E+02 -0.11493701883E+01  0.18387013366E+02  0.51100000000E-03 0. -1.
        -11    1    3    3    0    0 -0.57358173963E+00  0.11211000074E+02  0.14056913233E+01  0.11313332269E+02  0.51100000000E-03 0.  1.
         12    1    3    3    0    0  0.29955195419E+01  0.16729027710E+02  0.61889754220E+01  0.18086926832E+02  0.00000000000E+00 0. -1.
</event>
<event>
 7    1  0.2339217E-009  0.4778728E+02  0.7816164E-02  0.1312668E+00
        -11   -1    0    0    0    0  0.00000000000E+00  0.00000000000E+00  0.45593999997E+02  0.45594000000E+02  0.51100000000E-03 0. -1.
         11   -1    0    0    0    0 -0.00000000000E+00 -0.00000000000E+00 -0.45593999997E+02  0.45594000000E+02  0.51100000000E-03 0.  1.
    9900012    2    1    2    0    0 -0.24706777591E+02 -0.57755996758E+01 -0.35211365789E+02  0.47787277757E+02  0.20000030603E+02 0.  0.
         12    1    1    2    0    0  0.24706777591E+02  0.57755996758E+01  0.35211365789E+02  0.43400722243E+02  0.00000000000E+00 0. -1.
         11    1    3    3    0    0 -0.16191870048E+02  0.24843281054E+01 -0.17161981421E+02  0.23725137478E+02  0.51100000000E-03 0. -1.
        -11    1    3    3    0    0 -0.70995362084E+01 -0.62281646072E+01 -0.48201641615E+01  0.10603180257E+02  0.51100000000E-03 0.  1.
         12    1    3    3    0    0 -0.14153713344E+01 -0.20317631739E+01 -0.13229220206E+02  0.13458960022E+02  0.00000000000E+00 0. -1.
</event>
<event>
 7    1  0.2339217E-009  0.4778725E+02  0.7816164E-02  0.1312668E+00
        -11   -1    0    0    0    0  0.00000000000E+00  0.00000000000E+00  0.45593999997E+02  0.45594000000E+02  0.51100000000E-03 0.  1.
         11   -1    0    0    0    0 -0.00000000000E+00 -0.00000000000E+00 -0.45593999997E+02  0.45594000000E+02  0.51100000000E-03 0. -1.
    9900012    2    1    2    0    0  0.14025928576E+02  0.24833219109E+01  0.40996727439E+02  0.47787248615E+02  0.19999897733E+02 0.  0.
         12    1    1    2    0    0 -0.14025928576E+02 -0.24833219109E+01 -0.40996727439E+02  0.43400751385E+02  0.00000000000E+00 0. -1.
         11    1    3    3    0    0  0.12652282361E+01 -0.35751076224E+01  0.12428789533E+02  0.12994499087E+02  0.51100000000E-03 0.  1.
        -11    1    3    3    0    0 -0.52881081569E+00 -0.32822632202E+01  0.73831949097E+01  0.80971884047E+01  0.51100000000E-03 0. -1.
        -12    1    3    3    0    0  0.13289511155E+02  0.93406927535E+01  0.21184742996E+02  0.26695561123E+02  0.00000000000E+00 0.  1.
</event>
<event>
 7    1  0.2339217E-009  0.4778727E+02  0.7816164E-02  0.1312668E+00
        -11   -1    0    0    0    0  0.00000000000E+00  0.00000000000E+00  0.45593999997E+02  0.45594000000E+02  0.51100000000E-03 0.  1.
         11   -1    0    0    0    0 -0.00000000000E+00 -0.00000000000E+00 -0.45593999997E+02  0.45594000000E+02  0.51100000000E-03 0. -1.
    9900012    2    1    2    0    0  0.19012242593E+02 -0.64093583953E+01  0.38484776257E+02  0.47787271354E+02  0.20000001412E+02 0.  0.
         12    1    1    2    0    0 -0.19012242593E+02  0.64093583953E+01 -0.38484776257E+02  0.43400728646E+02  0.00000000000E+00 0. -1.
         11    1    3    3    0    0 -0.18370698427E+01 -0.10334244366E+01  0.41058888342E+01  0.46153131045E+01  0.51100000000E-03 0. -1.
        -11    1    3    3    0    0  0.22443681294E+02 -0.72839111262E+01  0.31686655362E+02  0.39507193265E+02  0.51100000000E-03 0.  1.
        -12    1    3    3    0    0 -0.15943688584E+01  0.19079771675E+01  0.26922320603E+01  0.36647649850E+01  0.00000000000E+00 0.  1.
</event>
<event>
 7    1  0.2339217E-009  0.4778727E+02  0.7816164E-02  0.1312668E+00
        -11   -1    0    0    0    0  0.00000000000E+00  0.00000000000E+00  0.45593999997E+02  0.45594000000E+02  0.51100000000E-03 0.  1.
         11   -1    0    0    0    0 -0.00000000000E+00 -0.00000000000E+00 -0.45593999997E+02  0.45594000000E+02  0.51100000000E-03 0. -1.
    9900012    2    1    2    0    0  0.30279610573E+02  0.27093559395E+02  0.15254765267E+02  0.47787266821E+02  0.19999980742E+02 0.  0.
         12    1    1    2    0    0 -0.30279610573E+02 -0.27093559395E+02 -0.15254765267E+02  0.43400733179E+02  0.00000000000E+00 0. -1.
         11    1    3    3    0    0  0.42732467773E+01  0.55299315530E+01  0.46376430209E+01  0.83874021038E+01  0.51100000000E-03 0. -1.
        -11    1    3    3    0    0  0.15081472793E+02  0.12276337448E+02 -0.29391320157E+01  0.19667175192E+02  0.51100000000E-03 0.  1.
        -12    1    3    3    0    0  0.10924891002E+02  0.92872903940E+01  0.13556254262E+02  0.19732689525E+02  0.00000000000E+00 0.  1.
</event>
<event>
 7    1  0.2339217E-009  0.4778727E+02  0.7816164E-02  0.1312668E+00
        -11   -1    0    0    0    0  0.00000000000E+00  0.00000000000E+00  0.45593999997E+02  0.45594000000E+02  0.51100000000E-03 0.  1.
         11   -1    0    0    0    0 -0.00000000000E+00 -0.00000000000E+00 -0.45593999997E+02  0.45594000000E+02  0.51100000000E-03 0. -1.
    9900012    2    1    2    0    0 -0.31629826620E+02  0.16537109719E+02 -0.24692136197E+02  0.47787268210E+02  0.19999987079E+02 0.  0.
         12    1    1    2    0    0  0.31629826620E+02 -0.16537109719E+02  0.24692136197E+02  0.43400731790E+02  0.00000000000E+00 0. -1.
         11    1    3    3    0    0 -0.16648133698E+02  0.92761982451E+01 -0.13955657301E+02  0.23621358566E+02  0.51100000000E-03 0. -1.
        -11    1    3    3    0    0 -0.17167594787E+02  0.48925785038E+01 -0.10939715463E+02  0.20936594992E+02  0.51100000000E-03 0.  1.
         12    1    3    3    0    0  0.21859018655E+01  0.23683329702E+01  0.20323656687E+00  0.32293146526E+01  0.00000000000E+00 0. -1.
</event>
<event>
 7    1  0.2339217E-009  0.4778727E+02  0.7816164E-02  0.1312668E+00
        -11   -1    0    0    0    0  0.00000000000E+00  0.00000000000E+00  0.45593999997E+02  0.45594000000E+02  0.51100000000E-03 0. -1.
         11   -1    0    0    0    0 -0.00000000000E+00 -0.00000000000E+00 -0.45593999997E+02  0.45594000000E+02  0.51100000000E-03 0.  1.
    9900012    2    1    2    0    0  0.21995994734E+02 -0.44658467795E+01 -0.37146407778E+02  0.47787272096E+02  0.20000004794E+02 0.  0.
         12    1    1    2    0    0 -0.21995994734E+02  0.44658467795E+01  0.37146407778E+02  0.43400727904E+02  0.00000000000E+00 0. -1.
         11    1    3    3    0    0  0.83060295724E+01  0.16075469849E+01 -0.14167307016E+02  0.16501118838E+02  0.51100000000E-03 0. -1.
        -11    1    3    3    0    0  0.16557508720E+02 -0.47606643618E+01 -0.22081282634E+02  0.28007107369E+02  0.51100000000E-03 0.  1.
         12    1    3    3    0    0 -0.28675435592E+01 -0.13127294026E+01 -0.89781812901E+00  0.32790458888E+01  0.00000000000E+00 0. -1.
</event>
<event>
 7    1  0.2339217E-009  0.4778726E+02  0.7816164E-02  0.1312668E+00
        -11   -1    0    0    0    0  0.00000000000E+00  0.00000000000E+00  0.45593999997E+02  0.45594000000E+02  0.51100000000E-03 0.  1.
         11   -1    0    0    0    0 -0.00000000000E+00 -0.00000000000E+00 -0.45593999997E+02  0.45594000000E+02  0.51100000000E-03 0. -1.
    9900012    2    1    2    0    0  0.31016779442E+02 -0.29841807083E+02  0.55722404701E+01  0.47787263592E+02  0.19999966020E+02 0.  0.
         12    1    1    2    0    0 -0.31016779442E+02  0.29841807083E+02 -0.55722404701E+01  0.43400736408E+02  0.00000000000E+00 0. -1.
         11    1    3    3    0    0  0.25207656677E+00 -0.37584870679E+01 -0.10626146434E+01  0.39139389081E+01  0.51100000000E-03 0. -1.
        -11    1    3    3    0    0  0.14143720348E+02 -0.21477783812E+02  0.68923766307E+01  0.26624140900E+02  0.51100000000E-03 0.  1.
         12    1    3    3    0    0  0.16620982527E+02 -0.46055362033E+01 -0.25752151722E+00  0.17249183784E+02  0.00000000000E+00 0. -1.
</event>
<event>
 7    1  0.2339217E-009  0.4778727E+02  0.7816164E-02  0.1312668E+00
        -11   -1    0    0    0    0  0.00000000000E+00  0.00000000000E+00  0.45593999997E+02  0.45594000000E+02  0.51100000000E-03 0.  1.
         11   -1    0    0    0    0 -0.00000000000E+00 -0.00000000000E+00 -0.45593999997E+02  0.45594000000E+02  0.51100000000E-03 0. -1.
    9900012    2    1    2    0    0 -0.34551156582E+02 -0.12883557003E+02  0.22887872973E+02  0.47787271994E+02  0.20000004329E+02 0.  0.
         12    1    1    2    0    0  0.34551156582E+02  0.12883557003E+02 -0.22887872973E+02  0.43400728006E+02  0.00000000000E+00 0. -1.
         11    1    3    3    0    0  0.17509685351E+01 -0.32452464559E+01  0.32670093515E+01  0.49265470397E+01  0.51100000000E-03 0. -1.
        -11    1    3    3    0    0 -0.11121318768E+02 -0.57608177771E+01  0.50000002803E+01  0.13485946599E+02  0.51100000000E-03 0.  1.
         12    1    3    3    0    0 -0.25180806349E+02 -0.38774927704E+01  0.14620863341E+02  0.29374778355E+02  0.00000000000E+00 0. -1.
</event>
<event>
 7    1  0.2339217E-009  0.4778726E+02  0.7816164E-02  0.1312668E+00
        -11   -1    0    0    0    0  0.00000000000E+00  0.00000000000E+00  0.45593999997E+02  0.45594000000E+02  0.51100000000E-03 0.  1.
         11   -1    0    0    0    0 -0.00000000000E+00 -0.00000000000E+00 -0.45593999997E+02  0.45594000000E+02  0.51100000000E-03 0. -1.
    9900012    2    1    2    0    0  0.25742074859E+02  0.25136809511E+02  0.24271595031E+02  0.47787263419E+02  0.19999965231E+02 0.  0.
         12    1    1    2    0    0 -0.25742074859E+02 -0.25136809511E+02 -0.24271595031E+02  0.43400736581E+02  0.00000000000E+00 0. -1.
         11    1    3    3    0    0  0.19181401680E+01  0.67009165700E+01 -0.28815622988E+00  0.69760002047E+01  0.51100000000E-03 0. -1.
        -11    1    3    3    0    0  0.44025879940E+01  0.68638861775E+00 -0.49078599822E+00  0.44827203278E+01  0.51100000000E-03 0.  1.
        -12    1    3    3    0    0  0.19421346697E+02  0.17749504324E+02  0.25050537259E+02  0.36328542886E+02  0.00000000000E+00 0.  1.
</event>
<event>
 7    1  0.2339217E-009  0.4778727E+02  0.7816164E-02  0.1312668E+00
        -11   -1    0    0    0    0  0.00000000000E+00  0.00000000000E+00  0.45593999997E+02  0.45594000000E+02  0.51100000000E-03 0.  1.
         11   -1    0    0    0    0 -0.00000000000E+00 -0.00000000000E+00 -0.45593999997E+02  0.45594000000E+02  0.51100000000E-03 0. -1.
    9900012    2    1    2    0    0 -0.14193554541E+02 -0.38198931686E+02  0.14933446988E+02  0.47787271764E+02  0.20000003281E+02 0.  0.
         12    1    1    2    0    0  0.14193554541E+02  0.38198931686E+02 -0.14933446988E+02  0.43400728236E+02  0.00000000000E+00 0. -1.
         11    1    3    3    0    0 -0.21032446854E+01 -0.44040013291E+01  0.47867936299E+01  0.68360997235E+01  0.51100000000E-03 0. -1.
        -11    1    3    3    0    0 -0.41644643084E+01 -0.23709782117E+02  0.13624877253E+02  0.27661052247E+02  0.51100000000E-03 0.  1.
         12    1    3    3    0    0 -0.79258455468E+01 -0.10085148240E+02 -0.34782238949E+01  0.13290119793E+02  0.00000000000E+00 0. -1.
</event>
<event>
 7    1  0.2339217E-009  0.4778727E+02  0.7816164E-02  0.1312668E+00
        -11   -1    0    0    0    0  0.00000000000E+00  0.00000000000E+00  0.45593999997E+02  0.45594000000E+02  0.51100000000E-03 0.  1.
         11   -1    0    0    0    0 -0.00000000000E+00 -0.00000000000E+00 -0.45593999997E+02  0.45594000000E+02  0.51100000000E-03 0. -1.
    9900012    2    1    2    0    0 -0.53189758729E+01 -0.13106956630E+02  0.41030956707E+02  0.47787271611E+02  0.20000002584E+02 0.  0.
         12    1    1    2    0    0  0.53189758729E+01  0.13106956630E+02 -0.41030956707E+02  0.43400728389E+02  0.00000000000E+00 0. -1.
         11    1    3    3    0    0 -0.40346380185E+00 -0.11374834521E+02  0.11574066558E+02  0.16232949836E+02  0.51100000000E-03 0. -1.
        -11    1    3    3    0    0 -0.30460754306E+01 -0.50120120289E+01  0.89344344245E+01  0.10687514157E+02  0.51100000000E-03 0.  1.
         12    1    3    3    0    0 -0.18694366404E+01  0.32798899200E+01  0.20522455724E+02  0.20866807619E+02  0.00000000000E+00 0. -1.
</event>
<event>
 7    1  0.2339217E-009  0.4778727E+02  0.7816164E-02  0.1312668E+00
        -11   -1    0    0    0    0  0.00000000000E+00  0.00000000000E+00  0.45593999997E+02  0.45594000000E+02  0.51100000000E-03 0.  1.
         11   -1    0    0    0    0 -0.00000000000E+00 -0.00000000000E+00 -0.45593999997E+02  0.45594000000E+02  0.51100000000E-03 0. -1.
    9900012    2    1    2    0    0  0.76931298929E+01 -0.20441515133E+02  0.37504447684E+02  0.47787269769E+02  0.19999994184E+02 0.  0.
         12    1    1    2    0    0 -0.76931298929E+01  0.20441515133E+02 -0.37504447684E+02  0.43400730231E+02  0.00000000000E+00 0. -1.
         11    1    3    3    0    0 -0.23814596361E+01 -0.53303149130E+01  0.10866688986E+02  0.12335661184E+02  0.51100000000E-03 0. -1.
        -11    1    3    3    0    0  0.44110413613E+01 -0.77751521685E+01  0.24301953419E+02  0.25893922402E+02  0.51100000000E-03 0.  1.
        -12    1    3    3    0    0  0.56635481677E+01 -0.73360480516E+01  0.23358052796E+01  0.95576861828E+01  0.00000000000E+00 0.  1.
</event>
<event>
 7    1  0.2339217E-009  0.4778727E+02  0.7816164E-02  0.1312668E+00
        -11   -1    0    0    0    0  0.00000000000E+00  0.00000000000E+00  0.45593999997E+02  0.45594000000E+02  0.51100000000E-03 0.  1.
         11   -1    0    0    0    0 -0.00000000000E+00 -0.00000000000E+00 -0.45593999997E+02  0.45594000000E+02  0.51100000000E-03 0. -1.
    9900012    2    1    2    0    0  0.70671909924E+01  0.28931348293E+02  0.31569846814E+02  0.47787270393E+02  0.19999997030E+02 0.  0.
         12    1    1    2    0    0 -0.70671909924E+01 -0.28931348293E+02 -0.31569846814E+02  0.43400729607E+02  0.00000000000E+00 0. -1.
         11    1    3    3    0    0 -0.55346980737E+01  0.97850939842E+01  0.61084402824E+01  0.12794295213E+02  0.51100000000E-03 0. -1.
        -11    1    3    3    0    0  0.83492724838E+00  0.68972818741E+01  0.61948537214E+01  0.93083733086E+01  0.51100000000E-03 0.  1.
         12    1    3    3    0    0  0.11766961818E+02  0.12248972435E+02  0.19266552810E+02  0.25684601872E+02  0.00000000000E+00 0. -1.
</event>
<event>
 7    1  0.2339217E-009  0.4778727E+02  0.7816164E-02  0.1312668E+00
        -11   -1    0    0    0    0  0.00000000000E+00  0.00000000000E+00  0.45593999997E+02  0.45594000000E+02  0.51100000000E-03 0.  1.
         11   -1    0    0    0    0 -0.00000000000E+00 -0.00000000000E+00 -0.45593999997E+02  0.45594000000E+02  0.51100000000E-03 0. -1.
    9900012    2    1    2    0    0  0.13609040590E+02  0.27397732030E+02  0.30786064686E+02  0.47787268612E+02  0.19999988908E+02 0.  0.
         12    1    1    2    0    0 -0.13609040590E+02 -0.27397732030E+02 -0.30786064686E+02  0.43400731388E+02  0.00000000000E+00 0. -1.
         11    1    3    3    0    0  0.44744912172E+01  0.68788219177E+01  0.20177157614E+01  0.84504697966E+01  0.51100000000E-03 0. -1.
        -11    1    3    3    0    0  0.67769275105E+01  0.16852975042E+02  0.11435642722E+02  0.21464469222E+02  0.51100000000E-03 0.  1.
        -12    1    3    3    0    0  0.23576218620E+01  0.36659350705E+01  0.17332706203E+02  0.17872329593E+02  0.00000000000E+00 0.  1.
</event>
<event>
 7    1  0.2339217E-009  0.4778727E+02  0.7816164E-02  0.1312668E+00
        -11   -1    0    0    0    0  0.00000000000E+00  0.00000000000E+00  0.45593999997E+02  0.45594000000E+02  0.51100000000E-03 0.  1.
         11   -1    0    0    0    0 -0.00000000000E+00 -0.00000000000E+00 -0.45593999997E+02  0.45594000000E+02  0.51100000000E-03 0. -1.
    9900012    2    1    2    0    0 -0.23170280381E+02  0.69967882783E+01  0.36025077174E+02  0.47787272765E+02  0.20000007844E+02 0.  0.
         12    1    1    2    0    0  0.23170280381E+02 -0.69967882783E+01 -0.36025077174E+02  0.43400727235E+02  0.00000000000E+00 0. -1.
         11    1    3    3    0    0 -0.15874495882E+02  0.29348713198E+01  0.27567287862E+02  0.31946337028E+02  0.51100000000E-03 0. -1.
        -11    1    3    3    0    0 -0.87511362545E+01  0.20548705474E+01  0.95647108521E+01  0.13125874167E+02  0.51100000000E-03 0.  1.
         12    1    3    3    0    0  0.14553517558E+01  0.20070464110E+01 -0.11069215403E+01  0.27150615694E+01  0.00000000000E+00 0. -1.
</event>
<event>
 7    1  0.2339217E-009  0.4778727E+02  0.7816164E-02  0.1312668E+00
        -11   -1    0    0    0    0  0.00000000000E+00  0.00000000000E+00  0.45593999997E+02  0.45594000000E+02  0.51100000000E-03 0. -1.
         11   -1    0    0    0    0 -0.00000000000E+00 -0.00000000000E+00 -0.45593999997E+02  0.45594000000E+02  0.51100000000E-03 0.  1.
    9900012    2    1    2    0    0  0.30387559434E+02 -0.94775610237E+01 -0.29502469684E+02  0.47787266726E+02  0.19999980308E+02 0.  0.
         12    1    1    2    0    0 -0.30387559434E+02  0.94775610237E+01  0.29502469684E+02  0.43400733274E+02  0.00000000000E+00 0. -1.
         11    1    3    3    0    0  0.47544682210E+00 -0.29444922687E+01 -0.16886022129E+01  0.34274570888E+01  0.51100000000E-03 0. -1.
        -11    1    3    3    0    0  0.52653766722E+01 -0.22902961368E+01  0.13930154628E+01  0.59084803660E+01  0.51100000000E-03 0.  1.
        -12    1    3    3    0    0  0.24646735939E+02 -0.42427726183E+01 -0.29206882934E+02  0.38451329271E+02  0.00000000000E+00 0.  1.
</event>
<event>
 7    1  0.2339217E-009  0.4778727E+02  0.7816164E-02  0.1312668E+00
        -11   -1    0    0    0    0  0.00000000000E+00  0.00000000000E+00  0.45593999997E+02  0.45594000000E+02  0.51100000000E-03 0.  1.
         11   -1    0    0    0    0 -0.00000000000E+00 -0.00000000000E+00 -0.45593999997E+02  0.45594000000E+02  0.51100000000E-03 0. -1.
    9900012    2    1    2    0    0 -0.62388878918E+01  0.15509432046E+02  0.40051933230E+02  0.47787267748E+02  0.19999984972E+02 0.  0.
         12    1    1    2    0    0  0.62388878918E+01 -0.15509432046E+02 -0.40051933230E+02  0.43400732252E+02  0.00000000000E+00 0. -1.
         11    1    3    3    0    0 -0.86243897968E+01  0.90894969474E+01  0.26464547737E+02  0.29280904039E+02  0.51100000000E-03 0. -1.
        -11    1    3    3    0    0 -0.24730619100E+00  0.89227955856E+01  0.99078566854E+01  0.13335781408E+02  0.51100000000E-03 0.  1.
         12    1    3    3    0    0  0.26328080960E+01 -0.25028604873E+01  0.36795288073E+01  0.51705823012E+01  0.00000000000E+00 0. -1.
</event>
<event>
 7    1  0.2339217E-009  0.4778727E+02  0.7816164E-02  0.1312668E+00
        -11   -1    0    0    0    0  0.00000000000E+00  0.00000000000E+00  0.45593999997E+02  0.45594000000E+02  0.51100000000E-03 0. -1.
         11   -1    0    0    0    0 -0.00000000000E+00 -0.00000000000E+00 -0.45593999997E+02  0.45594000000E+02  0.51100000000E-03 0.  1.
    9900012    2    1    2    0    0  0.40657896686E+02  0.12436918857E+02 -0.87110050510E+01  0.47787272788E+02  0.20000007947E+02 0.  0.
         12    1    1    2    0    0 -0.40657896686E+02 -0.12436918857E+02  0.87110050510E+01  0.43400727212E+02  0.00000000000E+00 0. -1.
         11    1    3    3    0    0  0.11583453654E+02  0.99180973113E+00 -0.92912260086E+01  0.14882438177E+02  0.51100000000E-03 0. -1.
        -11    1    3    3    0    0  0.69104491570E+01 -0.28118144431E+00 -0.30677493187E+01  0.75660066547E+01  0.51100000000E-03 0.  1.
        -12    1    3    3    0    0  0.22163993875E+02  0.11726290570E+02  0.36479702763E+01  0.25338827955E+02  0.00000000000E+00 0.  1.
</event>
<event>
 7    1  0.2339217E-009  0.4778727E+02  0.7816164E-02  0.1312668E+00
        -11   -1    0    0    0    0  0.00000000000E+00  0.00000000000E+00  0.45593999997E+02  0.45594000000E+02  0.51100000000E-03 0. -1.
         11   -1    0    0    0    0 -0.00000000000E+00 -0.00000000000E+00 -0.45593999997E+02  0.45594000000E+02  0.51100000000E-03 0.  1.
    9900012    2    1    2    0    0  0.38052087748E+02  0.11884000871E+02 -0.17159032333E+02  0.47787271328E+02  0.20000001293E+02 0.  0.
         12    1    1    2    0    0 -0.38052087748E+02 -0.11884000871E+02  0.17159032333E+02  0.43400728672E+02  0.00000000000E+00 0. -1.
         11    1    3    3    0    0  0.47036657715E+01  0.16607909482E+00 -0.77395151072E+01  0.90582640893E+01  0.51100000000E-03 0. -1.
        -11    1    3    3    0    0  0.71660302433E+01  0.74351350217E+01 -0.60956236112E+01  0.11991240541E+02  0.51100000000E-03 0.  1.
         12    1    3    3    0    0  0.26182391733E+02  0.42827867544E+01 -0.33238936144E+01  0.26737766698E+02  0.00000000000E+00 0. -1.
</event>
<event>
 7    1  0.2339217E-009  0.4778727E+02  0.7816164E-02  0.1312668E+00
        -11   -1    0    0    0    0  0.00000000000E+00  0.00000000000E+00  0.45593999997E+02  0.45594000000E+02  0.51100000000E-03 0.  1.
         11   -1    0    0    0    0 -0.00000000000E+00 -0.00000000000E+00 -0.45593999997E+02  0.45594000000E+02  0.51100000000E-03 0. -1.
    9900012    2    1    2    0    0 -0.46289441007E+01  0.31832689810E+02  0.29135481502E+02  0.47787267905E+02  0.19999985684E+02 0.  0.
         12    1    1    2    0    0  0.46289441007E+01 -0.31832689810E+02 -0.29135481502E+02  0.43400732095E+02  0.00000000000E+00 0. -1.
         11    1    3    3    0    0 -0.96756597772E+00  0.64040338665E+01 -0.24102495513E+01  0.69106538652E+01  0.51100000000E-03 0.  1.
        -11    1    3    3    0    0 -0.22956183917E+01  0.47947635334E+01  0.63545684319E+01  0.82849358089E+01  0.51100000000E-03 0. -1.
        -12    1    3    3    0    0 -0.13657597313E+01  0.20633892410E+02  0.25191162622E+02  0.32591678231E+02  0.00000000000E+00 0.  1.
</event>
<event>
 7    1  0.2339217E-009  0.4778727E+02  0.7816164E-02  0.1312668E+00
        -11   -1    0    0    0    0  0.00000000000E+00  0.00000000000E+00  0.45593999997E+02  0.45594000000E+02  0.51100000000E-03 0.  1.
         11   -1    0    0    0    0 -0.00000000000E+00 -0.00000000000E+00 -0.45593999997E+02  0.45594000000E+02  0.51100000000E-03 0. -1.
    9900012    2    1    2    0    0  0.10835560695E+02  0.84544913575E+01  0.41167166709E+02  0.47787269424E+02  0.19999992610E+02 0.  0.
         12    1    1    2    0    0 -0.10835560695E+02 -0.84544913575E+01 -0.41167166709E+02  0.43400730576E+02  0.00000000000E+00 0. -1.
         11    1    3    3    0    0  0.54584933619E+01  0.17776467310E+01  0.12907039492E+02  0.14126105138E+02  0.51100000000E-03 0. -1.
        -11    1    3    3    0    0  0.10616320289E+02  0.59586667485E+01  0.14579655959E+02  0.18994165790E+02  0.51100000000E-03 0.  1.
         12    1    3    3    0    0 -0.52392529562E+01  0.71817787796E+00  0.13680471259E+02  0.14666998495E+02  0.00000000000E+00 0. -1.
</event>
<event>
 7    1  0.2339217E-009  0.4778727E+02  0.7816164E-02  0.1312668E+00
        -11   -1    0    0    0    0  0.00000000000E+00  0.00000000000E+00  0.45593999997E+02  0.45594000000E+02  0.51100000000E-03 0. -1.
         11   -1    0    0    0    0 -0.00000000000E+00 -0.00000000000E+00 -0.45593999997E+02  0.45594000000E+02  0.51100000000E-03 0.  1.
    9900012    2    1    2    0    0 -0.41795885931E+02 -0.36552282530E+01 -0.11107043606E+02  0.47787271988E+02  0.20000004300E+02 0.  0.
         12    1    1    2    0    0  0.41795885931E+02  0.36552282530E+01  0.11107043606E+02  0.43400728012E+02  0.00000000000E+00 0. -1.
         11    1    3    3    0    0 -0.42541171073E+01 -0.11354569701E+01 -0.67908658268E+01  0.80933697452E+01  0.51100000000E-03 0. -1.
        -11    1    3    3    0    0 -0.49167163543E+01 -0.32174802112E+01  0.24518441949E+01  0.63669316657E+01  0.51100000000E-03 0.  1.
        -12    1    3    3    0    0 -0.32625052469E+02  0.69770892827E+00 -0.67680219741E+01  0.33326970577E+02  0.00000000000E+00 0.  1.
</event>
<event>
 7    1  0.2339217E-009  0.4778728E+02  0.7816164E-02  0.1312668E+00
        -11   -1    0    0    0    0  0.00000000000E+00  0.00000000000E+00  0.45593999997E+02  0.45594000000E+02  0.51100000000E-03 0.  1.
         11   -1    0    0    0    0 -0.00000000000E+00 -0.00000000000E+00 -0.45593999997E+02  0.45594000000E+02  0.51100000000E-03 0. -1.
    9900012    2    1    2    0    0  0.17306041216E+02 -0.20981927534E+01  0.39745707377E+02  0.47787277307E+02  0.20000028552E+02 0.  0.
         12    1    1    2    0    0 -0.17306041216E+02  0.20981927534E+01 -0.39745707377E+02  0.43400722693E+02  0.00000000000E+00 0. -1.
         11    1    3    3    0    0 -0.28357762920E+01 -0.27672111278E+01  0.82017973913E+01  0.91087082132E+01  0.51100000000E-03 0. -1.
        -11    1    3    3    0    0  0.93385568649E+00  0.26525164446E+01  0.22920288996E+01  0.36278542790E+01  0.51100000000E-03 0.  1.
        -12    1    3    3    0    0  0.19207961821E+02 -0.19834980701E+01  0.29251881086E+02  0.35050714814E+02  0.00000000000E+00 0.  1.
</event>
<event>
 7    1  0.2339217E-009  0.4778727E+02  0.7816164E-02  0.1312668E+00
        -11   -1    0    0    0    0  0.00000000000E+00  0.00000000000E+00  0.45593999997E+02  0.45594000000E+02  0.51100000000E-03 0.  1.
         11   -1    0    0    0    0 -0.00000000000E+00 -0.00000000000E+00 -0.45593999997E+02  0.45594000000E+02  0.51100000000E-03 0. -1.
    9900012    2    1    2    0    0 -0.96222598269E+01 -0.20183906700E+02  0.37197385094E+02  0.47787269226E+02  0.19999991709E+02 0.  0.
         12    1    1    2    0    0  0.96222598269E+01  0.20183906700E+02 -0.37197385094E+02  0.43400730774E+02  0.00000000000E+00 0. -1.
         11    1    3    3    0    0 -0.10307690932E+00 -0.80895409198E+00  0.95094248838E+01  0.95443278157E+01  0.51100000000E-03 0.  1.
        -11    1    3    3    0    0 -0.75679166755E+01 -0.87152521040E+00  0.99989929839E+01  0.12570313439E+02  0.51100000000E-03 0. -1.
         12    1    3    3    0    0 -0.19512662421E+01 -0.18503427398E+02  0.17688967227E+02  0.25672627971E+02  0.00000000000E+00 0. -1.
</event>
<event>
 7    1  0.2339217E-009  0.4778727E+02  0.7816164E-02  0.1312668E+00
        -11   -1    0    0    0    0  0.00000000000E+00  0.00000000000E+00  0.45593999997E+02  0.45594000000E+02  0.51100000000E-03 0.  1.
         11   -1    0    0    0    0 -0.00000000000E+00 -0.00000000000E+00 -0.45593999997E+02  0.45594000000E+02  0.51100000000E-03 0. -1.
    9900012    2    1    2    0    0  0.19014971342E+02  0.96698549032E+01  0.37796137317E+02  0.47787271607E+02  0.20000002563E+02 0.  0.
         12    1    1    2    0    0 -0.19014971342E+02 -0.96698549032E+01 -0.37796137317E+02  0.43400728393E+02  0.00000000000E+00 0. -1.
         11    1    3    3    0    0  0.43144759071E+00 -0.50648400694E+00  0.35537848271E+00  0.75429914484E+00  0.51100000000E-03 0. -1.
        -11    1    3    3    0    0  0.11346264208E+02 -0.21104234069E+00  0.30613991701E+02  0.32649636116E+02  0.51100000000E-03 0.  1.
        -12    1    3    3    0    0  0.72372595439E+01  0.10387381251E+02  0.68267671329E+01  0.14383336346E+02  0.00000000000E+00 0.  1.
</event>
<event>
 7    1  0.2339217E-009  0.4778726E+02  0.7816164E-02  0.1312668E+00
        -11   -1    0    0    0    0  0.00000000000E+00  0.00000000000E+00  0.45593999997E+02  0.45594000000E+02  0.51100000000E-03 0.  1.
         11   -1    0    0    0    0 -0.00000000000E+00 -0.00000000000E+00 -0.45593999997E+02  0.45594000000E+02  0.51100000000E-03 0. -1.
    9900012    2    1    2    0    0 -0.42792460445E+02  0.14524763045E+00  0.72393793986E+01  0.47787258280E+02  0.19999941800E+02 0.  0.
         12    1    1    2    0    0  0.42792460445E+02 -0.14524763045E+00 -0.72393793986E+01  0.43400741720E+02  0.00000000000E+00 0. -1.
         11    1    3    3    0    0  0.35438314999E+00  0.13283631437E+01  0.29208956506E+01  0.32282762771E+01  0.51100000000E-03 0. -1.
        -11    1    3    3    0    0 -0.13874275640E+02 -0.50714310984E+01  0.24130117658E+01  0.14967884419E+02  0.51100000000E-03 0.  1.
        -12    1    3    3    0    0 -0.29272567954E+02  0.38883155852E+01  0.19054719822E+01  0.29591097584E+02  0.00000000000E+00 0.  1.
</event>
<event>
 7    1  0.2339217E-009  0.4778727E+02  0.7816164E-02  0.1312668E+00
        -11   -1    0    0    0    0  0.00000000000E+00  0.00000000000E+00  0.45593999997E+02  0.45594000000E+02  0.51100000000E-03 0. -1.
         11   -1    0    0    0    0 -0.00000000000E+00 -0.00000000000E+00 -0.45593999997E+02  0.45594000000E+02  0.51100000000E-03 0.  1.
    9900012    2    1    2    0    0 -0.72736251853E+01  0.42770783350E+02  0.11737767921E+01  0.47787270932E+02  0.19999999488E+02 0.  0.
         12    1    1    2    0    0  0.72736251853E+01 -0.42770783350E+02 -0.11737767921E+01  0.43400729068E+02  0.00000000000E+00 0. -1.
         11    1    3    3    0    0 -0.10921096251E+02  0.24148386692E+02 -0.39329316763E+01  0.26793336392E+02  0.51100000000E-03 0. -1.
        -11    1    3    3    0    0  0.20182601223E+01  0.93837182215E+01 -0.12246052577E+01  0.96761149166E+01  0.51100000000E-03 0.  1.
         12    1    3    3    0    0  0.16292109435E+01  0.92386784356E+01  0.63313137260E+01  0.11317819624E+02  0.00000000000E+00 0. -1.
</event>
<event>
 7    1  0.2339217E-009  0.4778727E+02  0.7816164E-02  0.1312668E+00
        -11   -1    0    0    0    0  0.00000000000E+00  0.00000000000E+00  0.45593999997E+02  0.45594000000E+02  0.51100000000E-03 0.  1.
         11   -1    0    0    0    0 -0.00000000000E+00 -0.00000000000E+00 -0.45593999997E+02  0.45594000000E+02  0.51100000000E-03 0. -1.
    9900012    2    1    2    0    0  0.16841938930E+02 -0.39959907363E+02 -0.17827190686E+01  0.47787272003E+02  0.20000004371E+02 0.  0.
         12    1    1    2    0    0 -0.16841938930E+02  0.39959907363E+02  0.17827190686E+01  0.43400727997E+02  0.00000000000E+00 0. -1.
         11    1    3    3    0    0  0.56927703220E+01 -0.88461530319E+01  0.51470869380E+01  0.11711300594E+02  0.51100000000E-03 0. -1.
        -11    1    3    3    0    0  0.73660781546E+01 -0.25908334491E+02 -0.44286679475E+00  0.26938764536E+02  0.51100000000E-03 0.  1.
         12    1    3    3    0    0  0.37830904539E+01 -0.52054198399E+01 -0.64869392119E+01  0.91372068725E+01  0.00000000000E+00 0. -1.
</event>
<event>
 7    1  0.2339217E-009  0.4778727E+02  0.7816164E-02  0.1312668E+00
        -11   -1    0    0    0    0  0.00000000000E+00  0.00000000000E+00  0.45593999997E+02  0.45594000000E+02  0.51100000000E-03 0.  1.
         11   -1    0    0    0    0 -0.00000000000E+00 -0.00000000000E+00 -0.45593999997E+02  0.45594000000E+02  0.51100000000E-03 0. -1.
    9900012    2    1    2    0    0  0.22345540077E+02  0.21162291323E+02  0.30601592622E+02  0.47787271822E+02  0.20000003547E+02 0.  0.
         12    1    1    2    0    0 -0.22345540077E+02 -0.21162291323E+02 -0.30601592622E+02  0.43400728178E+02  0.00000000000E+00 0. -1.
         11    1    3    3    0    0  0.20355051768E+02  0.17511381823E+02  0.18873128748E+02  0.32820292729E+02  0.51100000000E-03 0. -1.
        -11    1    3    3    0    0  0.35542733633E+01  0.36030262745E+01  0.12300618284E+02  0.13301122807E+02  0.51100000000E-03 0.  1.
         12    1    3    3    0    0 -0.15637850538E+01  0.47883224797E-01 -0.57215441087E+00  0.16658562866E+01  0.00000000000E+00 0. -1.
</event>
<event>
 7    1  0.2339217E-009  0.4778727E+02  0.7816164E-02  0.1312668E+00
        -11   -1    0    0    0    0  0.00000000000E+00  0.00000000000E+00  0.45593999997E+02  0.45594000000E+02  0.51100000000E-03 0.  1.
         11   -1    0    0    0    0 -0.00000000000E+00 -0.00000000000E+00 -0.45593999997E+02  0.45594000000E+02  0.51100000000E-03 0. -1.
    9900012    2    1    2    0    0 -0.25188383030E+02 -0.22575113994E+02  0.27194356221E+02  0.47787269341E+02  0.19999992231E+02 0.  0.
         12    1    1    2    0    0  0.25188383030E+02  0.22575113994E+02 -0.27194356221E+02  0.43400730659E+02  0.00000000000E+00 0. -1.
         11    1    3    3    0    0  0.81154926142E+00  0.64680726104E+00  0.21342575172E+01  0.23731892566E+01  0.51100000000E-03 0. -1.
        -11    1    3    3    0    0 -0.12030086512E+02 -0.34162710378E+01  0.14002604569E+02  0.18774099825E+02  0.51100000000E-03 0.  1.
         12    1    3    3    0    0 -0.13969845780E+02 -0.19805650217E+02  0.11057494135E+02  0.26639980259E+02  0.00000000000E+00 0. -1.
</event>
<event>
 7    1  0.2339217E-009  0.4778727E+02  0.7816164E-02  0.1312668E+00
        -11   -1    0    0    0    0  0.00000000000E+00  0.00000000000E+00  0.45593999997E+02  0.45594000000E+02  0.51100000000E-03 0.  1.
         11   -1    0    0    0    0 -0.00000000000E+00 -0.00000000000E+00 -0.45593999997E+02  0.45594000000E+02  0.51100000000E-03 0. -1.
    9900012    2    1    2    0    0  0.11010586226E+02  0.41002723955E+02  0.90092668285E+01  0.47787271094E+02  0.20000000227E+02 0.  0.
         12    1    1    2    0    0 -0.11010586226E+02 -0.41002723955E+02 -0.90092668285E+01  0.43400728906E+02  0.00000000000E+00 0. -1.
         11    1    3    3    0    0  0.35856597203E+01  0.31416639085E+02  0.71384849608E+01  0.32416355977E+02  0.51100000000E-03 0.  1.
        -11    1    3    3    0    0  0.62870913408E+01  0.97208105398E+01  0.45641207010E+01  0.12443989437E+02  0.51100000000E-03 0. -1.
        -12    1    3    3    0    0  0.11378351647E+01 -0.13472566945E+00 -0.26933388333E+01  0.29269256805E+01  0.00000000000E+00 0.  1.
</event>
<event>
 7    1  0.2339217E-009  0.4778727E+02  0.7816164E-02  0.1312668E+00
        -11   -1    0    0    0    0  0.00000000000E+00  0.00000000000E+00  0.45593999997E+02  0.45594000000E+02  0.51100000000E-03 0.  1.
         11   -1    0    0    0    0 -0.00000000000E+00 -0.00000000000E+00 -0.45593999997E+02  0.45594000000E+02  0.51100000000E-03 0. -1.
    9900012    2    1    2    0    0  0.15746784741E+02 -0.63794654779E+01  0.39937012686E+02  0.47787265079E+02  0.19999972799E+02 0.  0.
         12    1    1    2    0    0 -0.15746784741E+02  0.63794654779E+01 -0.39937012686E+02  0.43400734921E+02  0.00000000000E+00 0. -1.
         11    1    3    3    0    0  0.26303385728E+00  0.29929702129E+01  0.51795802065E+01  0.59879135667E+01  0.51100000000E-03 0. -1.
        -11    1    3    3    0    0  0.45411068109E+01  0.31197957353E+00  0.52928385192E+00  0.45824801123E+01  0.51100000000E-03 0.  1.
        -12    1    3    3    0    0  0.10942644073E+02 -0.96844152643E+01  0.34228148627E+02  0.37216871400E+02  0.00000000000E+00 0.  1.
</event>
<event>
 7    1  0.2339217E-009  0.4778727E+02  0.7816164E-02  0.1312668E+00
        -11   -1    0    0    0    0  0.00000000000E+00  0.00000000000E+00  0.45593999997E+02  0.45594000000E+02  0.51100000000E-03 0.  1.
         11   -1    0    0    0    0 -0.00000000000E+00 -0.00000000000E+00 -0.45593999997E+02  0.45594000000E+02  0.51100000000E-03 0. -1.
    9900012    2    1    2    0    0 -0.51747687372E+01  0.16732595180E+02  0.39709765425E+02  0.47787269095E+02  0.19999991113E+02 0.  0.
         12    1    1    2    0    0  0.51747687372E+01 -0.16732595180E+02 -0.39709765425E+02  0.43400730905E+02  0.00000000000E+00 0. -1.
         11    1    3    3    0    0  0.22660919400E+01  0.11660414369E+01  0.74516479499E+01  0.78753973070E+01  0.51100000000E-03 0. -1.
        -11    1    3    3    0    0  0.46597973808E+01  0.26184431461E+01  0.11041832751E+02  0.12267519182E+02  0.51100000000E-03 0.  1.
         12    1    3    3    0    0 -0.12100658058E+02  0.12948110597E+02  0.21216284725E+02  0.27644352606E+02  0.00000000000E+00 0. -1.
</event>
<event>
 7    1  0.2339217E-009  0.4778727E+02  0.7816164E-02  0.1312668E+00
        -11   -1    0    0    0    0  0.00000000000E+00  0.00000000000E+00  0.45593999997E+02  0.45594000000E+02  0.51100000000E-03 0. -1.
         11   -1    0    0    0    0 -0.00000000000E+00 -0.00000000000E+00 -0.45593999997E+02  0.45594000000E+02  0.51100000000E-03 0.  1.
    9900012    2    1    2    0    0 -0.12028504251E+02  0.99390863281E+01 -0.40498801181E+02  0.47787271335E+02  0.20000001326E+02 0.  0.
         12    1    1    2    0    0  0.12028504251E+02 -0.99390863281E+01  0.40498801181E+02  0.43400728665E+02  0.00000000000E+00 0. -1.
         11    1    3    3    0    0  0.27226642308E+01  0.13662432860E+01 -0.19053506083E+01  0.35930324841E+01  0.51100000000E-03 0. -1.
        -11    1    3    3    0    0  0.21435622720E+01  0.77204612765E+00 -0.15998374944E+01  0.27839530720E+01  0.51100000000E-03 0.  1.
        -12    1    3    3    0    0 -0.16894730753E+02  0.78007969145E+01 -0.36993613078E+02  0.41410285779E+02  0.00000000000E+00 0.  1.
</event>
<event>
 7    1  0.2339217E-009  0.4778727E+02  0.7816164E-02  0.1312668E+00
        -11   -1    0    0    0    0  0.00000000000E+00  0.00000000000E+00  0.45593999997E+02  0.45594000000E+02  0.51100000000E-03 0.  1.
         11   -1    0    0    0    0 -0.00000000000E+00 -0.00000000000E+00 -0.45593999997E+02  0.45594000000E+02  0.51100000000E-03 0. -1.
    9900012    2    1    2    0    0 -0.39196125726E+02 -0.14560318047E+02  0.11631169594E+02  0.47787271438E+02  0.20000001796E+02 0.  0.
         12    1    1    2    0    0  0.39196125726E+02  0.14560318047E+02 -0.11631169594E+02  0.43400728562E+02  0.00000000000E+00 0. -1.
         11    1    3    3    0    0 -0.23196286397E+01 -0.11901069627E+01 -0.30609052936E+01  0.40207179814E+01  0.51100000000E-03 0. -1.
        -11    1    3    3    0    0 -0.83862268472E+01 -0.20497373718E+01 -0.19974117924E+01  0.88611442916E+01  0.51100000000E-03 0.  1.
        -12    1    3    3    0    0 -0.28490270239E+02 -0.11320473713E+02  0.16689486680E+02  0.34905409165E+02  0.00000000000E+00 0.  1.
</event>
<event>
 7    1  0.2339217E-009  0.4778726E+02  0.7816164E-02  0.1312668E+00
        -11   -1    0    0    0    0  0.00000000000E+00  0.00000000000E+00  0.45593999997E+02  0.45594000000E+02  0.51100000000E-03 0.  1.
         11   -1    0    0    0    0 -0.00000000000E+00 -0.00000000000E+00 -0.45593999997E+02  0.45594000000E+02  0.51100000000E-03 0. -1.
    9900012    2    1    2    0    0  0.75173244217E+01 -0.32275014054E+02  0.28025660910E+02  0.47787258439E+02  0.19999942527E+02 0.  0.
         12    1    1    2    0    0 -0.75173244217E+01  0.32275014054E+02 -0.28025660910E+02  0.43400741561E+02  0.00000000000E+00 0. -1.
         11    1    3    3    0    0  0.89410998117E-01 -0.66578614741E+01  0.10569773721E+01  0.67418332196E+01  0.51100000000E-03 0. -1.
        -11    1    3    3    0    0  0.55960078512E+01 -0.81450861369E+01  0.13385959522E+01  0.99724405956E+01  0.51100000000E-03 0.  1.
         12    1    3    3    0    0  0.18319055724E+01 -0.17472066443E+02  0.25630087585E+02  0.31072984624E+02  0.00000000000E+00 0. -1.
</event>
<event>
 7    1  0.2339217E-009  0.4778728E+02  0.7816164E-02  0.1312668E+00
        -11   -1    0    0    0    0  0.00000000000E+00  0.00000000000E+00  0.45593999997E+02  0.45594000000E+02  0.51100000000E-03 0. -1.
         11   -1    0    0    0    0 -0.00000000000E+00 -0.00000000000E+00 -0.45593999997E+02  0.45594000000E+02  0.51100000000E-03 0.  1.
    9900012    2    1    2    0    0  0.24185749107E+02  0.10253870365E+02 -0.34547501781E+02  0.47787283455E+02  0.20000056583E+02 0.  0.
         12    1    1    2    0    0 -0.24185749107E+02 -0.10253870365E+02  0.34547501781E+02  0.43400716545E+02  0.00000000000E+00 0. -1.
         11    1    3    3    0    0  0.20108781228E+02  0.70942867987E+01 -0.17338734140E+02  0.27483152831E+02  0.51100000000E-03 0. -1.
        -11    1    3    3    0    0  0.60440002446E+01 -0.65146797261E+00 -0.72512591918E+01  0.94622993825E+01  0.51100000000E-03 0.  1.
        -12    1    3    3    0    0 -0.19670323658E+01  0.38110515386E+01 -0.99575084492E+01  0.10841831242E+02  0.00000000000E+00 0.  1.
</event>
<event>
 7    1  0.2339217E-009  0.4778727E+02  0.7816164E-02  0.1312668E+00
        -11   -1    0    0    0    0  0.00000000000E+00  0.00000000000E+00  0.45593999997E+02  0.45594000000E+02  0.51100000000E-03 0. -1.
         11   -1    0    0    0    0 -0.00000000000E+00 -0.00000000000E+00 -0.45593999997E+02  0.45594000000E+02  0.51100000000E-03 0.  1.
    9900012    2    1    2    0    0 -0.21307807672E+02  0.33018864417E+02 -0.18421599003E+02  0.47787269764E+02  0.19999994161E+02 0.  0.
         12    1    1    2    0    0  0.21307807672E+02 -0.33018864417E+02  0.18421599003E+02  0.43400730236E+02  0.00000000000E+00 0. -1.
         11    1    3    3    0    0 -0.16334717353E+02  0.14685545440E+02 -0.13682826594E+02  0.25878716733E+02  0.51100000000E-03 0. -1.
        -11    1    3    3    0    0 -0.68697962347E+01  0.18228333661E+02 -0.41210907000E+01  0.19911043096E+02  0.51100000000E-03 0.  1.
        -12    1    3    3    0    0  0.18967059155E+01  0.10498531683E+00 -0.61768170848E+00  0.19975099348E+01  0.00000000000E+00 0.  1.
</event>
<event>
 7    1  0.2339217E-009  0.4778727E+02  0.7816164E-02  0.1312668E+00
        -11   -1    0    0    0    0  0.00000000000E+00  0.00000000000E+00  0.45593999997E+02  0.45594000000E+02  0.51100000000E-03 0.  1.
         11   -1    0    0    0    0 -0.00000000000E+00 -0.00000000000E+00 -0.45593999997E+02  0.45594000000E+02  0.51100000000E-03 0. -1.
    9900012    2    1    2    0    0 -0.20466437744E+02 -0.28421280923E+02  0.25631601717E+02  0.47787270861E+02  0.19999999165E+02 0.  0.
         12    1    1    2    0    0  0.20466437744E+02  0.28421280923E+02 -0.25631601717E+02  0.43400729139E+02  0.00000000000E+00 0. -1.
         11    1    3    3    0    0 -0.17261977994E+01 -0.41995844394E+00  0.97846204419E+01  0.99445925704E+01  0.51100000000E-03 0. -1.
        -11    1    3    3    0    0 -0.64559060965E+01 -0.11742794665E+02  0.97515422005E+01  0.16573005932E+02  0.51100000000E-03 0.  1.
        -12    1    3    3    0    0 -0.12284333848E+02 -0.16258527814E+02  0.60954390747E+01  0.21269672359E+02  0.00000000000E+00 0.  1.
</event>
<event>
 7    1  0.2339217E-009  0.4778727E+02  0.7816164E-02  0.1312668E+00
        -11   -1    0    0    0    0  0.00000000000E+00  0.00000000000E+00  0.45593999997E+02  0.45594000000E+02  0.51100000000E-03 0.  1.
         11   -1    0    0    0    0 -0.00000000000E+00 -0.00000000000E+00 -0.45593999997E+02  0.45594000000E+02  0.51100000000E-03 0. -1.
    9900012    2    1    2    0    0 -0.16856500398E+02 -0.29902490575E+01  0.39881576659E+02  0.47787270145E+02  0.19999995901E+02 0.  0.
         12    1    1    2    0    0  0.16856500398E+02  0.29902490575E+01 -0.39881576659E+02  0.43400729855E+02  0.00000000000E+00 0. -1.
         11    1    3    3    0    0 -0.47260969153E+00  0.56375874460E+01  0.15231877815E+02  0.16248564680E+02  0.51100000000E-03 0. -1.
        -11    1    3    3    0    0 -0.41748429294E+01 -0.28256942424E+01  0.12039850527E+02  0.13052657293E+02  0.51100000000E-03 0.  1.
        -12    1    3    3    0    0 -0.12209047777E+02 -0.58021422611E+01  0.12609848317E+02  0.18486048172E+02  0.00000000000E+00 0.  1.
</event>
<event>
 7    1  0.2339217E-009  0.4778727E+02  0.7816164E-02  0.1312668E+00
        -11   -1    0    0    0    0  0.00000000000E+00  0.00000000000E+00  0.45593999997E+02  0.45594000000E+02  0.51100000000E-03 0.  1.
         11   -1    0    0    0    0 -0.00000000000E+00 -0.00000000000E+00 -0.45593999997E+02  0.45594000000E+02  0.51100000000E-03 0. -1.
    9900012    2    1    2    0    0  0.32519602660E+02 -0.28726787070E+02 -0.93297621515E+00  0.47787270776E+02  0.19999998776E+02 0.  0.
         12    1    1    2    0    0 -0.32519602660E+02  0.28726787070E+02  0.93297621515E+00  0.43400729224E+02  0.00000000000E+00 0. -1.
         11    1    3    3    0    0  0.86050208368E+00  0.26284648651E+00  0.92366565748E+00  0.12894613679E+01  0.51100000000E-03 0. -1.
        -11    1    3    3    0    0  0.22916707173E+02 -0.20464423799E+02  0.68778439097E+01  0.31484485801E+02  0.51100000000E-03 0.  1.
         12    1    3    3    0    0  0.87423934038E+01 -0.85252097576E+01 -0.87344857823E+01  0.15013323607E+02  0.00000000000E+00 0. -1.
</event>
<event>
 7    1  0.2339217E-009  0.4778728E+02  0.7816164E-02  0.1312668E+00
        -11   -1    0    0    0    0  0.00000000000E+00  0.00000000000E+00  0.45593999997E+02  0.45594000000E+02  0.51100000000E-03 0.  1.
         11   -1    0    0    0    0 -0.00000000000E+00 -0.00000000000E+00 -0.45593999997E+02  0.45594000000E+02  0.51100000000E-03 0. -1.
    9900012    2    1    2    0    0 -0.10999960722E+01  0.20489009589E+02  0.38244122926E+02  0.47787280609E+02  0.20000043607E+02 0.  0.
         12    1    1    2    0    0  0.10999960722E+01 -0.20489009589E+02 -0.38244122926E+02  0.43400719391E+02  0.00000000000E+00 0. -1.
         11    1    3    3    0    0 -0.17493460718E+01  0.21808576130E+01  0.83358244771E+01  0.87921738826E+01  0.51100000000E-03 0.  1.
        -11    1    3    3    0    0  0.86307976141E+01  0.11927639184E+02  0.19180742935E+02  0.24179746561E+02  0.51100000000E-03 0. -1.
         12    1    3    3    0    0 -0.79814476145E+01  0.63805127920E+01  0.10727555514E+02  0.14815360165E+02  0.00000000000E+00 0. -1.
</event>
<event>
 7    1  0.2339217E-009  0.4778728E+02  0.7816164E-02  0.1312668E+00
        -11   -1    0    0    0    0  0.00000000000E+00  0.00000000000E+00  0.45593999997E+02  0.45594000000E+02  0.51100000000E-03 0.  1.
         11   -1    0    0    0    0 -0.00000000000E+00 -0.00000000000E+00 -0.45593999997E+02  0.45594000000E+02  0.51100000000E-03 0. -1.
    9900012    2    1    2    0    0 -0.98133195417E+01  0.26672046554E+02  0.32801274621E+02  0.47787275069E+02  0.20000018349E+02 0.  0.
         12    1    1    2    0    0  0.98133195417E+01 -0.26672046554E+02 -0.32801274621E+02  0.43400724931E+02  0.00000000000E+00 0. -1.
         11    1    3    3    0    0 -0.36423560420E+01  0.10595396385E+02  0.68263484484E+01  0.13119764308E+02  0.51100000000E-03 0. -1.
        -11    1    3    3    0    0 -0.75192989727E+01  0.16818699939E+02  0.27094294597E+02  0.32764452149E+02  0.51100000000E-03 0.  1.
         12    1    3    3    0    0  0.13483354730E+01 -0.74204977025E+00 -0.11193684246E+01  0.19030586117E+01  0.00000000000E+00 0. -1.
</event>
<event>
 7    1  0.2339217E-009  0.4778727E+02  0.7816164E-02  0.1312668E+00
        -11   -1    0    0    0    0  0.00000000000E+00  0.00000000000E+00  0.45593999997E+02  0.45594000000E+02  0.51100000000E-03 0.  1.
         11   -1    0    0    0    0 -0.00000000000E+00 -0.00000000000E+00 -0.45593999997E+02  0.45594000000E+02  0.51100000000E-03 0. -1.
    9900012    2    1    2    0    0 -0.25594985299E+02  0.71523711002E+01  0.34312729723E+02  0.47787272980E+02  0.20000008824E+02 0.  0.
         12    1    1    2    0    0  0.25594985299E+02 -0.71523711002E+01 -0.34312729723E+02  0.43400727020E+02  0.00000000000E+00 0. -1.
         11    1    3    3    0    0 -0.48211695404E+01  0.71428392567E+01  0.18846843653E+02  0.20723593905E+02  0.51100000000E-03 0. -1.
        -11    1    3    3    0    0 -0.61888075104E+01  0.36247543696E+01  0.46077019542E+01  0.85247346117E+01  0.51100000000E-03 0.  1.
        -12    1    3    3    0    0 -0.14585008248E+02 -0.36152225261E+01  0.10858184116E+02  0.18538944463E+02  0.00000000000E+00 0.  1.
</event>
<event>
 7    1  0.2339217E-009  0.4778727E+02  0.7816164E-02  0.1312668E+00
        -11   -1    0    0    0    0  0.00000000000E+00  0.00000000000E+00  0.45593999997E+02  0.45594000000E+02  0.51100000000E-03 0. -1.
         11   -1    0    0    0    0 -0.00000000000E+00 -0.00000000000E+00 -0.45593999997E+02  0.45594000000E+02  0.51100000000E-03 0.  1.
    9900012    2    1    2    0    0  0.55379877067E+01 -0.39772100143E+02  0.16466149372E+02  0.47787270366E+02  0.19999996908E+02 0.  0.
         12    1    1    2    0    0 -0.55379877067E+01  0.39772100143E+02 -0.16466149372E+02  0.43400729634E+02  0.00000000000E+00 0. -1.
         11    1    3    3    0    0 -0.17535032351E+01 -0.15422946886E+02  0.11516298918E+02  0.19327886726E+02  0.51100000000E-03 0. -1.
        -11    1    3    3    0    0  0.11089852003E+00  0.13247614279E+01 -0.72059767282E-01  0.13313467594E+01  0.51100000000E-03 0.  1.
        -12    1    3    3    0    0  0.71805924217E+01 -0.25673914685E+02  0.50219102211E+01  0.27128036881E+02  0.00000000000E+00 0.  1.
</event>
<event>
 7    1  0.2339217E-009  0.4778727E+02  0.7816164E-02  0.1312668E+00
        -11   -1    0    0    0    0  0.00000000000E+00  0.00000000000E+00  0.45593999997E+02  0.45594000000E+02  0.51100000000E-03 0.  1.
         11   -1    0    0    0    0 -0.00000000000E+00 -0.00000000000E+00 -0.45593999997E+02  0.45594000000E+02  0.51100000000E-03 0. -1.
    9900012    2    1    2    0    0  0.29887997595E+02  0.31144286481E+02  0.45126549384E+01  0.47787273794E+02  0.20000012535E+02 0.  0.
         12    1    1    2    0    0 -0.29887997595E+02 -0.31144286481E+02 -0.45126549384E+01  0.43400726206E+02  0.00000000000E+00 0. -1.
         11    1    3    3    0    0  0.11344659489E+01  0.92506267863E+01  0.19556032941E+01  0.95228931231E+01  0.51100000000E-03 0. -1.
        -11    1    3    3    0    0  0.22133735775E+02  0.12199146774E+02  0.61069731351E+01  0.26000318508E+02  0.51100000000E-03 0.  1.
         12    1    3    3    0    0  0.66197958713E+01  0.96945129206E+01 -0.35499214908E+01  0.12264062163E+02  0.00000000000E+00 0. -1.
</event>
<event>
 7    1  0.2339217E-009  0.4778727E+02  0.7816164E-02  0.1312668E+00
        -11   -1    0    0    0    0  0.00000000000E+00  0.00000000000E+00  0.45593999997E+02  0.45594000000E+02  0.51100000000E-03 0. -1.
         11   -1    0    0    0    0 -0.00000000000E+00 -0.00000000000E+00 -0.45593999997E+02  0.45594000000E+02  0.51100000000E-03 0.  1.
    9900012    2    1    2    0    0  0.20727069858E+02  0.33440357706E+01 -0.37984593222E+02  0.47787270486E+02  0.19999997455E+02 0.  0.
         12    1    1    2    0    0 -0.20727069858E+02 -0.33440357706E+01  0.37984593222E+02  0.43400729514E+02  0.00000000000E+00 0. -1.
         11    1    3    3    0    0  0.28357935249E+01 -0.18413972948E+01 -0.16133252523E+01  0.37463699156E+01  0.51100000000E-03 0.  1.
        -11    1    3    3    0    0  0.19642054457E+02  0.48052372615E+01 -0.36980930067E+02  0.42148425799E+02  0.51100000000E-03 0. -1.
         12    1    3    3    0    0 -0.17507781239E+01  0.38019580391E+00  0.60966209796E+00  0.18924747719E+01  0.00000000000E+00 0. -1.
</event>
<event>
 7    1  0.2339217E-009  0.4778723E+02  0.7816164E-02  0.1312668E+00
        -11   -1    0    0    0    0  0.00000000000E+00  0.00000000000E+00  0.45593999997E+02  0.45594000000E+02  0.51100000000E-03 0.  1.
         11   -1    0    0    0    0 -0.00000000000E+00 -0.00000000000E+00 -0.45593999997E+02  0.45594000000E+02  0.51100000000E-03 0. -1.
    9900012    2    1    2    0    0 -0.72383841686E+00  0.37449307807E+02  0.21923789582E+02  0.47787226425E+02  0.19999796562E+02 0.  0.
         12    1    1    2    0    0  0.72383841686E+00 -0.37449307807E+02 -0.21923789582E+02  0.43400773575E+02  0.00000000000E+00 0. -1.
         11    1    3    3    0    0 -0.12421450619E+01  0.22238967321E-01  0.71073885108E+00  0.14312822580E+01  0.51100000000E-03 0. -1.
        -11    1    3    3    0    0 -0.15483573425E+01  0.35694273463E+02  0.13514123261E+02  0.38198299652E+02  0.51100000000E-03 0.  1.
         12    1    3    3    0    0  0.20666639875E+01  0.17327953762E+01  0.76989274695E+01  0.81576445150E+01  0.00000000000E+00 0. -1.
</event>
<event>
 7    1  0.2502887E-009  0.4778727E+02  0.7816164E-02  0.1312668E+00
        -11   -1    0    0    0    0  0.00000000000E+00  0.00000000000E+00  0.45593999997E+02  0.45594000000E+02  0.51100000000E-03 0. -1.
         11   -1    0    0    0    0 -0.00000000000E+00 -0.00000000000E+00 -0.45593999997E+02  0.45594000000E+02  0.51100000000E-03 0.  1.
    9900012    2    1    2    0    0 -0.55415505621E+01 -0.42595170079E+02 -0.62101675921E+01  0.47787268690E+02  0.19999989266E+02 0.  0.
         12    1    1    2    0    0  0.55415505621E+01  0.42595170079E+02  0.62101675921E+01  0.43400731310E+02  0.00000000000E+00 0. -1.
         11    1    3    3    0    0  0.24169767808E+01 -0.28904501768E+01  0.19165898171E+01  0.42272681216E+01  0.51100000000E-03 0. -1.
        -11    1    3    3    0    0 -0.93423253981E+00 -0.27379817404E+02 -0.38388491827E+00  0.27398440821E+02  0.51100000000E-03 0.  1.
        -12    1    3    3    0    0 -0.70242948031E+01 -0.12324902498E+02 -0.77428724908E+01  0.16161559748E+02  0.00000000000E+00 0.  1.
</event>
<event>
 7    1  0.2339217E-009  0.4778727E+02  0.7816164E-02  0.1312668E+00
        -11   -1    0    0    0    0  0.00000000000E+00  0.00000000000E+00  0.45593999997E+02  0.45594000000E+02  0.51100000000E-03 0.  1.
         11   -1    0    0    0    0 -0.00000000000E+00 -0.00000000000E+00 -0.45593999997E+02  0.45594000000E+02  0.51100000000E-03 0. -1.
    9900012    2    1    2    0    0 -0.23626961019E+01 -0.19647177153E+02  0.38626794042E+02  0.47787272806E+02  0.20000008034E+02 0.  0.
         12    1    1    2    0    0  0.23626961019E+01  0.19647177153E+02 -0.38626794042E+02  0.43400727194E+02  0.00000000000E+00 0. -1.
         11    1    3    3    0    0 -0.19644753941E+01 -0.49322366107E+01  0.33776221976E+00  0.53197937118E+01  0.51100000000E-03 0. -1.
        -11    1    3    3    0    0 -0.53900858524E+01 -0.97601298881E+01  0.20449802916E+02  0.23291792557E+02  0.51100000000E-03 0.  1.
         12    1    3    3    0    0  0.49918651445E+01 -0.49548106545E+01  0.17839228906E+02  0.19175686538E+02  0.00000000000E+00 0. -1.
</event>
<event>
 7    1  0.2339217E-009  0.4778727E+02  0.7816164E-02  0.1312668E+00
        -11   -1    0    0    0    0  0.00000000000E+00  0.00000000000E+00  0.45593999997E+02  0.45594000000E+02  0.51100000000E-03 0.  1.
         11   -1    0    0    0    0 -0.00000000000E+00 -0.00000000000E+00 -0.45593999997E+02  0.45594000000E+02  0.51100000000E-03 0. -1.
    9900012    2    1    2    0    0 -0.10778826614E+02 -0.21972890841E+02  0.35841767341E+02  0.47787270499E+02  0.19999997515E+02 0.  0.
         12    1    1    2    0    0  0.10778826614E+02  0.21972890841E+02 -0.35841767341E+02  0.43400729501E+02  0.00000000000E+00 0. -1.
         11    1    3    3    0    0 -0.64885323242E+01 -0.14835090470E+01  0.49114907127E+01  0.82719158662E+01  0.51100000000E-03 0. -1.
        -11    1    3    3    0    0 -0.33112130232E+01 -0.21805781399E+01  0.14030690426E+02  0.14580100371E+02  0.51100000000E-03 0.  1.
         12    1    3    3    0    0 -0.97908126613E+00 -0.18308803654E+02  0.16899586202E+02  0.24935254263E+02  0.00000000000E+00 0. -1.
</event>
<event>
 7    1  0.2339217E-009  0.4778727E+02  0.7816164E-02  0.1312668E+00
        -11   -1    0    0    0    0  0.00000000000E+00  0.00000000000E+00  0.45593999997E+02  0.45594000000E+02  0.51100000000E-03 0.  1.
         11   -1    0    0    0    0 -0.00000000000E+00 -0.00000000000E+00 -0.45593999997E+02  0.45594000000E+02  0.51100000000E-03 0. -1.
    9900012    2    1    2    0    0  0.11489901427E+02  0.19568716358E+02  0.36995547896E+02  0.47787273521E+02  0.20000011293E+02 0.  0.
         12    1    1    2    0    0 -0.11489901427E+02 -0.19568716358E+02 -0.36995547896E+02  0.43400726479E+02  0.00000000000E+00 0. -1.
         11    1    3    3    0    0 -0.37042067696E+01  0.97483314890E+01  0.95436886782E+01  0.14136233885E+02  0.51100000000E-03 0. -1.
        -11    1    3    3    0    0  0.11735133992E+01  0.26287179109E+01  0.13921711351E+01  0.31977229842E+01  0.51100000000E-03 0.  1.
        -12    1    3    3    0    0  0.14020594797E+02  0.71916669584E+01  0.26059688083E+02  0.30453316652E+02  0.00000000000E+00 0.  1.
</event>
<event>
 7    1  0.2339217E-009  0.4778727E+02  0.7816164E-02  0.1312668E+00
        -11   -1    0    0    0    0  0.00000000000E+00  0.00000000000E+00  0.45593999997E+02  0.45594000000E+02  0.51100000000E-03 0. -1.
         11   -1    0    0    0    0 -0.00000000000E+00 -0.00000000000E+00 -0.45593999997E+02  0.45594000000E+02  0.51100000000E-03 0.  1.
    9900012    2    1    2    0    0  0.24854781631E+02 -0.50799804941E+00 -0.35575344850E+02  0.47787269671E+02  0.19999993737E+02 0.  0.
         12    1    1    2    0    0 -0.24854781631E+02  0.50799804941E+00  0.35575344850E+02  0.43400730329E+02  0.00000000000E+00 0. -1.
         11    1    3    3    0    0  0.20758307295E+02 -0.54670995946E+01 -0.35228031183E+02  0.41253008145E+02  0.51100000000E-03 0.  1.
        -11    1    3    3    0    0  0.25952426008E+01  0.24784651527E+01  0.15311116906E+00  0.35918681715E+01  0.51100000000E-03 0. -1.
        -12    1    3    3    0    0  0.15012317351E+01  0.24806363924E+01 -0.50042483585E+00  0.29423933541E+01  0.00000000000E+00 0.  1.
</event>
<event>
 7    1  0.2339217E-009  0.4778727E+02  0.7816164E-02  0.1312668E+00
        -11   -1    0    0    0    0  0.00000000000E+00  0.00000000000E+00  0.45593999997E+02  0.45594000000E+02  0.51100000000E-03 0. -1.
         11   -1    0    0    0    0 -0.00000000000E+00 -0.00000000000E+00 -0.45593999997E+02  0.45594000000E+02  0.51100000000E-03 0.  1.
    9900012    2    1    2    0    0  0.11279910859E+01 -0.21044058662E+02 -0.37940722526E+02  0.47787271957E+02  0.20000004162E+02 0.  0.
         12    1    1    2    0    0 -0.11279910859E+01  0.21044058662E+02  0.37940722526E+02  0.43400728043E+02  0.00000000000E+00 0. -1.
         11    1    3    3    0    0 -0.44814910267E+01 -0.36265694293E+01 -0.17439508803E+02  0.18367695424E+02  0.51100000000E-03 0. -1.
        -11    1    3    3    0    0  0.36223386551E+01 -0.16839990296E+00 -0.24702721967E+01  0.43877033681E+01  0.51100000000E-03 0.  1.
        -12    1    3    3    0    0  0.19871434575E+01 -0.17249089330E+02 -0.18030941526E+02  0.25031873165E+02  0.00000000000E+00 0.  1.
</event>
<event>
 7    1  0.2339217E-009  0.4778727E+02  0.7816164E-02  0.1312668E+00
        -11   -1    0    0    0    0  0.00000000000E+00  0.00000000000E+00  0.45593999997E+02  0.45594000000E+02  0.51100000000E-03 0. -1.
         11   -1    0    0    0    0 -0.00000000000E+00 -0.00000000000E+00 -0.45593999997E+02  0.45594000000E+02  0.51100000000E-03 0.  1.
    9900012    2    1    2    0    0  0.32459214956E+01  0.24972298475E+02 -0.35347866698E+02  0.47787269850E+02  0.19999994555E+02 0.  0.
         12    1    1    2    0    0 -0.32459214956E+01 -0.24972298475E+02  0.35347866698E+02  0.43400730150E+02  0.00000000000E+00 0. -1.
         11    1    3    3    0    0  0.56653549995E+00  0.20575669041E+02 -0.20721120506E+02  0.29206916205E+02  0.51100000000E-03 0. -1.
        -11    1    3    3    0    0  0.38526927552E+01  0.57954938931E+01 -0.15157702609E+02  0.16678937004E+02  0.51100000000E-03 0.  1.
         12    1    3    3    0    0 -0.11733067595E+01 -0.13988644590E+01  0.53095641726E+00  0.19014166412E+01  0.00000000000E+00 0. -1.
</event>
<event>
 7    1  0.2339217E-009  0.4778730E+02  0.7816164E-02  0.1312668E+00
        -11   -1    0    0    0    0  0.00000000000E+00  0.00000000000E+00  0.45593999997E+02  0.45594000000E+02  0.51100000000E-03 0.  1.
         11   -1    0    0    0    0 -0.00000000000E+00 -0.00000000000E+00 -0.45593999997E+02  0.45594000000E+02  0.51100000000E-03 0. -1.
    9900012    2    1    2    0    0 -0.18300377077E+02  0.38482626632E+02  0.82343219501E+01  0.47787304019E+02  0.20000150343E+02 0.  0.
         12    1    1    2    0    0  0.18300377077E+02 -0.38482626632E+02 -0.82343219501E+01  0.43400695981E+02  0.00000000000E+00 0. -1.
         11    1    3    3    0    0 -0.18693501054E+01  0.69577360991E+01  0.68826837288E+01  0.99637290716E+01  0.51100000000E-03 0.  1.
        -11    1    3    3    0    0 -0.24445752816E+01  0.10604658874E+02  0.57008128167E+01  0.12285520143E+02  0.51100000000E-03 0. -1.
         12    1    3    3    0    0 -0.13986451690E+02  0.20920231659E+02 -0.43491745953E+01  0.25538054804E+02  0.00000000000E+00 0. -1.
</event>
<event>
 7    1  0.2339217E-009  0.4778727E+02  0.7816164E-02  0.1312668E+00
        -11   -1    0    0    0    0  0.00000000000E+00  0.00000000000E+00  0.45593999997E+02  0.45594000000E+02  0.51100000000E-03 0. -1.
         11   -1    0    0    0    0 -0.00000000000E+00 -0.00000000000E+00 -0.45593999997E+02  0.45594000000E+02  0.51100000000E-03 0.  1.
    9900012    2    1    2    0    0  0.22143118869E+02 -0.29836652381E+02 -0.22429443704E+02  0.47787268630E+02  0.19999988993E+02 0.  0.
         12    1    1    2    0    0 -0.22143118869E+02  0.29836652381E+02  0.22429443704E+02  0.43400731370E+02  0.00000000000E+00 0. -1.
         11    1    3    3    0    0  0.57425207248E+01 -0.81058047151E+01 -0.15455669008E+02  0.18372760247E+02  0.51100000000E-03 0. -1.
        -11    1    3    3    0    0 -0.35529338639E+00 -0.39548166491E+01 -0.21462275391E+01  0.45136571679E+01  0.51100000000E-03 0.  1.
        -12    1    3    3    0    0  0.16755891531E+02 -0.17776031017E+02 -0.48275471569E+01  0.24900851216E+02  0.00000000000E+00 0.  1.
</event>
<event>
 7    1  0.2339217E-009  0.4778727E+02  0.7816164E-02  0.1312668E+00
        -11   -1    0    0    0    0  0.00000000000E+00  0.00000000000E+00  0.45593999997E+02  0.45594000000E+02  0.51100000000E-03 0.  1.
         11   -1    0    0    0    0 -0.00000000000E+00 -0.00000000000E+00 -0.45593999997E+02  0.45594000000E+02  0.51100000000E-03 0. -1.
    9900012    2    1    2    0    0  0.32981527043E+02  0.26161807449E+02  0.10554707336E+02  0.47787272564E+02  0.20000006927E+02 0.  0.
         12    1    1    2    0    0 -0.32981527043E+02 -0.26161807449E+02 -0.10554707336E+02  0.43400727436E+02  0.00000000000E+00 0. -1.
         11    1    3    3    0    0  0.14683426475E+02  0.93397130003E+01 -0.78174172798E+00  0.17419654772E+02  0.51100000000E-03 0. -1.
        -11    1    3    3    0    0  0.17325067754E+02  0.18582056919E+02  0.83029705092E+01  0.26728077588E+02  0.51100000000E-03 0.  1.
         12    1    3    3    0    0  0.97303281324E+00 -0.17599624705E+01  0.30334785547E+01  0.36395402038E+01  0.00000000000E+00 0. -1.
</event>
<event>
 7    1  0.2339217E-009  0.4778727E+02  0.7816164E-02  0.1312668E+00
        -11   -1    0    0    0    0  0.00000000000E+00  0.00000000000E+00  0.45593999997E+02  0.45594000000E+02  0.51100000000E-03 0.  1.
         11   -1    0    0    0    0 -0.00000000000E+00 -0.00000000000E+00 -0.45593999997E+02  0.45594000000E+02  0.51100000000E-03 0. -1.
    9900012    2    1    2    0    0  0.34290953690E+02  0.25114039598E+01  0.26484833990E+02  0.47787273205E+02  0.20000009853E+02 0.  0.
         12    1    1    2    0    0 -0.34290953690E+02 -0.25114039598E+01 -0.26484833990E+02  0.43400726795E+02  0.00000000000E+00 0. -1.
         11    1    3    3    0    0  0.10637021272E+02 -0.45652576811E+01  0.83143122319E+01  0.14251862594E+02  0.51100000000E-03 0. -1.
        -11    1    3    3    0    0  0.71551816506E+01 -0.41077544953E+01  0.55515779931E+01  0.99443597039E+01  0.51100000000E-03 0.  1.
         12    1    3    3    0    0  0.16498750768E+02  0.11184416136E+02  0.12618943765E+02  0.23591050908E+02  0.00000000000E+00 0. -1.
</event>
<event>
 7    1  0.2339217E-009  0.4778727E+02  0.7816164E-02  0.1312668E+00
        -11   -1    0    0    0    0  0.00000000000E+00  0.00000000000E+00  0.45593999997E+02  0.45594000000E+02  0.51100000000E-03 0.  1.
         11   -1    0    0    0    0 -0.00000000000E+00 -0.00000000000E+00 -0.45593999997E+02  0.45594000000E+02  0.51100000000E-03 0. -1.
    9900012    2    1    2    0    0  0.27812415978E+02 -0.52292551627E+01  0.32905127915E+02  0.47787273794E+02  0.20000012537E+02 0.  0.
         12    1    1    2    0    0 -0.27812415978E+02  0.52292551627E+01 -0.32905127915E+02  0.43400726206E+02  0.00000000000E+00 0. -1.
         11    1    3    3    0    0 -0.11027363894E+00 -0.31103584863E+01  0.42610632099E+01  0.52766608882E+01  0.51100000000E-03 0. -1.
        -11    1    3    3    0    0  0.13814891289E+02 -0.91466477826E+00  0.23821601915E+02  0.27552795703E+02  0.51100000000E-03 0.  1.
        -12    1    3    3    0    0  0.14107798327E+02 -0.12042318981E+01  0.48224627903E+01  0.14957817203E+02  0.00000000000E+00 0.  1.
</event>
<event>
 7    1  0.2339217E-009  0.4778726E+02  0.7816164E-02  0.1312668E+00
        -11   -1    0    0    0    0  0.00000000000E+00  0.00000000000E+00  0.45593999997E+02  0.45594000000E+02  0.51100000000E-03 0.  1.
         11   -1    0    0    0    0 -0.00000000000E+00 -0.00000000000E+00 -0.45593999997E+02  0.45594000000E+02  0.51100000000E-03 0. -1.
    9900012    2    1    2    0    0  0.86517962800E+01 -0.37638572208E+02  0.19801721815E+02  0.47787264020E+02  0.19999967974E+02 0.  0.
         12    1    1    2    0    0 -0.86517962800E+01  0.37638572208E+02 -0.19801721815E+02  0.43400735980E+02  0.00000000000E+00 0. -1.
         11    1    3    3    0    0  0.76013479050E+01 -0.19017069080E+02  0.13302592077E+02  0.24421063911E+02  0.51100000000E-03 0.  1.
        -11    1    3    3    0    0  0.67053960599E+01 -0.86478607244E+01  0.38351585621E+01  0.11595528142E+02  0.51100000000E-03 0. -1.
         12    1    3    3    0    0 -0.56549476849E+01 -0.99736424043E+01  0.26639711763E+01  0.11770671967E+02  0.00000000000E+00 0. -1.
</event>
<event>
 7    1  0.2339217E-009  0.4778727E+02  0.7816164E-02  0.1312668E+00
        -11   -1    0    0    0    0  0.00000000000E+00  0.00000000000E+00  0.45593999997E+02  0.45594000000E+02  0.51100000000E-03 0.  1.
         11   -1    0    0    0    0 -0.00000000000E+00 -0.00000000000E+00 -0.45593999997E+02  0.45594000000E+02  0.51100000000E-03 0. -1.
    9900012    2    1    2    0    0  0.29138184204E+02  0.18353328445E+02  0.26414859351E+02  0.47787271455E+02  0.20000001871E+02 0.  0.
         12    1    1    2    0    0 -0.29138184204E+02 -0.18353328445E+02 -0.26414859351E+02  0.43400728545E+02  0.00000000000E+00 0. -1.
         11    1    3    3    0    0  0.14189448224E+02  0.93660852799E+01  0.19018288708E+02  0.25509984320E+02  0.51100000000E-03 0. -1.
        -11    1    3    3    0    0  0.86057663913E+01  0.68301892512E+01  0.10221534255E+02  0.15006347429E+02  0.51100000000E-03 0.  1.
         12    1    3    3    0    0  0.63429695893E+01  0.21570539134E+01 -0.28249636113E+01  0.72709397056E+01  0.00000000000E+00 0. -1.
</event>
<event>
 7    1  0.2339217E-009  0.4778727E+02  0.7816164E-02  0.1312668E+00
        -11   -1    0    0    0    0  0.00000000000E+00  0.00000000000E+00  0.45593999997E+02  0.45594000000E+02  0.51100000000E-03 0.  1.
         11   -1    0    0    0    0 -0.00000000000E+00 -0.00000000000E+00 -0.45593999997E+02  0.45594000000E+02  0.51100000000E-03 0. -1.
    9900012    2    1    2    0    0 -0.12905302484E+02  0.45689295262E+01  0.41184965124E+02  0.47787270726E+02  0.19999998550E+02 0.  0.
         12    1    1    2    0    0  0.12905302484E+02 -0.45689295262E+01 -0.41184965124E+02  0.43400729274E+02  0.00000000000E+00 0. -1.
         11    1    3    3    0    0  0.33145215255E+00 -0.37197880509E+00 -0.62781463937E+00  0.80148627149E+00  0.51100000000E-03 0. -1.
        -11    1    3    3    0    0 -0.14808137291E+02  0.27705617685E+01  0.20156072937E+02  0.25163946809E+02  0.51100000000E-03 0.  1.
        -12    1    3    3    0    0  0.15713826546E+01  0.21703465627E+01  0.21656706827E+02  0.21821837646E+02  0.00000000000E+00 0.  1.
</event>
<event>
 7    1  0.2339217E-009  0.4778728E+02  0.7816164E-02  0.1312668E+00
        -11   -1    0    0    0    0  0.00000000000E+00  0.00000000000E+00  0.45593999997E+02  0.45594000000E+02  0.51100000000E-03 0. -1.
         11   -1    0    0    0    0 -0.00000000000E+00 -0.00000000000E+00 -0.45593999997E+02  0.45594000000E+02  0.51100000000E-03 0.  1.
    9900012    2    1    2    0    0 -0.29677276976E+02  0.14661254027E+02 -0.28070085364E+02  0.47787276150E+02  0.20000023278E+02 0.  0.
         12    1    1    2    0    0  0.29677276976E+02 -0.14661254027E+02  0.28070085364E+02  0.43400723850E+02  0.00000000000E+00 0. -1.
         11    1    3    3    0    0  0.20590841795E+00  0.41456955765E+01 -0.42023264787E+01  0.59066689584E+01  0.51100000000E-03 0. -1.
        -11    1    3    3    0    0 -0.93793596921E+01  0.10244360225E+02 -0.10318631426E+02  0.17302989898E+02  0.51100000000E-03 0.  1.
        -12    1    3    3    0    0 -0.20503825702E+02  0.27119822514E+00 -0.13549127459E+02  0.24577617293E+02  0.00000000000E+00 0.  1.
</event>
<event>
 7    1  0.2339217E-009  0.4778727E+02  0.7816164E-02  0.1312668E+00
        -11   -1    0    0    0    0  0.00000000000E+00  0.00000000000E+00  0.45593999997E+02  0.45594000000E+02  0.51100000000E-03 0.  1.
         11   -1    0    0    0    0 -0.00000000000E+00 -0.00000000000E+00 -0.45593999997E+02  0.45594000000E+02  0.51100000000E-03 0. -1.
    9900012    2    1    2    0    0  0.32868936416E+01  0.22577406970E+02  0.36919912925E+02  0.47787274825E+02  0.20000017239E+02 0.  0.
         12    1    1    2    0    0 -0.32868936416E+01 -0.22577406970E+02 -0.36919912925E+02  0.43400725175E+02  0.00000000000E+00 0. -1.
         11    1    3    3    0    0 -0.99860834297E+00  0.27482924349E+01  0.70633721878E+01  0.76447077678E+01  0.51100000000E-03 0.  1.
        -11    1    3    3    0    0 -0.62226323813E+01  0.91769376261E+01  0.17596229801E+02  0.20798188417E+02  0.51100000000E-03 0. -1.
         12    1    3    3    0    0  0.10508134366E+02  0.10652176909E+02  0.12260310935E+02  0.19344378641E+02  0.00000000000E+00 0. -1.
</event>
<event>
 7    1  0.2339217E-009  0.4778727E+02  0.7816164E-02  0.1312668E+00
        -11   -1    0    0    0    0  0.00000000000E+00  0.00000000000E+00  0.45593999997E+02  0.45594000000E+02  0.51100000000E-03 0. -1.
         11   -1    0    0    0    0 -0.00000000000E+00 -0.00000000000E+00 -0.45593999997E+02  0.45594000000E+02  0.51100000000E-03 0.  1.
    9900012    2    1    2    0    0  0.82550908521E+01  0.42277410068E+02 -0.53007237348E+01  0.47787267297E+02  0.19999982914E+02 0.  0.
         12    1    1    2    0    0 -0.82550908521E+01 -0.42277410068E+02  0.53007237348E+01  0.43400732703E+02  0.00000000000E+00 0. -1.
         11    1    3    3    0    0  0.71622421212E+01  0.18230447328E+02  0.18486099658E+01  0.19673949300E+02  0.51100000000E-03 0. -1.
        -11    1    3    3    0    0 -0.16008967122E+01  0.74786172448E+01  0.33120123501E+01  0.83343873348E+01  0.51100000000E-03 0.  1.
        -12    1    3    3    0    0  0.26937454431E+01  0.16568345495E+02 -0.10461346051E+02  0.19778930662E+02  0.00000000000E+00 0.  1.
</event>
<event>
 7    1  0.2339217E-009  0.4778728E+02  0.7816164E-02  0.1312668E+00
        -11   -1    0    0    0    0  0.00000000000E+00  0.00000000000E+00  0.45593999997E+02  0.45594000000E+02  0.51100000000E-03 0.  1.
         11   -1    0    0    0    0 -0.00000000000E+00 -0.00000000000E+00 -0.45593999997E+02  0.45594000000E+02  0.51100000000E-03 0. -1.
    9900012    2    1    2    0    0  0.33023644420E+02  0.22658630998E+02  0.16722676170E+02  0.47787279410E+02  0.20000038140E+02 0.  0.
         12    1    1    2    0    0 -0.33023644420E+02 -0.22658630998E+02 -0.16722676170E+02  0.43400720590E+02  0.00000000000E+00 0. -1.
         11    1    3    3    0    0  0.12473312732E+02  0.11410982666E+02  0.61495505662E+01  0.17989191987E+02  0.51100000000E-03 0. -1.
        -11    1    3    3    0    0  0.10134453000E+02  0.13813036797E+02  0.64992261141E+01  0.18323402073E+02  0.51100000000E-03 0.  1.
         12    1    3    3    0    0  0.10415878688E+02 -0.25653884659E+01  0.40738994902E+01  0.11474685350E+02  0.00000000000E+00 0. -1.
</event>
<event>
 7    1  0.2339217E-009  0.4778727E+02  0.7816164E-02  0.1312668E+00
        -11   -1    0    0    0    0  0.00000000000E+00  0.00000000000E+00  0.45593999997E+02  0.45594000000E+02  0.51100000000E-03 0.  1.
         11   -1    0    0    0    0 -0.00000000000E+00 -0.00000000000E+00 -0.45593999997E+02  0.45594000000E+02  0.51100000000E-03 0. -1.
    9900012    2    1    2    0    0 -0.23113137788E+02 -0.36679124268E+02  0.20119263142E+01  0.47787272552E+02  0.20000006875E+02 0.  0.
         12    1    1    2    0    0  0.23113137788E+02  0.36679124268E+02 -0.20119263142E+01  0.43400727448E+02  0.00000000000E+00 0. -1.
         11    1    3    3    0    0 -0.50250068373E+01 -0.11612621635E+02 -0.36981622726E+01  0.13182567254E+02  0.51100000000E-03 0. -1.
        -11    1    3    3    0    0 -0.98655608461E+01 -0.23006425496E+02  0.70882620356E+01  0.26016693946E+02  0.51100000000E-03 0.  1.
         12    1    3    3    0    0 -0.82225701048E+01 -0.20600771373E+01 -0.13781734487E+01  0.85880113527E+01  0.00000000000E+00 0. -1.
</event>
<event>
 7    1  0.2339217E-009  0.4778727E+02  0.7816164E-02  0.1312668E+00
        -11   -1    0    0    0    0  0.00000000000E+00  0.00000000000E+00  0.45593999997E+02  0.45594000000E+02  0.51100000000E-03 0. -1.
         11   -1    0    0    0    0 -0.00000000000E+00 -0.00000000000E+00 -0.45593999997E+02  0.45594000000E+02  0.51100000000E-03 0.  1.
    9900012    2    1    2    0    0  0.13778250218E+02  0.16384252713E+02 -0.37753667165E+02  0.47787270739E+02  0.19999998606E+02 0.  0.
         12    1    1    2    0    0 -0.13778250218E+02 -0.16384252713E+02  0.37753667165E+02  0.43400729261E+02  0.00000000000E+00 0. -1.
         11    1    3    3    0    0  0.97492275487E+01  0.16053991658E+00 -0.82182797607E+01  0.12751993309E+02  0.51100000000E-03 0. -1.
        -11    1    3    3    0    0  0.61584836169E+01  0.67720415316E+01 -0.14650284247E+02  0.17274787864E+02  0.51100000000E-03 0.  1.
        -12    1    3    3    0    0 -0.21294609478E+01  0.94516712649E+01 -0.14885103157E+02  0.17760489566E+02  0.00000000000E+00 0.  1.
</event>
<event>
 7    1  0.2339217E-009  0.4778727E+02  0.7816164E-02  0.1312668E+00
        -11   -1    0    0    0    0  0.00000000000E+00  0.00000000000E+00  0.45593999997E+02  0.45594000000E+02  0.51100000000E-03 0.  1.
         11   -1    0    0    0    0 -0.00000000000E+00 -0.00000000000E+00 -0.45593999997E+02  0.45594000000E+02  0.51100000000E-03 0. -1.
    9900012    2    1    2    0    0 -0.32472183006E+00 -0.27297979679E+01  0.43313575267E+02  0.47787273697E+02  0.20000012096E+02 0.  0.
         12    1    1    2    0    0  0.32472183006E+00  0.27297979679E+01 -0.43313575267E+02  0.43400726303E+02  0.00000000000E+00 0. -1.
         11    1    3    3    0    0 -0.28082865995E+01  0.20440997236E+00  0.19165108378E+01  0.34060638741E+01  0.51100000000E-03 0. -1.
        -11    1    3    3    0    0 -0.61573242742E+00 -0.90346725451E+01  0.26008728694E+02  0.27540123510E+02  0.51100000000E-03 0.  1.
         12    1    3    3    0    0  0.30992971969E+01  0.61004646049E+01  0.15388335735E+02  0.16841086313E+02  0.00000000000E+00 0. -1.
</event>
<event>
 7    1  0.2339217E-009  0.4778726E+02  0.7816164E-02  0.1312668E+00
        -11   -1    0    0    0    0  0.00000000000E+00  0.00000000000E+00  0.45593999997E+02  0.45594000000E+02  0.51100000000E-03 0.  1.
         11   -1    0    0    0    0 -0.00000000000E+00 -0.00000000000E+00 -0.45593999997E+02  0.45594000000E+02  0.51100000000E-03 0. -1.
    9900012    2    1    2    0    0  0.20003091848E+02  0.63551747678E+01  0.37988319800E+02  0.47787258405E+02  0.19999942370E+02 0.  0.
         12    1    1    2    0    0 -0.20003091848E+02 -0.63551747678E+01 -0.37988319800E+02  0.43400741595E+02  0.00000000000E+00 0. -1.
         11    1    3    3    0    0  0.74412706194E+01 -0.20443894501E+01  0.53722648571E+01  0.94028329035E+01  0.51100000000E-03 0. -1.
        -11    1    3    3    0    0  0.94007287611E+00 -0.89453244462E+00 -0.98923994590E+00  0.16317233952E+01  0.51100000000E-03 0.  1.
        -12    1    3    3    0    0  0.11621748352E+02  0.92940966626E+01  0.33605294889E+02  0.36752702106E+02  0.00000000000E+00 0.  1.
</event>
<event>
 7    1  0.2339217E-009  0.4778726E+02  0.7816164E-02  0.1312668E+00
        -11   -1    0    0    0    0  0.00000000000E+00  0.00000000000E+00  0.45593999997E+02  0.45594000000E+02  0.51100000000E-03 0.  1.
         11   -1    0    0    0    0 -0.00000000000E+00 -0.00000000000E+00 -0.45593999997E+02  0.45594000000E+02  0.51100000000E-03 0. -1.
    9900012    2    1    2    0    0  0.24796883546E+02 -0.26963780470E+02  0.23274305802E+02  0.47787260359E+02  0.19999951280E+02 0.  0.
         12    1    1    2    0    0 -0.24796883546E+02  0.26963780470E+02 -0.23274305802E+02  0.43400739641E+02  0.00000000000E+00 0. -1.
         11    1    3    3    0    0 -0.38626337916E-02 -0.14793957011E+01 -0.10329900186E+01  0.18043545106E+01  0.51100000000E-03 0. -1.
        -11    1    3    3    0    0  0.16011511687E+02 -0.25291369136E+02  0.16261107419E+02  0.34065311888E+02  0.51100000000E-03 0.  1.
        -12    1    3    3    0    0  0.87892344925E+01 -0.19301563253E+00  0.80461884017E+01  0.11917593960E+02  0.00000000000E+00 0.  1.
</event>
<event>
 7    1  0.2339217E-009  0.4778727E+02  0.7816164E-02  0.1312668E+00
        -11   -1    0    0    0    0  0.00000000000E+00  0.00000000000E+00  0.45593999997E+02  0.45594000000E+02  0.51100000000E-03 0.  1.
         11   -1    0    0    0    0 -0.00000000000E+00 -0.00000000000E+00 -0.45593999997E+02  0.45594000000E+02  0.51100000000E-03 0. -1.
    9900012    2    1    2    0    0 -0.88219139138E+01  0.38065989414E+02  0.18888551489E+02  0.47787273134E+02  0.20000009529E+02 0.  0.
         12    1    1    2    0    0  0.88219139138E+01 -0.38065989414E+02 -0.18888551489E+02  0.43400726866E+02  0.00000000000E+00 0. -1.
         11    1    3    3    0    0  0.17910903778E+01  0.26540778852E+01 -0.18000737909E+01  0.36732002499E+01  0.51100000000E-03 0. -1.
        -11    1    3    3    0    0  0.26979213391E+01  0.45405133909E+01  0.36833109364E+01  0.64390854257E+01  0.51100000000E-03 0.  1.
        -12    1    3    3    0    0 -0.13310925631E+02  0.30871398137E+02  0.17005314343E+02  0.37674987459E+02  0.00000000000E+00 0.  1.
</event>
<event>
 7    1  0.2339217E-009  0.4778727E+02  0.7816164E-02  0.1312668E+00
        -11   -1    0    0    0    0  0.00000000000E+00  0.00000000000E+00  0.45593999997E+02  0.45594000000E+02  0.51100000000E-03 0.  1.
         11   -1    0    0    0    0 -0.00000000000E+00 -0.00000000000E+00 -0.45593999997E+02  0.45594000000E+02  0.51100000000E-03 0. -1.
    9900012    2    1    2    0    0 -0.69741492221E+01 -0.11800905221E+02  0.41179161914E+02  0.47787268470E+02  0.19999988260E+02 0.  0.
         12    1    1    2    0    0  0.69741492221E+01  0.11800905221E+02 -0.41179161914E+02  0.43400731530E+02  0.00000000000E+00 0. -1.
         11    1    3    3    0    0 -0.86883891785E+00  0.32635232402E+01  0.18987141632E+01  0.38743490729E+01  0.51100000000E-03 0. -1.
        -11    1    3    3    0    0  0.92733436991E+00  0.97876259848E-01 -0.27421825126E+00  0.97196949865E+00  0.51100000000E-03 0.  1.
        -12    1    3    3    0    0 -0.70326446742E+01 -0.15162304721E+02  0.39554666003E+02  0.42940949898E+02  0.00000000000E+00 0.  1.
</event>
<event>
 7    1  0.2339217E-009  0.4778728E+02  0.7816164E-02  0.1312668E+00
        -11   -1    0    0    0    0  0.00000000000E+00  0.00000000000E+00  0.45593999997E+02  0.45594000000E+02  0.51100000000E-03 0.  1.
         11   -1    0    0    0    0 -0.00000000000E+00 -0.00000000000E+00 -0.45593999997E+02  0.45594000000E+02  0.51100000000E-03 0. -1.
    9900012    2    1    2    0    0  0.38733507201E+01  0.43132986084E+02 -0.28575420889E+01  0.47787275569E+02  0.20000020631E+02 0.  0.
         12    1    1    2    0    0 -0.38733507201E+01 -0.43132986084E+02  0.28575420889E+01  0.43400724431E+02  0.00000000000E+00 0. -1.
         11    1    3    3    0    0  0.10285394109E+01  0.20186082685E+02  0.10781238877E+01  0.20241002418E+02  0.51100000000E-03 0. -1.
        -11    1    3    3    0    0 -0.47638331360E+01  0.13420262401E+02  0.12535191211E+01  0.14295763691E+02  0.51100000000E-03 0.  1.
         12    1    3    3    0    0  0.76086444452E+01  0.95266409981E+01 -0.51891850977E+01  0.13250509461E+02  0.00000000000E+00 0. -1.
</event>
<event>
 7    1  0.2339217E-009  0.4778727E+02  0.7816164E-02  0.1312668E+00
        -11   -1    0    0    0    0  0.00000000000E+00  0.00000000000E+00  0.45593999997E+02  0.45594000000E+02  0.51100000000E-03 0.  1.
         11   -1    0    0    0    0 -0.00000000000E+00 -0.00000000000E+00 -0.45593999997E+02  0.45594000000E+02  0.51100000000E-03 0. -1.
    9900012    2    1    2    0    0 -0.35706953021E+02 -0.23922523595E+02  0.60290635078E+01  0.47787271481E+02  0.20000001993E+02 0.  0.
         12    1    1    2    0    0  0.35706953021E+02  0.23922523595E+02 -0.60290635078E+01  0.43400728519E+02  0.00000000000E+00 0. -1.
         11    1    3    3    0    0  0.91797381619E+00  0.27320155841E-01  0.26833365324E+01  0.28361448351E+01  0.51100000000E-03 0. -1.
        -11    1    3    3    0    0 -0.12441107210E+02 -0.10547048479E+02  0.55134359577E+01  0.17216833522E+02  0.51100000000E-03 0.  1.
         12    1    3    3    0    0 -0.24183819627E+02 -0.13402795272E+02 -0.21677089823E+01  0.27734293124E+02  0.00000000000E+00 0. -1.
</event>
<event>
 7    1  0.2339217E-009  0.4778728E+02  0.7816164E-02  0.1312668E+00
        -11   -1    0    0    0    0  0.00000000000E+00  0.00000000000E+00  0.45593999997E+02  0.45594000000E+02  0.51100000000E-03 0.  1.
         11   -1    0    0    0    0 -0.00000000000E+00 -0.00000000000E+00 -0.45593999997E+02  0.45594000000E+02  0.51100000000E-03 0. -1.
    9900012    2    1    2    0    0  0.26207400107E+02  0.19029683560E+02  0.28890583377E+02  0.47787280137E+02  0.20000041457E+02 0.  0.
         12    1    1    2    0    0 -0.26207400107E+02 -0.19029683560E+02 -0.28890583377E+02  0.43400719863E+02  0.00000000000E+00 0. -1.
         11    1    3    3    0    0  0.55082374768E+01 -0.25882585737E+01  0.68180070665E+00  0.61241011593E+01  0.51100000000E-03 0. -1.
        -11    1    3    3    0    0  0.11498263404E+01  0.36938728754E+01  0.56320112273E+01  0.68327408965E+01  0.51100000000E-03 0.  1.
        -12    1    3    3    0    0  0.19549336290E+02  0.17924069259E+02  0.22576771443E+02  0.34830438081E+02  0.00000000000E+00 0.  1.
</event>
<event>
 7    1  0.2339217E-009  0.4778728E+02  0.7816164E-02  0.1312668E+00
        -11   -1    0    0    0    0  0.00000000000E+00  0.00000000000E+00  0.45593999997E+02  0.45594000000E+02  0.51100000000E-03 0.  1.
         11   -1    0    0    0    0 -0.00000000000E+00 -0.00000000000E+00 -0.45593999997E+02  0.45594000000E+02  0.51100000000E-03 0. -1.
    9900012    2    1    2    0    0 -0.75778522318E+01  0.25003359128E+02  0.34655888820E+02  0.47787280628E+02  0.20000043695E+02 0.  0.
         12    1    1    2    0    0  0.75778522318E+01 -0.25003359128E+02 -0.34655888820E+02  0.43400719372E+02  0.00000000000E+00 0. -1.
         11    1    3    3    0    0  0.47817297156E+00 -0.91401616391E+00 -0.27618322365E+00  0.10678728261E+01  0.51100000000E-03 0. -1.
        -11    1    3    3    0    0 -0.14984424646E+01  0.13512310087E+02  0.66206040451E+01  0.15121516190E+02  0.51100000000E-03 0.  1.
        -12    1    3    3    0    0 -0.65575827387E+01  0.12405065205E+02  0.28311467998E+02  0.31597891612E+02  0.00000000000E+00 0.  1.
</event>
<event>
 7    1  0.2339217E-009  0.4778727E+02  0.7816164E-02  0.1312668E+00
        -11   -1    0    0    0    0  0.00000000000E+00  0.00000000000E+00  0.45593999997E+02  0.45594000000E+02  0.51100000000E-03 0. -1.
         11   -1    0    0    0    0 -0.00000000000E+00 -0.00000000000E+00 -0.45593999997E+02  0.45594000000E+02  0.51100000000E-03 0.  1.
    9900012    2    1    2    0    0 -0.33700042348E+02 -0.26436324783E+02  0.70036465122E+01  0.47787272048E+02  0.20000004575E+02 0.  0.
         12    1    1    2    0    0  0.33700042348E+02  0.26436324783E+02 -0.70036465122E+01  0.43400727952E+02  0.00000000000E+00 0. -1.
         11    1    3    3    0    0 -0.14924995331E+01 -0.47018311227E+01  0.57764069024E+01  0.75961600645E+01  0.51100000000E-03 0. -1.
        -11    1    3    3    0    0 -0.59588218023E+01 -0.21735960663E+00 -0.14760473228E+01  0.61427614662E+01  0.51100000000E-03 0.  1.
        -12    1    3    3    0    0 -0.26248721013E+02 -0.21517134054E+02  0.27032869326E+01  0.34048350517E+02  0.00000000000E+00 0.  1.
</event>
<event>
 7    1  0.2339217E-009  0.4778726E+02  0.7816164E-02  0.1312668E+00
        -11   -1    0    0    0    0  0.00000000000E+00  0.00000000000E+00  0.45593999997E+02  0.45594000000E+02  0.51100000000E-03 0.  1.
         11   -1    0    0    0    0 -0.00000000000E+00 -0.00000000000E+00 -0.45593999997E+02  0.45594000000E+02  0.51100000000E-03 0. -1.
    9900012    2    1    2    0    0 -0.39362938206E+02  0.18241761159E+02  0.11920775685E+01  0.47787264945E+02  0.19999972190E+02 0.  0.
         12    1    1    2    0    0  0.39362938206E+02 -0.18241761159E+02 -0.11920775685E+01  0.43400735055E+02  0.00000000000E+00 0. -1.
         11    1    3    3    0    0 -0.88334372894E+01  0.70502775743E+01  0.10811776719E+01  0.11353632619E+02  0.51100000000E-03 0. -1.
        -11    1    3    3    0    0 -0.20783741810E+02  0.13930622534E+02 -0.43065386451E+01  0.25388431286E+02  0.51100000000E-03 0.  1.
         12    1    3    3    0    0 -0.97457591065E+01 -0.27391389493E+01  0.44174385417E+01  0.11045201040E+02  0.00000000000E+00 0. -1.
</event>
<event>
 7    1  0.2339217E-009  0.4778727E+02  0.7816164E-02  0.1312668E+00
        -11   -1    0    0    0    0  0.00000000000E+00  0.00000000000E+00  0.45593999997E+02  0.45594000000E+02  0.51100000000E-03 0.  1.
         11   -1    0    0    0    0 -0.00000000000E+00 -0.00000000000E+00 -0.45593999997E+02  0.45594000000E+02  0.51100000000E-03 0. -1.
    9900012    2    1    2    0    0 -0.18990509289E+02  0.11468894834E+02  0.37302126974E+02  0.47787266498E+02  0.19999979270E+02 0.  0.
         12    1    1    2    0    0  0.18990509289E+02 -0.11468894834E+02 -0.37302126974E+02  0.43400733502E+02  0.00000000000E+00 0. -1.
         11    1    3    3    0    0  0.21193068998E+01  0.30743599366E+01  0.85879103829E+01  0.93645798497E+01  0.51100000000E-03 0. -1.
        -11    1    3    3    0    0 -0.42828837146E+01  0.28691169205E+01  0.15473155444E+02  0.16309306070E+02  0.51100000000E-03 0.  1.
        -12    1    3    3    0    0 -0.16826932474E+02  0.55254179767E+01  0.13241061147E+02  0.22113380578E+02  0.00000000000E+00 0.  1.
</event>
<event>
 7    1  0.2339217E-009  0.4778727E+02  0.7816164E-02  0.1312668E+00
        -11   -1    0    0    0    0  0.00000000000E+00  0.00000000000E+00  0.45593999997E+02  0.45594000000E+02  0.51100000000E-03 0. -1.
         11   -1    0    0    0    0 -0.00000000000E+00 -0.00000000000E+00 -0.45593999997E+02  0.45594000000E+02  0.51100000000E-03 0.  1.
    9900012    2    1    2    0    0 -0.38560887409E+02 -0.16618569775E+02 -0.10977449075E+02  0.47787270890E+02  0.19999999294E+02 0.  0.
         12    1    1    2    0    0  0.38560887409E+02  0.16618569775E+02  0.10977449075E+02  0.43400729110E+02  0.00000000000E+00 0. -1.
         11    1    3    3    0    0 -0.14105785180E+02  0.80695448543E+00 -0.79357659036E+01  0.16204960099E+02  0.51100000000E-03 0.  1.
        -11    1    3    3    0    0 -0.43200890399E+01 -0.27542916934E+01 -0.42254707549E+01  0.66410763741E+01  0.51100000000E-03 0. -1.
        -12    1    3    3    0    0 -0.20135013189E+02 -0.14671232567E+02  0.11837875834E+01  0.24941234416E+02  0.00000000000E+00 0.  1.
</event>
<event>
 7    1  0.2339217E-009  0.4778727E+02  0.7816164E-02  0.1312668E+00
        -11   -1    0    0    0    0  0.00000000000E+00  0.00000000000E+00  0.45593999997E+02  0.45594000000E+02  0.51100000000E-03 0. -1.
         11   -1    0    0    0    0 -0.00000000000E+00 -0.00000000000E+00 -0.45593999997E+02  0.45594000000E+02  0.51100000000E-03 0.  1.
    9900012    2    1    2    0    0  0.18556663402E+02 -0.26826878089E+02  0.28628524342E+02  0.47787267857E+02  0.19999985465E+02 0.  0.
         12    1    1    2    0    0 -0.18556663402E+02  0.26826878089E+02 -0.28628524342E+02  0.43400732143E+02  0.00000000000E+00 0. -1.
         11    1    3    3    0    0 -0.37171326932E+01 -0.30377145091E+01  0.46158161778E+01  0.66596204206E+01  0.51100000000E-03 0. -1.
        -11    1    3    3    0    0 -0.49109559612E+00 -0.12713134757E+01  0.82226068548E+00  0.15917052912E+01  0.51100000000E-03 0.  1.
        -12    1    3    3    0    0  0.22764891692E+02 -0.22517850104E+02  0.23190447478E+02  0.39535942145E+02  0.00000000000E+00 0.  1.
</event>
<event>
 7    1  0.2339217E-009  0.4778727E+02  0.7816164E-02  0.1312668E+00
        -11   -1    0    0    0    0  0.00000000000E+00  0.00000000000E+00  0.45593999997E+02  0.45594000000E+02  0.51100000000E-03 0.  1.
         11   -1    0    0    0    0 -0.00000000000E+00 -0.00000000000E+00 -0.45593999997E+02  0.45594000000E+02  0.51100000000E-03 0. -1.
    9900012    2    1    2    0    0 -0.12166137010E+02  0.41646877592E+02  0.10705187891E+01  0.47787270589E+02  0.19999997923E+02 0.  0.
         12    1    1    2    0    0  0.12166137010E+02 -0.41646877592E+02 -0.10705187891E+01  0.43400729411E+02  0.00000000000E+00 0. -1.
         11    1    3    3    0    0 -0.40291851968E+01  0.90698262638E+01 -0.29883797057E+01  0.10364675361E+02  0.51100000000E-03 0. -1.
        -11    1    3    3    0    0 -0.38437534371E+01  0.24225216022E+02 -0.42380183886E+01  0.24891692026E+02  0.51100000000E-03 0.  1.
        -12    1    3    3    0    0 -0.42931983766E+01  0.83518353063E+01  0.82969168834E+01  0.12530903202E+02  0.00000000000E+00 0.  1.
</event>
<event>
 7    1  0.2339217E-009  0.4778727E+02  0.7816164E-02  0.1312668E+00
        -11   -1    0    0    0    0  0.00000000000E+00  0.00000000000E+00  0.45593999997E+02  0.45594000000E+02  0.51100000000E-03 0.  1.
         11   -1    0    0    0    0 -0.00000000000E+00 -0.00000000000E+00 -0.45593999997E+02  0.45594000000E+02  0.51100000000E-03 0. -1.
    9900012    2    1    2    0    0  0.22467925258E+02 -0.56872515489E+01  0.36694293762E+02  0.47787266247E+02  0.19999978129E+02 0.  0.
         12    1    1    2    0    0 -0.22467925258E+02  0.56872515489E+01 -0.36694293762E+02  0.43400733753E+02  0.00000000000E+00 0. -1.
         11    1    3    3    0    0  0.39516634670E+01 -0.14686319251E+01  0.92994822407E+01  0.10210430652E+02  0.51100000000E-03 0. -1.
        -11    1    3    3    0    0  0.15753529493E+02 -0.42927696529E+01  0.83623646405E+01  0.18344773245E+02  0.51100000000E-03 0.  1.
        -12    1    3    3    0    0  0.27627322975E+01  0.74150029082E-01  0.19032446881E+02  0.19232062350E+02  0.00000000000E+00 0.  1.
</event>
<event>
 7    1  0.2339217E-009  0.4778727E+02  0.7816164E-02  0.1312668E+00
        -11   -1    0    0    0    0  0.00000000000E+00  0.00000000000E+00  0.45593999997E+02  0.45594000000E+02  0.51100000000E-03 0.  1.
         11   -1    0    0    0    0 -0.00000000000E+00 -0.00000000000E+00 -0.45593999997E+02  0.45594000000E+02  0.51100000000E-03 0. -1.
    9900012    2    1    2    0    0  0.14015598248E+02 -0.25289874404E+02  0.32366783859E+02  0.47787269143E+02  0.19999991328E+02 0.  0.
         12    1    1    2    0    0 -0.14015598248E+02  0.25289874404E+02 -0.32366783859E+02  0.43400730857E+02  0.00000000000E+00 0. -1.
         11    1    3    3    0    0 -0.41123035189E+00 -0.20842947948E+01  0.58200572624E+01  0.61956809143E+01  0.51100000000E-03 0. -1.
        -11    1    3    3    0    0  0.15734088408E+02 -0.19468603946E+02  0.27828614625E+02  0.37430199971E+02  0.51100000000E-03 0.  1.
        -12    1    3    3    0    0 -0.13072598077E+01 -0.37369756624E+01 -0.12818880291E+01  0.41613882570E+01  0.00000000000E+00 0.  1.
</event>
<event>
 7    1  0.2339217E-009  0.4778727E+02  0.7816164E-02  0.1312668E+00
        -11   -1    0    0    0    0  0.00000000000E+00  0.00000000000E+00  0.45593999997E+02  0.45594000000E+02  0.51100000000E-03 0.  1.
         11   -1    0    0    0    0 -0.00000000000E+00 -0.00000000000E+00 -0.45593999997E+02  0.45594000000E+02  0.51100000000E-03 0. -1.
    9900012    2    1    2    0    0  0.18846676481E+02 -0.18034827213E+02  0.34686758828E+02  0.47787269073E+02  0.19999991013E+02 0.  0.
         12    1    1    2    0    0 -0.18846676481E+02  0.18034827213E+02 -0.34686758828E+02  0.43400730927E+02  0.00000000000E+00 0. -1.
         11    1    3    3    0    0  0.55675322418E+01 -0.70394693826E+01  0.53488827433E+01  0.10448066391E+02  0.51100000000E-03 0. -1.
        -11    1    3    3    0    0  0.15253410703E+02 -0.56053766132E+01  0.15939593960E+02  0.22763071869E+02  0.51100000000E-03 0.  1.
         12    1    3    3    0    0 -0.19742664637E+01 -0.53899812176E+01  0.13398282125E+02  0.14576130813E+02  0.00000000000E+00 0. -1.
</event>
<event>
 7    1  0.2339217E-009  0.4778727E+02  0.7816164E-02  0.1312668E+00
        -11   -1    0    0    0    0  0.00000000000E+00  0.00000000000E+00  0.45593999997E+02  0.45594000000E+02  0.51100000000E-03 0. -1.
         11   -1    0    0    0    0 -0.00000000000E+00 -0.00000000000E+00 -0.45593999997E+02  0.45594000000E+02  0.51100000000E-03 0.  1.
    9900012    2    1    2    0    0  0.73828609787E+01 -0.16351488172E+02 -0.39518927069E+02  0.47787269610E+02  0.19999993460E+02 0.  0.
         12    1    1    2    0    0 -0.73828609787E+01  0.16351488172E+02  0.39518927069E+02  0.43400730390E+02  0.00000000000E+00 0. -1.
         11    1    3    3    0    0  0.73417647358E+01 -0.13922166870E+02 -0.25555800841E+02  0.30013783445E+02  0.51100000000E-03 0.  1.
        -11    1    3    3    0    0  0.52335914719E+01 -0.10618477241E+00 -0.77206618704E+01  0.93279351884E+01  0.51100000000E-03 0. -1.
        -12    1    3    3    0    0 -0.51924952290E+01 -0.23231365295E+01 -0.62424643574E+01  0.84455509762E+01  0.00000000000E+00 0.  1.
</event>
<event>
 7    1  0.2339217E-009  0.4778728E+02  0.7816164E-02  0.1312668E+00
        -11   -1    0    0    0    0  0.00000000000E+00  0.00000000000E+00  0.45593999997E+02  0.45594000000E+02  0.51100000000E-03 0.  1.
         11   -1    0    0    0    0 -0.00000000000E+00 -0.00000000000E+00 -0.45593999997E+02  0.45594000000E+02  0.51100000000E-03 0. -1.
    9900012    2    1    2    0    0  0.33159772286E+02 -0.20272723024E+02 -0.19314993023E+02  0.47787277053E+02  0.20000027396E+02 0.  0.
         12    1    1    2    0    0 -0.33159772286E+02  0.20272723024E+02  0.19314993023E+02  0.43400722947E+02  0.00000000000E+00 0. -1.
         11    1    3    3    0    0  0.12267042268E+01 -0.67476966747E+01 -0.48209306130E+01  0.83831727830E+01  0.51100000000E-03 0. -1.
        -11    1    3    3    0    0  0.52634150939E+01 -0.77145042714E+01 -0.40388340143E+01  0.10174934647E+02  0.51100000000E-03 0.  1.
        -12    1    3    3    0    0  0.26669652965E+02 -0.58105220777E+01 -0.10455228396E+02  0.29229169624E+02  0.00000000000E+00 0.  1.
</event>
<event>
 7    1  0.2339217E-009  0.4778727E+02  0.7816164E-02  0.1312668E+00
        -11   -1    0    0    0    0  0.00000000000E+00  0.00000000000E+00  0.45593999997E+02  0.45594000000E+02  0.51100000000E-03 0. -1.
         11   -1    0    0    0    0 -0.00000000000E+00 -0.00000000000E+00 -0.45593999997E+02  0.45594000000E+02  0.51100000000E-03 0.  1.
    9900012    2    1    2    0    0 -0.49925231787E+01  0.30848164055E+02 -0.30117919201E+02  0.47787267630E+02  0.19999984430E+02 0.  0.
         12    1    1    2    0    0  0.49925231787E+01 -0.30848164055E+02  0.30117919201E+02  0.43400732370E+02  0.00000000000E+00 0. -1.
         11    1    3    3    0    0 -0.44411194036E+01  0.98161461967E+00 -0.92585445031E+00  0.46415854557E+01  0.51100000000E-03 0. -1.
        -11    1    3    3    0    0 -0.36141213969E+01  0.13335165748E+02 -0.75631999561E+01  0.15750889271E+02  0.51100000000E-03 0.  1.
         12    1    3    3    0    0  0.30627176218E+01  0.16531383688E+02 -0.21628864795E+02  0.27394792903E+02  0.00000000000E+00 0. -1.
</event>
<event>
 7    1  0.2339217E-009  0.4778727E+02  0.7816164E-02  0.1312668E+00
        -11   -1    0    0    0    0  0.00000000000E+00  0.00000000000E+00  0.45593999997E+02  0.45594000000E+02  0.51100000000E-03 0.  1.
         11   -1    0    0    0    0 -0.00000000000E+00 -0.00000000000E+00 -0.45593999997E+02  0.45594000000E+02  0.51100000000E-03 0. -1.
    9900012    2    1    2    0    0 -0.37185995883E+02 -0.70030038263E+01  0.21255180843E+02  0.47787273450E+02  0.20000010970E+02 0.  0.
         12    1    1    2    0    0  0.37185995883E+02  0.70030038263E+01 -0.21255180843E+02  0.43400726550E+02  0.00000000000E+00 0. -1.
         11    1    3    3    0    0 -0.17075422242E+02  0.59826837798E+01  0.86507026055E+01  0.20054854918E+02  0.51100000000E-03 0. -1.
        -11    1    3    3    0    0 -0.43907309840E+01 -0.36640543569E+01  0.35214673331E+00  0.57295567444E+01  0.51100000000E-03 0.  1.
         12    1    3    3    0    0 -0.15719842656E+02 -0.93216332492E+01  0.12252331504E+02  0.22002861788E+02  0.00000000000E+00 0. -1.
</event>
<event>
 7    1  0.2339217E-009  0.4778727E+02  0.7816164E-02  0.1312668E+00
        -11   -1    0    0    0    0  0.00000000000E+00  0.00000000000E+00  0.45593999997E+02  0.45594000000E+02  0.51100000000E-03 0.  1.
         11   -1    0    0    0    0 -0.00000000000E+00 -0.00000000000E+00 -0.45593999997E+02  0.45594000000E+02  0.51100000000E-03 0. -1.
    9900012    2    1    2    0    0  0.24317170974E+02  0.21161866501E+02  0.29059834427E+02  0.47787269881E+02  0.19999994693E+02 0.  0.
         12    1    1    2    0    0 -0.24317170974E+02 -0.21161866501E+02 -0.29059834427E+02  0.43400730119E+02  0.00000000000E+00 0. -1.
         11    1    3    3    0    0  0.27356353784E+01 -0.99962286257E-01  0.96424059907E-01  0.27391588568E+01  0.51100000000E-03 0. -1.
        -11    1    3    3    0    0  0.50118258482E+00 -0.23916298780E+01  0.58322348632E+00  0.25122156262E+01  0.51100000000E-03 0.  1.
        -12    1    3    3    0    0  0.21080353010E+02  0.23653458666E+02  0.28380186881E+02  0.42535895398E+02  0.00000000000E+00 0.  1.
</event>
<event>
 7    1  0.2339217E-009  0.4778727E+02  0.7816164E-02  0.1312668E+00
        -11   -1    0    0    0    0  0.00000000000E+00  0.00000000000E+00  0.45593999997E+02  0.45594000000E+02  0.51100000000E-03 0. -1.
         11   -1    0    0    0    0 -0.00000000000E+00 -0.00000000000E+00 -0.45593999997E+02  0.45594000000E+02  0.51100000000E-03 0.  1.
    9900012    2    1    2    0    0  0.93817535157E+01  0.23462496287E+02 -0.35286222621E+02  0.47787268003E+02  0.19999986133E+02 0.  0.
         12    1    1    2    0    0 -0.93817535157E+01 -0.23462496287E+02  0.35286222621E+02  0.43400731997E+02  0.00000000000E+00 0. -1.
         11    1    3    3    0    0  0.18727353710E+00  0.12195028846E+01  0.63392633662E+00  0.13871270759E+01  0.51100000000E-03 0. -1.
        -11    1    3    3    0    0  0.53094783508E+01  0.23903839372E+02 -0.26528621937E+02  0.36101965033E+02  0.51100000000E-03 0.  1.
        -12    1    3    3    0    0  0.38850016278E+01 -0.16608459695E+01 -0.93915270201E+01  0.10298175894E+02  0.00000000000E+00 0.  1.
</event>
<event>
 7    1  0.2339217E-009  0.4778727E+02  0.7816164E-02  0.1312668E+00
        -11   -1    0    0    0    0  0.00000000000E+00  0.00000000000E+00  0.45593999997E+02  0.45594000000E+02  0.51100000000E-03 0.  1.
         11   -1    0    0    0    0 -0.00000000000E+00 -0.00000000000E+00 -0.45593999997E+02  0.45594000000E+02  0.51100000000E-03 0. -1.
    9900012    2    1    2    0    0 -0.17999077626E+02 -0.36664507261E+02  0.14675505732E+02  0.47787270092E+02  0.19999995657E+02 0.  0.
         12    1    1    2    0    0  0.17999077626E+02  0.36664507261E+02 -0.14675505732E+02  0.43400729908E+02  0.00000000000E+00 0. -1.
         11    1    3    3    0    0 -0.14738510857E+02 -0.25731915211E+02  0.10881163453E+02  0.31587258208E+02  0.51100000000E-03 0. -1.
        -11    1    3    3    0    0 -0.10999168310E+01 -0.12339730670E+02  0.49924743868E+01  0.13356779956E+02  0.51100000000E-03 0.  1.
         12    1    3    3    0    0 -0.21606499376E+01  0.14071386196E+01 -0.11981321082E+01  0.28432319280E+01  0.00000000000E+00 0. -1.
</event>
<event>
 7    1  0.2339217E-009  0.4778726E+02  0.7816164E-02  0.1312668E+00
        -11   -1    0    0    0    0  0.00000000000E+00  0.00000000000E+00  0.45593999997E+02  0.45594000000E+02  0.51100000000E-03 0. -1.
         11   -1    0    0    0    0 -0.00000000000E+00 -0.00000000000E+00 -0.45593999997E+02  0.45594000000E+02  0.51100000000E-03 0.  1.
    9900012    2    1    2    0    0  0.38153323882E+02  0.98151177382E+01 -0.18210203135E+02  0.47787260863E+02  0.19999953579E+02 0.  0.
         12    1    1    2    0    0 -0.38153323882E+02 -0.98151177382E+01  0.18210203135E+02  0.43400739137E+02  0.00000000000E+00 0. -1.
         11    1    3    3    0    0  0.53663609410E+01  0.56253396452E+01 -0.24158711459E+01  0.81411737193E+01  0.51100000000E-03 0. -1.
        -11    1    3    3    0    0  0.18092387418E+02  0.90655130424E+01 -0.52255168855E+01  0.20900335791E+02  0.51100000000E-03 0.  1.
        -12    1    3    3    0    0  0.14694575522E+02 -0.48757349494E+01 -0.10568815103E+02  0.18745751352E+02  0.00000000000E+00 0.  1.
</event>
<event>
 7    1  0.2339217E-009  0.4778726E+02  0.7816164E-02  0.1312668E+00
        -11   -1    0    0    0    0  0.00000000000E+00  0.00000000000E+00  0.45593999997E+02  0.45594000000E+02  0.51100000000E-03 0.  1.
         11   -1    0    0    0    0 -0.00000000000E+00 -0.00000000000E+00 -0.45593999997E+02  0.45594000000E+02  0.51100000000E-03 0. -1.
    9900012    2    1    2    0    0 -0.28833824845E+02 -0.31196067647E+02  0.88904350792E+01  0.47787263511E+02  0.19999965654E+02 0.  0.
         12    1    1    2    0    0  0.28833824845E+02  0.31196067647E+02 -0.88904350792E+01  0.43400736489E+02  0.00000000000E+00 0. -1.
         11    1    3    3    0    0 -0.14722395055E+02 -0.16152258976E+02  0.16987364618E+01  0.21920996602E+02  0.51100000000E-03 0.  1.
        -11    1    3    3    0    0 -0.11844028444E+02 -0.12172801350E+02 -0.87726718739E+00  0.17006695754E+02  0.51100000000E-03 0. -1.
        -12    1    3    3    0    0 -0.22674013462E+01 -0.28710073211E+01  0.80689658048E+01  0.88595711556E+01  0.00000000000E+00 0.  1.
</event>
<event>
 7    1  0.2339217E-009  0.4778727E+02  0.7816164E-02  0.1312668E+00
        -11   -1    0    0    0    0  0.00000000000E+00  0.00000000000E+00  0.45593999997E+02  0.45594000000E+02  0.51100000000E-03 0. -1.
         11   -1    0    0    0    0 -0.00000000000E+00 -0.00000000000E+00 -0.45593999997E+02  0.45594000000E+02  0.51100000000E-03 0.  1.
    9900012    2    1    2    0    0  0.57685994479E+01  0.39113202526E+02 -0.17902632352E+02  0.47787267327E+02  0.19999983050E+02 0.  0.
         12    1    1    2    0    0 -0.57685994479E+01 -0.39113202526E+02  0.17902632352E+02  0.43400732673E+02  0.00000000000E+00 0. -1.
         11    1    3    3    0    0  0.24899551155E+01  0.12432996294E+02 -0.49044820564E+01  0.13595338092E+02  0.51100000000E-03 0.  1.
        -11    1    3    3    0    0  0.74916190954E+01  0.11804677745E+02 -0.12450898002E+02  0.18721635469E+02  0.51100000000E-03 0. -1.
         12    1    3    3    0    0 -0.42129747629E+01  0.14875528487E+02 -0.54725229349E+00  0.15470293766E+02  0.00000000000E+00 0. -1.
</event>
<event>
 7    1  0.2339217E-009  0.4778727E+02  0.7816164E-02  0.1312668E+00
        -11   -1    0    0    0    0  0.00000000000E+00  0.00000000000E+00  0.45593999997E+02  0.45594000000E+02  0.51100000000E-03 0.  1.
         11   -1    0    0    0    0 -0.00000000000E+00 -0.00000000000E+00 -0.45593999997E+02  0.45594000000E+02  0.51100000000E-03 0. -1.
    9900012    2    1    2    0    0  0.20862568612E+02 -0.36478807864E+02  0.10847729092E+02  0.47787269376E+02  0.19999992394E+02 0.  0.
         12    1    1    2    0    0 -0.20862568612E+02  0.36478807864E+02 -0.10847729092E+02  0.43400730624E+02  0.00000000000E+00 0. -1.
         11    1    3    3    0    0 -0.62548786504E+00 -0.53306517679E+01 -0.32880920608E+01  0.62943334040E+01  0.51100000000E-03 0. -1.
        -11    1    3    3    0    0  0.14059984666E+01  0.15875369560E-01  0.20747595245E+01  0.25063341878E+01  0.51100000000E-03 0.  1.
        -12    1    3    3    0    0  0.20082058010E+02 -0.31164031465E+02  0.12061061628E+02  0.38986601784E+02  0.00000000000E+00 0.  1.
</event>
<event>
 7    1  0.2339217E-009  0.4778727E+02  0.7816164E-02  0.1312668E+00
        -11   -1    0    0    0    0  0.00000000000E+00  0.00000000000E+00  0.45593999997E+02  0.45594000000E+02  0.51100000000E-03 0. -1.
         11   -1    0    0    0    0 -0.00000000000E+00 -0.00000000000E+00 -0.45593999997E+02  0.45594000000E+02  0.51100000000E-03 0.  1.
    9900012    2    1    2    0    0  0.76793631587E+01  0.96774099257E+01 -0.41605268381E+02  0.47787271453E+02  0.20000001861E+02 0.  0.
         12    1    1    2    0    0 -0.76793631587E+01 -0.96774099257E+01  0.41605268381E+02  0.43400728547E+02  0.00000000000E+00 0. -1.
         11    1    3    3    0    0  0.26873236244E+01 -0.21473371505E+01 -0.15855666624E+02  0.16224516309E+02  0.51100000000E-03 0. -1.
        -11    1    3    3    0    0 -0.71901931014E+00  0.52240564596E+00  0.13695821621E+01  0.16326824514E+01  0.51100000000E-03 0.  1.
        -12    1    3    3    0    0  0.57110588445E+01  0.11302341430E+02 -0.27119183919E+02  0.29930072692E+02  0.00000000000E+00 0.  1.
</event>
<event>
 7    1  0.2339217E-009  0.4778727E+02  0.7816164E-02  0.1312668E+00
        -11   -1    0    0    0    0  0.00000000000E+00  0.00000000000E+00  0.45593999997E+02  0.45594000000E+02  0.51100000000E-03 0. -1.
         11   -1    0    0    0    0 -0.00000000000E+00 -0.00000000000E+00 -0.45593999997E+02  0.45594000000E+02  0.51100000000E-03 0.  1.
    9900012    2    1    2    0    0 -0.18460614855E+02  0.27097765854E+02 -0.28434838655E+02  0.47787271153E+02  0.20000000495E+02 0.  0.
         12    1    1    2    0    0  0.18460614855E+02 -0.27097765854E+02  0.28434838655E+02  0.43400728847E+02  0.00000000000E+00 0. -1.
         11    1    3    3    0    0 -0.89057878101E+01  0.17866786635E+02 -0.25229596009E+02  0.32172467052E+02  0.51100000000E-03 0. -1.
        -11    1    3    3    0    0 -0.59032279779E+01  0.71750493915E+01 -0.55400836465E+01  0.10817668945E+02  0.51100000000E-03 0.  1.
         12    1    3    3    0    0 -0.36515990673E+01  0.20559298272E+01  0.23348410006E+01  0.47971351556E+01  0.00000000000E+00 0. -1.
</event>
<event>
 7    1  0.2339217E-009  0.4778728E+02  0.7816164E-02  0.1312668E+00
        -11   -1    0    0    0    0  0.00000000000E+00  0.00000000000E+00  0.45593999997E+02  0.45594000000E+02  0.51100000000E-03 0.  1.
         11   -1    0    0    0    0 -0.00000000000E+00 -0.00000000000E+00 -0.45593999997E+02  0.45594000000E+02  0.51100000000E-03 0. -1.
    9900012    2    1    2    0    0  0.16713184807E+02 -0.12208944136E+02  0.38147522886E+02  0.47787281508E+02  0.20000047708E+02 0.  0.
         12    1    1    2    0    0 -0.16713184807E+02  0.12208944136E+02 -0.38147522886E+02  0.43400718492E+02  0.00000000000E+00 0. -1.
         11    1    3    3    0    0  0.21562620082E+01 -0.18474632144E+00  0.78101937026E+01  0.81044878299E+01  0.51100000000E-03 0.  1.
        -11    1    3    3    0    0  0.64372407866E+01 -0.17069118433E+01  0.24365533365E+02  0.25259272226E+02  0.51100000000E-03 0. -1.
         12    1    3    3    0    0  0.81196820124E+01 -0.10317285971E+02  0.59717958182E+01  0.14423521452E+02  0.00000000000E+00 0. -1.
</event>
<event>
 7    1  0.2339217E-009  0.4778727E+02  0.7816164E-02  0.1312668E+00
        -11   -1    0    0    0    0  0.00000000000E+00  0.00000000000E+00  0.45593999997E+02  0.45594000000E+02  0.51100000000E-03 0.  1.
         11   -1    0    0    0    0 -0.00000000000E+00 -0.00000000000E+00 -0.45593999997E+02  0.45594000000E+02  0.51100000000E-03 0. -1.
    9900012    2    1    2    0    0  0.28509015141E+02  0.23206008903E+02  0.23072503829E+02  0.47787271591E+02  0.20000002494E+02 0.  0.
         12    1    1    2    0    0 -0.28509015141E+02 -0.23206008903E+02 -0.23072503829E+02  0.43400728409E+02  0.00000000000E+00 0. -1.
         11    1    3    3    0    0  0.81849079058E+01 -0.14833742750E+00  0.53772750133E+01  0.97943763583E+01  0.51100000000E-03 0. -1.
        -11    1    3    3    0    0  0.10833544670E+01 -0.75988727169E+00  0.40490696163E+01  0.42598181400E+01  0.51100000000E-03 0.  1.
        -12    1    3    3    0    0  0.19240752768E+02  0.24114233602E+02  0.13646159199E+02  0.33733077093E+02  0.00000000000E+00 0.  1.
</event>
<event>
 7    1  0.2339217E-009  0.4778727E+02  0.7816164E-02  0.1312668E+00
        -11   -1    0    0    0    0  0.00000000000E+00  0.00000000000E+00  0.45593999997E+02  0.45594000000E+02  0.51100000000E-03 0.  1.
         11   -1    0    0    0    0 -0.00000000000E+00 -0.00000000000E+00 -0.45593999997E+02  0.45594000000E+02  0.51100000000E-03 0. -1.
    9900012    2    1    2    0    0 -0.26164921883E+02  0.55545782307E+01  0.34178455818E+02  0.47787270530E+02  0.19999997652E+02 0.  0.
         12    1    1    2    0    0  0.26164921883E+02 -0.55545782307E+01 -0.34178455818E+02  0.43400729470E+02  0.00000000000E+00 0. -1.
         11    1    3    3    0    0 -0.79933440518E+01 -0.33814777729E+01  0.69336604022E+01  0.11108716753E+02  0.51100000000E-03 0. -1.
        -11    1    3    3    0    0 -0.94914476723E+01 -0.26277328759E+01  0.13650546960E+02  0.16832408965E+02  0.51100000000E-03 0.  1.
         12    1    3    3    0    0 -0.86801301588E+01  0.11563788880E+02  0.13594248456E+02  0.19846144812E+02  0.00000000000E+00 0. -1.
</event>
<event>
 7    1  0.2339217E-009  0.4778727E+02  0.7816164E-02  0.1312668E+00
        -11   -1    0    0    0    0  0.00000000000E+00  0.00000000000E+00  0.45593999997E+02  0.45594000000E+02  0.51100000000E-03 0. -1.
         11   -1    0    0    0    0 -0.00000000000E+00 -0.00000000000E+00 -0.45593999997E+02  0.45594000000E+02  0.51100000000E-03 0.  1.
    9900012    2    1    2    0    0  0.10446215227E+02 -0.23203405274E+02 -0.35158238292E+02  0.47787272486E+02  0.20000006574E+02 0.  0.
         12    1    1    2    0    0 -0.10446215227E+02  0.23203405274E+02  0.35158238292E+02  0.43400727514E+02  0.00000000000E+00 0. -1.
         11    1    3    3    0    0 -0.11013960168E+01 -0.61386842337E+01 -0.64829068189E+01  0.89958100464E+01  0.51100000000E-03 0. -1.
        -11    1    3    3    0    0  0.47313078380E+01  0.22038159173E+01 -0.31678013413E+01  0.61054929411E+01  0.51100000000E-03 0.  1.
        -12    1    3    3    0    0  0.68163034060E+01 -0.19268536958E+02 -0.25507530132E+02  0.32685969499E+02  0.00000000000E+00 0.  1.
</event>
<event>
 7    1  0.2339217E-009  0.4778728E+02  0.7816164E-02  0.1312668E+00
        -11   -1    0    0    0    0  0.00000000000E+00  0.00000000000E+00  0.45593999997E+02  0.45594000000E+02  0.51100000000E-03 0. -1.
         11   -1    0    0    0    0 -0.00000000000E+00 -0.00000000000E+00 -0.45593999997E+02  0.45594000000E+02  0.51100000000E-03 0.  1.
    9900012    2    1    2    0    0 -0.86476543260E+01  0.23124563625E+02 -0.35694470970E+02  0.47787278508E+02  0.20000034030E+02 0.  0.
         12    1    1    2    0    0  0.86476543260E+01 -0.23124563625E+02  0.35694470970E+02  0.43400721492E+02  0.00000000000E+00 0. -1.
         11    1    3    3    0    0 -0.89899100743E+01  0.88720168722E+01 -0.68617825593E+01  0.14374116553E+02  0.51100000000E-03 0. -1.
        -11    1    3    3    0    0  0.16535624218E+00  0.57017115301E+01 -0.35393658055E+01  0.67129701046E+01  0.51100000000E-03 0.  1.
        -12    1    3    3    0    0  0.17689950611E+00  0.85508352228E+01 -0.25293322605E+02  0.26700191851E+02  0.00000000000E+00 0.  1.
</event>
<event>
 7    1  0.2339217E-009  0.4778727E+02  0.7816164E-02  0.1312668E+00
        -11   -1    0    0    0    0  0.00000000000E+00  0.00000000000E+00  0.45593999997E+02  0.45594000000E+02  0.51100000000E-03 0.  1.
         11   -1    0    0    0    0 -0.00000000000E+00 -0.00000000000E+00 -0.45593999997E+02  0.45594000000E+02  0.51100000000E-03 0. -1.
    9900012    2    1    2    0    0  0.36173266004E+02 -0.85083841492E+01  0.22421548356E+02  0.47787267231E+02  0.19999982611E+02 0.  0.
         12    1    1    2    0    0 -0.36173266004E+02  0.85083841492E+01 -0.22421548356E+02  0.43400732769E+02  0.00000000000E+00 0. -1.
         11    1    3    3    0    0  0.43204264848E+01 -0.27883242520E+01  0.22657988398E+01  0.56191353239E+01  0.51100000000E-03 0. -1.
        -11    1    3    3    0    0  0.19083821178E+02  0.51616902028E+01  0.74646834285E+01  0.21131890011E+02  0.51100000000E-03 0.  1.
        -12    1    3    3    0    0  0.12769018342E+02 -0.10881750100E+02  0.12691066087E+02  0.21036241895E+02  0.00000000000E+00 0.  1.
</event>
<event>
 7    1  0.2339217E-009  0.4778727E+02  0.7816164E-02  0.1312668E+00
        -11   -1    0    0    0    0  0.00000000000E+00  0.00000000000E+00  0.45593999997E+02  0.45594000000E+02  0.51100000000E-03 0. -1.
         11   -1    0    0    0    0 -0.00000000000E+00 -0.00000000000E+00 -0.45593999997E+02  0.45594000000E+02  0.51100000000E-03 0.  1.
    9900012    2    1    2    0    0 -0.19616378068E+02  0.12585829024E+02 -0.36611716172E+02  0.47787272566E+02  0.20000006938E+02 0.  0.
         12    1    1    2    0    0  0.19616378068E+02 -0.12585829024E+02  0.36611716172E+02  0.43400727434E+02  0.00000000000E+00 0. -1.
         11    1    3    3    0    0 -0.11814546302E+02 -0.61377206810E+00 -0.15938785310E+02  0.19849561655E+02  0.51100000000E-03 0. -1.
        -11    1    3    3    0    0 -0.91519623282E+00  0.72539607786E+00 -0.10168453662E+02  0.10235293535E+02  0.51100000000E-03 0.  1.
         12    1    3    3    0    0 -0.68866355332E+01  0.12474205014E+02 -0.10504477200E+02  0.17702417376E+02  0.00000000000E+00 0. -1.
</event>
<event>
 7    1  0.2339217E-009  0.4778727E+02  0.7816164E-02  0.1312668E+00
        -11   -1    0    0    0    0  0.00000000000E+00  0.00000000000E+00  0.45593999997E+02  0.45594000000E+02  0.51100000000E-03 0. -1.
         11   -1    0    0    0    0 -0.00000000000E+00 -0.00000000000E+00 -0.45593999997E+02  0.45594000000E+02  0.51100000000E-03 0.  1.
    9900012    2    1    2    0    0  0.38345486110E+02  0.13653701840E+02 -0.15060661236E+02  0.47787269640E+02  0.19999993595E+02 0.  0.
         12    1    1    2    0    0 -0.38345486110E+02 -0.13653701840E+02  0.15060661236E+02  0.43400730360E+02  0.00000000000E+00 0. -1.
         11    1    3    3    0    0  0.99928159587E+01  0.10248887059E+02 -0.40865953493E+01  0.14886111599E+02  0.51100000000E-03 0. -1.
        -11    1    3    3    0    0  0.88327885640E+01  0.47066365835E+01 -0.85972422227E+01  0.13194057596E+02  0.51100000000E-03 0.  1.
         12    1    3    3    0    0  0.19519881588E+02 -0.13018218031E+01 -0.23768236637E+01  0.19707100444E+02  0.00000000000E+00 0. -1.
</event>
<event>
 7    1  0.2339217E-009  0.4778727E+02  0.7816164E-02  0.1312668E+00
        -11   -1    0    0    0    0  0.00000000000E+00  0.00000000000E+00  0.45593999997E+02  0.45594000000E+02  0.51100000000E-03 0.  1.
         11   -1    0    0    0    0 -0.00000000000E+00 -0.00000000000E+00 -0.45593999997E+02  0.45594000000E+02  0.51100000000E-03 0. -1.
    9900012    2    1    2    0    0 -0.22573301212E+02  0.97180544558E+01  0.35771897783E+02  0.47787272114E+02  0.20000004879E+02 0.  0.
         12    1    1    2    0    0  0.22573301212E+02 -0.97180544558E+01 -0.35771897783E+02  0.43400727886E+02  0.00000000000E+00 0. -1.
         11    1    3    3    0    0 -0.56955018363E+01  0.20846572791E+01  0.91010653216E+01  0.10936815231E+02  0.51100000000E-03 0. -1.
        -11    1    3    3    0    0 -0.16679534258E+02  0.61509269796E+01  0.29039566861E+02  0.34049041242E+02  0.51100000000E-03 0.  1.
         12    1    3    3    0    0 -0.19826511708E+00  0.14824701971E+01 -0.23687343995E+01  0.28014156417E+01  0.00000000000E+00 0. -1.
</event>
<event>
 7    1  0.2339217E-009  0.4778727E+02  0.7816164E-02  0.1312668E+00
        -11   -1    0    0    0    0  0.00000000000E+00  0.00000000000E+00  0.45593999997E+02  0.45594000000E+02  0.51100000000E-03 0.  1.
         11   -1    0    0    0    0 -0.00000000000E+00 -0.00000000000E+00 -0.45593999997E+02  0.45594000000E+02  0.51100000000E-03 0. -1.
    9900012    2    1    2    0    0 -0.36808043918E+02 -0.24217825143E+01  0.22867577167E+02  0.47787271745E+02  0.20000003192E+02 0.  0.
         12    1    1    2    0    0  0.36808043918E+02  0.24217825143E+01 -0.22867577167E+02  0.43400728255E+02  0.00000000000E+00 0. -1.
         11    1    3    3    0    0 -0.36062354387E+01 -0.41940703802E+01 -0.56621211686E+00  0.55601939549E+01  0.51100000000E-03 0. -1.
        -11    1    3    3    0    0 -0.16994627925E+02 -0.34166697514E+01  0.74075900491E+01  0.18851084879E+02  0.51100000000E-03 0.  1.
        -12    1    3    3    0    0 -0.16207180554E+02  0.51889576173E+01  0.16026199234E+02  0.23375992911E+02  0.00000000000E+00 0.  1.
</event>
<event>
 7    1  0.2339217E-009  0.4778727E+02  0.7816164E-02  0.1312668E+00
        -11   -1    0    0    0    0  0.00000000000E+00  0.00000000000E+00  0.45593999997E+02  0.45594000000E+02  0.51100000000E-03 0.  1.
         11   -1    0    0    0    0 -0.00000000000E+00 -0.00000000000E+00 -0.45593999997E+02  0.45594000000E+02  0.51100000000E-03 0. -1.
    9900012    2    1    2    0    0 -0.15833712036E+02  0.27079448641E+02  0.29993668697E+02  0.47787272616E+02  0.20000007166E+02 0.  0.
         12    1    1    2    0    0  0.15833712036E+02 -0.27079448641E+02 -0.29993668697E+02  0.43400727384E+02  0.00000000000E+00 0. -1.
         11    1    3    3    0    0 -0.14778531467E+01  0.15406561401E+02  0.19767184637E+02  0.25105532715E+02  0.51100000000E-03 0. -1.
        -11    1    3    3    0    0 -0.88928426364E+00 -0.11538136776E+01  0.16521948139E+01  0.22026939117E+01  0.51100000000E-03 0.  1.
         12    1    3    3    0    0 -0.13466574626E+02  0.12826700918E+02  0.85742892455E+01  0.20479045990E+02  0.00000000000E+00 0. -1.
</event>
<event>
 7    1  0.2339217E-009  0.4778727E+02  0.7816164E-02  0.1312668E+00
        -11   -1    0    0    0    0  0.00000000000E+00  0.00000000000E+00  0.45593999997E+02  0.45594000000E+02  0.51100000000E-03 0. -1.
         11   -1    0    0    0    0 -0.00000000000E+00 -0.00000000000E+00 -0.45593999997E+02  0.45594000000E+02  0.51100000000E-03 0.  1.
    9900012    2    1    2    0    0 -0.11623165469E+00  0.30134605166E+02 -0.31233243327E+02  0.47787269280E+02  0.19999991955E+02 0.  0.
         12    1    1    2    0    0  0.11623165469E+00 -0.30134605166E+02  0.31233243327E+02  0.43400730720E+02  0.00000000000E+00 0. -1.
         11    1    3    3    0    0 -0.20913956559E+01  0.52747854199E+01 -0.28777045854E+01  0.63622701104E+01  0.51100000000E-03 0. -1.
        -11    1    3    3    0    0 -0.65109004672E+01  0.80671853442E+01 -0.15463186456E+02  0.18616697879E+02  0.51100000000E-03 0.  1.
         12    1    3    3    0    0  0.84860644684E+01  0.16792634402E+02 -0.12892352285E+02  0.22808301291E+02  0.00000000000E+00 0. -1.
</event>
<event>
 7    1  0.2339217E-009  0.4778727E+02  0.7816164E-02  0.1312668E+00
        -11   -1    0    0    0    0  0.00000000000E+00  0.00000000000E+00  0.45593999997E+02  0.45594000000E+02  0.51100000000E-03 0.  1.
         11   -1    0    0    0    0 -0.00000000000E+00 -0.00000000000E+00 -0.45593999997E+02  0.45594000000E+02  0.51100000000E-03 0. -1.
    9900012    2    1    2    0    0 -0.33348076688E+02 -0.96415520962E+01  0.26049370036E+02  0.47787269305E+02  0.19999992069E+02 0.  0.
         12    1    1    2    0    0  0.33348076688E+02  0.96415520962E+01 -0.26049370036E+02  0.43400730695E+02  0.00000000000E+00 0. -1.
         11    1    3    3    0    0 -0.12744858110E+02  0.12901987499E+01  0.25777704714E+01  0.13066786978E+02  0.51100000000E-03 0. -1.
        -11    1    3    3    0    0 -0.36975647023E+01  0.13879282389E+01  0.72253919952E+01  0.82343560325E+01  0.51100000000E-03 0.  1.
        -12    1    3    3    0    0 -0.16905653875E+02 -0.12319679085E+02  0.16246207570E+02  0.26486126295E+02  0.00000000000E+00 0.  1.
</event>
<event>
 7    1  0.2339217E-009  0.4778727E+02  0.7816164E-02  0.1312668E+00
        -11   -1    0    0    0    0  0.00000000000E+00  0.00000000000E+00  0.45593999997E+02  0.45594000000E+02  0.51100000000E-03 0. -1.
         11   -1    0    0    0    0 -0.00000000000E+00 -0.00000000000E+00 -0.45593999997E+02  0.45594000000E+02  0.51100000000E-03 0.  1.
    9900012    2    1    2    0    0 -0.70066178978E+01 -0.15850762079E+02 -0.39790506129E+02  0.47787265780E+02  0.19999975996E+02 0.  0.
         12    1    1    2    0    0  0.70066178978E+01  0.15850762079E+02  0.39790506129E+02  0.43400734220E+02  0.00000000000E+00 0. -1.
         11    1    3    3    0    0 -0.38252762364E+01 -0.90226074329E+01 -0.23154098029E+02  0.25142641846E+02  0.51100000000E-03 0. -1.
        -11    1    3    3    0    0 -0.53158405496E+01 -0.99699978377E+01 -0.14138646529E+02  0.18098628223E+02  0.51100000000E-03 0.  1.
         12    1    3    3    0    0  0.21344988881E+01  0.31418431911E+01 -0.24977615709E+01  0.45459957112E+01  0.00000000000E+00 0. -1.
</event>
<event>
 7    1  0.2339217E-009  0.4778727E+02  0.7816164E-02  0.1312668E+00
        -11   -1    0    0    0    0  0.00000000000E+00  0.00000000000E+00  0.45593999997E+02  0.45594000000E+02  0.51100000000E-03 0.  1.
         11   -1    0    0    0    0 -0.00000000000E+00 -0.00000000000E+00 -0.45593999997E+02  0.45594000000E+02  0.51100000000E-03 0. -1.
    9900012    2    1    2    0    0  0.11293290880E+02  0.50549791000E+01  0.41599664676E+02  0.47787270355E+02  0.19999996854E+02 0.  0.
         12    1    1    2    0    0 -0.11293290880E+02 -0.50549791000E+01 -0.41599664676E+02  0.43400729645E+02  0.00000000000E+00 0. -1.
         11    1    3    3    0    0  0.38086115874E+01 -0.24612996479E+01  0.18766417968E+01  0.49076779514E+01  0.51100000000E-03 0. -1.
        -11    1    3    3    0    0  0.30149159069E+00 -0.31988414999E+01  0.90904440872E+01  0.96415589032E+01  0.51100000000E-03 0.  1.
        -12    1    3    3    0    0  0.71831877019E+01  0.10715120248E+02  0.30632578792E+02  0.33238033500E+02  0.00000000000E+00 0.  1.
</event>
<event>
 7    1  0.2339217E-009  0.4778726E+02  0.7816164E-02  0.1312668E+00
        -11   -1    0    0    0    0  0.00000000000E+00  0.00000000000E+00  0.45593999997E+02  0.45594000000E+02  0.51100000000E-03 0. -1.
         11   -1    0    0    0    0 -0.00000000000E+00 -0.00000000000E+00 -0.45593999997E+02  0.45594000000E+02  0.51100000000E-03 0.  1.
    9900012    2    1    2    0    0  0.21224243501E+02 -0.17821692194E+02 -0.33399746043E+02  0.47787259677E+02  0.19999948170E+02 0.  0.
         12    1    1    2    0    0 -0.21224243501E+02  0.17821692194E+02  0.33399746043E+02  0.43400740323E+02  0.00000000000E+00 0. -1.
         11    1    3    3    0    0 -0.17168073215E+01 -0.16259731580E+00  0.55324224894E-02  0.17244988069E+01  0.51100000000E-03 0. -1.
        -11    1    3    3    0    0  0.27498655588E+01  0.51595282348E+00 -0.94079504831E+01  0.98151668585E+01  0.51100000000E-03 0.  1.
         12    1    3    3    0    0  0.20191185264E+02 -0.18175047701E+02 -0.23997327983E+02  0.36247594011E+02  0.00000000000E+00 0. -1.
</event>
<event>
 7    1  0.2339217E-009  0.4778727E+02  0.7816164E-02  0.1312668E+00
        -11   -1    0    0    0    0  0.00000000000E+00  0.00000000000E+00  0.45593999997E+02  0.45594000000E+02  0.51100000000E-03 0.  1.
         11   -1    0    0    0    0 -0.00000000000E+00 -0.00000000000E+00 -0.45593999997E+02  0.45594000000E+02  0.51100000000E-03 0. -1.
    9900012    2    1    2    0    0 -0.17441694848E+02 -0.26036107515E+02  0.30025517641E+02  0.47787270475E+02  0.19999997403E+02 0.  0.
         12    1    1    2    0    0  0.17441694848E+02  0.26036107515E+02 -0.30025517641E+02  0.43400729525E+02  0.00000000000E+00 0. -1.
         11    1    3    3    0    0  0.24332531624E+01 -0.18600003888E+00  0.52060861871E+01  0.57496652612E+01  0.51100000000E-03 0. -1.
        -11    1    3    3    0    0 -0.31636492398E+01 -0.11386705506E+02  0.91258775252E+01  0.14931422560E+02  0.51100000000E-03 0.  1.
         12    1    3    3    0    0 -0.16711298771E+02 -0.14463401970E+02  0.15693553928E+02  0.27106182654E+02  0.00000000000E+00 0. -1.
</event>
<event>
 7    1  0.2339217E-009  0.4778727E+02  0.7816164E-02  0.1312668E+00
        -11   -1    0    0    0    0  0.00000000000E+00  0.00000000000E+00  0.45593999997E+02  0.45594000000E+02  0.51100000000E-03 0.  1.
         11   -1    0    0    0    0 -0.00000000000E+00 -0.00000000000E+00 -0.45593999997E+02  0.45594000000E+02  0.51100000000E-03 0. -1.
    9900012    2    1    2    0    0  0.29484233910E+02  0.26938981051E+02  0.16988065710E+02  0.47787272749E+02  0.20000007774E+02 0.  0.
         12    1    1    2    0    0 -0.29484233910E+02 -0.26938981051E+02 -0.16988065710E+02  0.43400727251E+02  0.00000000000E+00 0. -1.
         11    1    3    3    0    0  0.97118940988E+00 -0.94990105488E+00  0.40523198144E+01  0.42739697031E+01  0.51100000000E-03 0. -1.
        -11    1    3    3    0    0  0.27370235677E+02  0.22702107730E+02  0.84233514837E+01  0.36544060350E+02  0.51100000000E-03 0.  1.
         12    1    3    3    0    0  0.11428088234E+01  0.51867743756E+01  0.45123944119E+01  0.69692426963E+01  0.00000000000E+00 0. -1.
</event>
<event>
 7    1  0.2339217E-009  0.4778727E+02  0.7816164E-02  0.1312668E+00
        -11   -1    0    0    0    0  0.00000000000E+00  0.00000000000E+00  0.45593999997E+02  0.45594000000E+02  0.51100000000E-03 0.  1.
         11   -1    0    0    0    0 -0.00000000000E+00 -0.00000000000E+00 -0.45593999997E+02  0.45594000000E+02  0.51100000000E-03 0. -1.
    9900012    2    1    2    0    0 -0.32793313360E+02  0.28386159140E+02  0.15646519431E+01  0.47787267661E+02  0.19999984574E+02 0.  0.
         12    1    1    2    0    0  0.32793313360E+02 -0.28386159140E+02 -0.15646519431E+01  0.43400732339E+02  0.00000000000E+00 0. -1.
         11    1    3    3    0    0 -0.97899815185E+01  0.56625011626E+01 -0.39921155833E+01  0.11993525113E+02  0.51100000000E-03 0. -1.
        -11    1    3    3    0    0 -0.65222027085E+01  0.35708111156E+01 -0.43942939247E+01  0.86371082865E+01  0.51100000000E-03 0.  1.
        -12    1    3    3    0    0 -0.16481129133E+02  0.19152846862E+02  0.99510614511E+01  0.27156634261E+02  0.00000000000E+00 0.  1.
</event>
<event>
 7    1  0.2339217E-009  0.4778728E+02  0.7816164E-02  0.1312668E+00
        -11   -1    0    0    0    0  0.00000000000E+00  0.00000000000E+00  0.45593999997E+02  0.45594000000E+02  0.51100000000E-03 0.  1.
         11   -1    0    0    0    0 -0.00000000000E+00 -0.00000000000E+00 -0.45593999997E+02  0.45594000000E+02  0.51100000000E-03 0. -1.
    9900012    2    1    2    0    0  0.39790626926E+02 -0.17253808140E+02  0.16232679464E+01  0.47787275521E+02  0.20000020409E+02 0.  0.
         12    1    1    2    0    0 -0.39790626926E+02  0.17253808140E+02 -0.16232679464E+01  0.43400724479E+02  0.00000000000E+00 0. -1.
         11    1    3    3    0    0  0.26612380227E+01 -0.24692071569E+01  0.11467874889E+01  0.38071371926E+01  0.51100000000E-03 0.  1.
        -11    1    3    3    0    0  0.23894568249E+02 -0.76829839321E+01  0.90554697529E+01  0.26682956482E+02  0.51100000000E-03 0. -1.
         12    1    3    3    0    0  0.13234820654E+02 -0.71016170505E+01 -0.85789892954E+01  0.17297181846E+02  0.00000000000E+00 0. -1.
</event>
<event>
 7    1  0.2339217E-009  0.4778728E+02  0.7816164E-02  0.1312668E+00
        -11   -1    0    0    0    0  0.00000000000E+00  0.00000000000E+00  0.45593999997E+02  0.45594000000E+02  0.51100000000E-03 0.  1.
         11   -1    0    0    0    0 -0.00000000000E+00 -0.00000000000E+00 -0.45593999997E+02  0.45594000000E+02  0.51100000000E-03 0. -1.
    9900012    2    1    2    0    0 -0.43515878433E+01 -0.95191444504E+01  0.42119733385E+02  0.47787281478E+02  0.20000047571E+02 0.  0.
         12    1    1    2    0    0  0.43515878433E+01  0.95191444504E+01 -0.42119733385E+02  0.43400718522E+02  0.00000000000E+00 0. -1.
         11    1    3    3    0    0  0.22487357747E+01 -0.32855992863E+01  0.61002617846E+01  0.72845843640E+01  0.51100000000E-03 0. -1.
        -11    1    3    3    0    0  0.13419383175E+01 -0.14600340218E+01  0.28500791102E+02  0.28569697084E+02  0.51100000000E-03 0.  1.
         12    1    3    3    0    0 -0.79422619355E+01 -0.47735111423E+01  0.75186804984E+01  0.11933000030E+02  0.00000000000E+00 0. -1.
</event>
<event>
 7    1  0.2339217E-009  0.4778727E+02  0.7816164E-02  0.1312668E+00
        -11   -1    0    0    0    0  0.00000000000E+00  0.00000000000E+00  0.45593999997E+02  0.45594000000E+02  0.51100000000E-03 0. -1.
         11   -1    0    0    0    0 -0.00000000000E+00 -0.00000000000E+00 -0.45593999997E+02  0.45594000000E+02  0.51100000000E-03 0.  1.
    9900012    2    1    2    0    0 -0.25427092345E+02  0.29439818556E+02 -0.19245343642E+02  0.47787271969E+02  0.20000004216E+02 0.  0.
         12    1    1    2    0    0  0.25427092345E+02 -0.29439818556E+02  0.19245343642E+02  0.43400728031E+02  0.00000000000E+00 0. -1.
         11    1    3    3    0    0 -0.51732218085E+01 -0.89372282110E-01 -0.21646067834E+01  0.56085411716E+01  0.51100000000E-03 0. -1.
        -11    1    3    3    0    0 -0.14615167714E+02  0.15681030040E+02 -0.30085424028E+01  0.21645996352E+02  0.51100000000E-03 0.  1.
         12    1    3    3    0    0 -0.56387028223E+01  0.13848160798E+02 -0.14072194455E+02  0.20532734445E+02  0.00000000000E+00 0. -1.
</event>
<event>
 7    1  0.2339217E-009  0.4778727E+02  0.7816164E-02  0.1312668E+00
        -11   -1    0    0    0    0  0.00000000000E+00  0.00000000000E+00  0.45593999997E+02  0.45594000000E+02  0.51100000000E-03 0.  1.
         11   -1    0    0    0    0 -0.00000000000E+00 -0.00000000000E+00 -0.45593999997E+02  0.45594000000E+02  0.51100000000E-03 0. -1.
    9900012    2    1    2    0    0 -0.55461316502E+01  0.22410996358E+02  0.36750657330E+02  0.47787272491E+02  0.20000006597E+02 0.  0.
         12    1    1    2    0    0  0.55461316502E+01 -0.22410996358E+02 -0.36750657330E+02  0.43400727509E+02  0.00000000000E+00 0. -1.
         11    1    3    3    0    0 -0.29105187619E+01 -0.12666133262E+01  0.23081705919E+01  0.39246758495E+01  0.51100000000E-03 0. -1.
        -11    1    3    3    0    0 -0.54655885520E+01  0.83480104586E+01  0.21112977507E+02  0.23352082484E+02  0.51100000000E-03 0.  1.
         12    1    3    3    0    0  0.28299756637E+01  0.15329599226E+02  0.13329509231E+02  0.20510514158E+02  0.00000000000E+00 0. -1.
</event>
<event>
 7    1  0.2339217E-009  0.4778727E+02  0.7816164E-02  0.1312668E+00
        -11   -1    0    0    0    0  0.00000000000E+00  0.00000000000E+00  0.45593999997E+02  0.45594000000E+02  0.51100000000E-03 0.  1.
         11   -1    0    0    0    0 -0.00000000000E+00 -0.00000000000E+00 -0.45593999997E+02  0.45594000000E+02  0.51100000000E-03 0. -1.
    9900012    2    1    2    0    0 -0.63768747212E+01 -0.20133774088E+02  0.37915565698E+02  0.47787268296E+02  0.19999987469E+02 0.  0.
         12    1    1    2    0    0  0.63768747212E+01  0.20133774088E+02 -0.37915565698E+02  0.43400731704E+02  0.00000000000E+00 0. -1.
         11    1    3    3    0    0 -0.67273421339E+01 -0.12696581477E+02  0.19614638256E+02  0.24314488429E+02  0.51100000000E-03 0. -1.
        -11    1    3    3    0    0 -0.32728783535E+00 -0.91752015592E+01  0.58578269484E+01  0.10890618798E+02  0.51100000000E-03 0.  1.
         12    1    3    3    0    0  0.67775524808E+00  0.17380089483E+01  0.12443100494E+02  0.12582161070E+02  0.00000000000E+00 0. -1.
</event>
<event>
 7    1  0.2339217E-009  0.4778727E+02  0.7816164E-02  0.1312668E+00
        -11   -1    0    0    0    0  0.00000000000E+00  0.00000000000E+00  0.45593999997E+02  0.45594000000E+02  0.51100000000E-03 0. -1.
         11   -1    0    0    0    0 -0.00000000000E+00 -0.00000000000E+00 -0.45593999997E+02  0.45594000000E+02  0.51100000000E-03 0.  1.
    9900012    2    1    2    0    0 -0.41065975400E+02 -0.57041745149E+00 -0.14031515220E+02  0.47787272691E+02  0.20000007506E+02 0.  0.
         12    1    1    2    0    0  0.41065975400E+02  0.57041745149E+00  0.14031515220E+02  0.43400727309E+02  0.00000000000E+00 0. -1.
         11    1    3    3    0    0 -0.10595455042E+02 -0.75106259892E+00 -0.34258464936E+01  0.11160832721E+02  0.51100000000E-03 0. -1.
        -11    1    3    3    0    0 -0.16701202516E+02 -0.83152967047E+01 -0.36267744818E+01  0.19005994270E+02  0.51100000000E-03 0.  1.
         12    1    3    3    0    0 -0.13769317841E+02  0.84959418521E+01 -0.69788942448E+01  0.17620445700E+02  0.00000000000E+00 0. -1.
</event>
<event>
 7    1  0.2339217E-009  0.4778728E+02  0.7816164E-02  0.1312668E+00
        -11   -1    0    0    0    0  0.00000000000E+00  0.00000000000E+00  0.45593999997E+02  0.45594000000E+02  0.51100000000E-03 0. -1.
         11   -1    0    0    0    0 -0.00000000000E+00 -0.00000000000E+00 -0.45593999997E+02  0.45594000000E+02  0.51100000000E-03 0.  1.
    9900012    2    1    2    0    0  0.20165314108E+02 -0.37778026086E+02 -0.70571742466E+01  0.47787275854E+02  0.20000021929E+02 0.  0.
         12    1    1    2    0    0 -0.20165314108E+02  0.37778026086E+02  0.70571742466E+01  0.43400724146E+02  0.00000000000E+00 0. -1.
         11    1    3    3    0    0  0.50755343210E+01 -0.40885701697E+01  0.24379905364E+01  0.69585381218E+01  0.51100000000E-03 0. -1.
        -11    1    3    3    0    0 -0.42004969049E+00 -0.68956101423E+01  0.28843065652E+01  0.74863279117E+01  0.51100000000E-03 0.  1.
        -12    1    3    3    0    0  0.15509829477E+02 -0.26793845774E+02 -0.12379471348E+02  0.33342409821E+02  0.00000000000E+00 0.  1.
</event>
<event>
 7    1  0.2339217E-009  0.4778727E+02  0.7816164E-02  0.1312668E+00
        -11   -1    0    0    0    0  0.00000000000E+00  0.00000000000E+00  0.45593999997E+02  0.45594000000E+02  0.51100000000E-03 0.  1.
         11   -1    0    0    0    0 -0.00000000000E+00 -0.00000000000E+00 -0.45593999997E+02  0.45594000000E+02  0.51100000000E-03 0. -1.
    9900012    2    1    2    0    0 -0.52606170464E+01  0.29359403654E+02  0.31527361129E+02  0.47787272191E+02  0.20000005228E+02 0.  0.
         12    1    1    2    0    0  0.52606170464E+01 -0.29359403654E+02 -0.31527361129E+02  0.43400727809E+02  0.00000000000E+00 0. -1.
         11    1    3    3    0    0 -0.24066204225E+01 -0.88706114635E+00  0.68596190172E+00  0.26550411159E+01  0.51100000000E-03 0. -1.
        -11    1    3    3    0    0 -0.62379772078E+01  0.67975083192E+01  0.95579476968E+01  0.13284308165E+02  0.51100000000E-03 0.  1.
         12    1    3    3    0    0  0.33839805839E+01  0.23448956481E+02  0.21283451530E+02  0.31847922910E+02  0.00000000000E+00 0. -1.
</event>
<event>
 7    1  0.2339217E-009  0.4778729E+02  0.7816164E-02  0.1312668E+00
        -11   -1    0    0    0    0  0.00000000000E+00  0.00000000000E+00  0.45593999997E+02  0.45594000000E+02  0.51100000000E-03 0. -1.
         11   -1    0    0    0    0 -0.00000000000E+00 -0.00000000000E+00 -0.45593999997E+02  0.45594000000E+02  0.51100000000E-03 0.  1.
    9900012    2    1    2    0    0  0.33453287499E+02  0.14683695427E+02 -0.23428371126E+02  0.47787286533E+02  0.20000070617E+02 0.  0.
         12    1    1    2    0    0 -0.33453287499E+02 -0.14683695427E+02  0.23428371126E+02  0.43400713467E+02  0.00000000000E+00 0. -1.
         11    1    3    3    0    0  0.19267523815E+02  0.13192218083E+02 -0.14788392612E+02  0.27639982783E+02  0.51100000000E-03 0. -1.
        -11    1    3    3    0    0  0.76115303740E+01  0.91675647339E+00  0.17264620316E+01  0.78585309361E+01  0.51100000000E-03 0.  1.
        -12    1    3    3    0    0  0.65742333100E+01  0.57472087019E+00 -0.10366440545E+02  0.12288772814E+02  0.00000000000E+00 0.  1.
</event>
<event>
 7    1  0.2339217E-009  0.4778727E+02  0.7816164E-02  0.1312668E+00
        -11   -1    0    0    0    0  0.00000000000E+00  0.00000000000E+00  0.45593999997E+02  0.45594000000E+02  0.51100000000E-03 0.  1.
         11   -1    0    0    0    0 -0.00000000000E+00 -0.00000000000E+00 -0.45593999997E+02  0.45594000000E+02  0.51100000000E-03 0. -1.
    9900012    2    1    2    0    0  0.27584769586E+02  0.26732541823E+02  0.20200865992E+02  0.47787270833E+02  0.19999999035E+02 0.  0.
         12    1    1    2    0    0 -0.27584769586E+02 -0.26732541823E+02 -0.20200865992E+02  0.43400729167E+02  0.00000000000E+00 0. -1.
         11    1    3    3    0    0  0.68430948995E+01  0.49639555386E+01  0.22810975122E+01  0.87562668138E+01  0.51100000000E-03 0. -1.
        -11    1    3    3    0    0  0.83541785484E+01  0.18869401309E+02  0.57424391569E+01  0.21420135684E+02  0.51100000000E-03 0.  1.
         12    1    3    3    0    0  0.12387496138E+02  0.28991849753E+01  0.12177329323E+02  0.17610868335E+02  0.00000000000E+00 0. -1.
</event>
<event>
 7    1  0.2339217E-009  0.4778727E+02  0.7816164E-02  0.1312668E+00
        -11   -1    0    0    0    0  0.00000000000E+00  0.00000000000E+00  0.45593999997E+02  0.45594000000E+02  0.51100000000E-03 0. -1.
         11   -1    0    0    0    0 -0.00000000000E+00 -0.00000000000E+00 -0.45593999997E+02  0.45594000000E+02  0.51100000000E-03 0.  1.
    9900012    2    1    2    0    0  0.37139206697E+02  0.19694277184E+02  0.10790642490E+02  0.47787271974E+02  0.20000004237E+02 0.  0.
         12    1    1    2    0    0 -0.37139206697E+02 -0.19694277184E+02 -0.10790642490E+02  0.43400728026E+02  0.00000000000E+00 0. -1.
         11    1    3    3    0    0  0.22914748559E+01  0.28450066547E+00 -0.32588703688E+01  0.39939997478E+01  0.51100000000E-03 0. -1.
        -11    1    3    3    0    0  0.41492749042E+01  0.65864894893E+01  0.52193426907E+01  0.93722923774E+01  0.51100000000E-03 0.  1.
        -12    1    3    3    0    0  0.30698456937E+02  0.12823287029E+02  0.88301701679E+01  0.34420979848E+02  0.00000000000E+00 0.  1.
</event>
<event>
 7    1  0.2339217E-009  0.4778727E+02  0.7816164E-02  0.1312668E+00
        -11   -1    0    0    0    0  0.00000000000E+00  0.00000000000E+00  0.45593999997E+02  0.45594000000E+02  0.51100000000E-03 0.  1.
         11   -1    0    0    0    0 -0.00000000000E+00 -0.00000000000E+00 -0.45593999997E+02  0.45594000000E+02  0.51100000000E-03 0. -1.
    9900012    2    1    2    0    0 -0.44775013719E+01  0.11901655305E+02  0.41496090584E+02  0.47787274761E+02  0.20000016944E+02 0.  0.
         12    1    1    2    0    0  0.44775013719E+01 -0.11901655305E+02 -0.41496090584E+02  0.43400725239E+02  0.00000000000E+00 0. -1.
         11    1    3    3    0    0 -0.89103201333E+00  0.10370729669E+02  0.19018872301E+02  0.21680947299E+02  0.51100000000E-03 0. -1.
        -11    1    3    3    0    0 -0.51485887800E+01  0.57771148928E+01  0.18608528771E+02  0.20153420707E+02  0.51100000000E-03 0.  1.
        -12    1    3    3    0    0  0.15621194214E+01 -0.42461892565E+01  0.38686895115E+01  0.59529067543E+01  0.00000000000E+00 0.  1.
</event>
<event>
 7    1  0.2339217E-009  0.4778727E+02  0.7816164E-02  0.1312668E+00
        -11   -1    0    0    0    0  0.00000000000E+00  0.00000000000E+00  0.45593999997E+02  0.45594000000E+02  0.51100000000E-03 0.  1.
         11   -1    0    0    0    0 -0.00000000000E+00 -0.00000000000E+00 -0.45593999997E+02  0.45594000000E+02  0.51100000000E-03 0. -1.
    9900012    2    1    2    0    0 -0.11337460452E+02  0.79016242956E+00  0.41886286792E+02  0.47787269736E+02  0.19999994037E+02 0.  0.
         12    1    1    2    0    0  0.11337460452E+02 -0.79016242956E+00 -0.41886286792E+02  0.43400730264E+02  0.00000000000E+00 0. -1.
         11    1    3    3    0    0  0.30421473911E+01  0.14688703966E+01  0.44962220763E+01  0.56239002669E+01  0.51100000000E-03 0. -1.
        -11    1    3    3    0    0 -0.67280643209E+01  0.40450470577E+01  0.28333151301E+02  0.29400624451E+02  0.51100000000E-03 0.  1.
         12    1    3    3    0    0 -0.76515435217E+01 -0.47237550247E+01  0.90569134146E+01  0.12762745018E+02  0.00000000000E+00 0. -1.
</event>
<event>
 7    1  0.2339217E-009  0.4778728E+02  0.7816164E-02  0.1312668E+00
        -11   -1    0    0    0    0  0.00000000000E+00  0.00000000000E+00  0.45593999997E+02  0.45594000000E+02  0.51100000000E-03 0.  1.
         11   -1    0    0    0    0 -0.00000000000E+00 -0.00000000000E+00 -0.45593999997E+02  0.45594000000E+02  0.51100000000E-03 0. -1.
    9900012    2    1    2    0    0  0.13369818923E+02 -0.16125346641E+02  0.38011101469E+02  0.47787277688E+02  0.20000030290E+02 0.  0.
         12    1    1    2    0    0 -0.13369818923E+02  0.16125346641E+02 -0.38011101469E+02  0.43400722312E+02  0.00000000000E+00 0. -1.
         11    1    3    3    0    0 -0.25162042311E+01 -0.15416506596E+00  0.13063464805E+01  0.28392942765E+01  0.51100000000E-03 0. -1.
        -11    1    3    3    0    0 -0.99837601902E+00 -0.69310199040E+00  0.90213458990E+01  0.91028471993E+01  0.51100000000E-03 0.  1.
        -12    1    3    3    0    0  0.16884399173E+02 -0.15278079584E+02  0.27683409090E+02  0.35845136212E+02  0.00000000000E+00 0.  1.
</event>
<event>
 7    1  0.2339217E-009  0.4778727E+02  0.7816164E-02  0.1312668E+00
        -11   -1    0    0    0    0  0.00000000000E+00  0.00000000000E+00  0.45593999997E+02  0.45594000000E+02  0.51100000000E-03 0.  1.
         11   -1    0    0    0    0 -0.00000000000E+00 -0.00000000000E+00 -0.45593999997E+02  0.45594000000E+02  0.51100000000E-03 0. -1.
    9900012    2    1    2    0    0 -0.28432729659E+02  0.22615913951E+02  0.23742859696E+02  0.47787273437E+02  0.20000010907E+02 0.  0.
         12    1    1    2    0    0  0.28432729659E+02 -0.22615913951E+02 -0.23742859696E+02  0.43400726563E+02  0.00000000000E+00 0. -1.
         11    1    3    3    0    0 -0.25689231697E+00  0.33048833660E+01  0.32570810807E+01  0.46472384438E+01  0.51100000000E-03 0. -1.
        -11    1    3    3    0    0 -0.12462239806E+02  0.15833833209E+02  0.17673521992E+02  0.26802445317E+02  0.51100000000E-03 0.  1.
         12    1    3    3    0    0 -0.15713597536E+02  0.34771973755E+01  0.28122566229E+01  0.16337589676E+02  0.00000000000E+00 0. -1.
</event>
<event>
 7    1  0.2339217E-009  0.4778727E+02  0.7816164E-02  0.1312668E+00
        -11   -1    0    0    0    0  0.00000000000E+00  0.00000000000E+00  0.45593999997E+02  0.45594000000E+02  0.51100000000E-03 0.  1.
         11   -1    0    0    0    0 -0.00000000000E+00 -0.00000000000E+00 -0.45593999997E+02  0.45594000000E+02  0.51100000000E-03 0. -1.
    9900012    2    1    2    0    0  0.41410528467E+02  0.75195121516E+01 -0.10594747470E+02  0.47787267231E+02  0.19999982614E+02 0.  0.
         12    1    1    2    0    0 -0.41410528467E+02 -0.75195121516E+01  0.10594747470E+02  0.43400732769E+02  0.00000000000E+00 0. -1.
         11    1    3    3    0    0  0.18508968367E+02  0.58507135452E+01 -0.11511131677E+02  0.22568094995E+02  0.51100000000E-03 0. -1.
        -11    1    3    3    0    0  0.14856005865E+02 -0.82999443995E-01 -0.43071570187E+01  0.15468012187E+02  0.51100000000E-03 0.  1.
         12    1    3    3    0    0  0.80455542354E+01  0.17517980504E+01  0.52235412257E+01  0.97511600489E+01  0.00000000000E+00 0. -1.
</event>
<event>
 7    1  0.2339217E-009  0.4778727E+02  0.7816164E-02  0.1312668E+00
        -11   -1    0    0    0    0  0.00000000000E+00  0.00000000000E+00  0.45593999997E+02  0.45594000000E+02  0.51100000000E-03 0.  1.
         11   -1    0    0    0    0 -0.00000000000E+00 -0.00000000000E+00 -0.45593999997E+02  0.45594000000E+02  0.51100000000E-03 0. -1.
    9900012    2    1    2    0    0  0.42897246314E+02  0.49262127032E+01 -0.43797661649E+01  0.47787266543E+02  0.19999979478E+02 0.  0.
         12    1    1    2    0    0 -0.42897246314E+02 -0.49262127032E+01  0.43797661649E+01  0.43400733457E+02  0.00000000000E+00 0. -1.
         11    1    3    3    0    0  0.25324340160E+01  0.19222166807E+01  0.26740486680E+01  0.41543562140E+01  0.51100000000E-03 0. -1.
        -11    1    3    3    0    0  0.18227758203E+01  0.40264304362E+01 -0.15643819608E+01  0.46884906878E+01  0.51100000000E-03 0.  1.
        -12    1    3    3    0    0  0.38542036478E+02 -0.10224344138E+01 -0.54894328720E+01  0.38944419642E+02  0.00000000000E+00 0.  1.
</event>
<event>
 7    1  0.2339217E-009  0.4778725E+02  0.7816164E-02  0.1312668E+00
        -11   -1    0    0    0    0  0.00000000000E+00  0.00000000000E+00  0.45593999997E+02  0.45594000000E+02  0.51100000000E-03 0.  1.
         11   -1    0    0    0    0 -0.00000000000E+00 -0.00000000000E+00 -0.45593999997E+02  0.45594000000E+02  0.51100000000E-03 0. -1.
    9900012    2    1    2    0    0 -0.88248102651E+01  0.25359192261E+02  0.34097785241E+02  0.47787252694E+02  0.19999916333E+02 0.  0.
         12    1    1    2    0    0  0.88248102651E+01 -0.25359192261E+02 -0.34097785241E+02  0.43400747306E+02  0.00000000000E+00 0. -1.
         11    1    3    3    0    0 -0.35125933057E+00  0.37411380403E+01  0.40941582926E+00  0.37798304904E+01  0.51100000000E-03 0. -1.
        -11    1    3    3    0    0 -0.55564537266E+01  0.23701839796E+02  0.26563690545E+02  0.36031667230E+02  0.51100000000E-03 0.  1.
         12    1    3    3    0    0 -0.29170972079E+01 -0.20837855750E+01  0.71246788667E+01  0.79757549735E+01  0.00000000000E+00 0. -1.
</event>
<event>
 7    1  0.2339217E-009  0.4778727E+02  0.7816164E-02  0.1312668E+00
        -11   -1    0    0    0    0  0.00000000000E+00  0.00000000000E+00  0.45593999997E+02  0.45594000000E+02  0.51100000000E-03 0.  1.
         11   -1    0    0    0    0 -0.00000000000E+00 -0.00000000000E+00 -0.45593999997E+02  0.45594000000E+02  0.51100000000E-03 0. -1.
    9900012    2    1    2    0    0 -0.13810680429E+02  0.20296303570E+02  0.35790344284E+02  0.47787267558E+02  0.19999984103E+02 0.  0.
         12    1    1    2    0    0  0.13810680429E+02 -0.20296303570E+02 -0.35790344284E+02  0.43400732442E+02  0.00000000000E+00 0. -1.
         11    1    3    3    0    0 -0.41719131671E+01  0.55735253676E+01  0.16422863786E+02  0.17837586712E+02  0.51100000000E-03 0. -1.
        -11    1    3    3    0    0 -0.12871407235E+02  0.12436115952E+02  0.18787078534E+02  0.25947724838E+02  0.51100000000E-03 0.  1.
         12    1    3    3    0    0  0.32326399735E+01  0.22866622507E+01  0.58040196406E+00  0.40019560076E+01  0.00000000000E+00 0. -1.
</event>
<event>
 7    1  0.2339217E-009  0.4778726E+02  0.7816164E-02  0.1312668E+00
        -11   -1    0    0    0    0  0.00000000000E+00  0.00000000000E+00  0.45593999997E+02  0.45594000000E+02  0.51100000000E-03 0.  1.
         11   -1    0    0    0    0 -0.00000000000E+00 -0.00000000000E+00 -0.45593999997E+02  0.45594000000E+02  0.51100000000E-03 0. -1.
    9900012    2    1    2    0    0 -0.37151883902E+01 -0.33712936441E+02  0.27078763718E+02  0.47787260920E+02  0.19999953837E+02 0.  0.
         12    1    1    2    0    0  0.37151883902E+01  0.33712936441E+02 -0.27078763718E+02  0.43400739080E+02  0.00000000000E+00 0. -1.
         11    1    3    3    0    0 -0.45698847834E+01 -0.45906491223E+01 -0.10589368426E+01  0.65634787876E+01  0.51100000000E-03 0. -1.
        -11    1    3    3    0    0 -0.30981930031E+01 -0.12924118127E+02  0.10364914545E+02  0.16854171087E+02  0.51100000000E-03 0.  1.
         12    1    3    3    0    0  0.39528893962E+01 -0.16198169192E+02  0.17772786016E+02  0.24369611045E+02  0.00000000000E+00 0. -1.
</event>
<event>
 7    1  0.2339217E-009  0.4778727E+02  0.7816164E-02  0.1312668E+00
        -11   -1    0    0    0    0  0.00000000000E+00  0.00000000000E+00  0.45593999997E+02  0.45594000000E+02  0.51100000000E-03 0.  1.
         11   -1    0    0    0    0 -0.00000000000E+00 -0.00000000000E+00 -0.45593999997E+02  0.45594000000E+02  0.51100000000E-03 0. -1.
    9900012    2    1    2    0    0  0.33074763895E+02 -0.68764072846E+01  0.27246984348E+02  0.47787272588E+02  0.20000007036E+02 0.  0.
         12    1    1    2    0    0 -0.33074763895E+02  0.68764072846E+01 -0.27246984348E+02  0.43400727412E+02  0.00000000000E+00 0. -1.
         11    1    3    3    0    0  0.15565943621E+02 -0.46143839668E+01  0.30799245731E+01  0.16525043899E+02  0.51100000000E-03 0. -1.
        -11    1    3    3    0    0  0.12820202741E+02 -0.24036450841E-03  0.10283954488E+02  0.16435246227E+02  0.51100000000E-03 0.  1.
         12    1    3    3    0    0  0.46886175319E+01 -0.22617829533E+01  0.13883105288E+02  0.14826982462E+02  0.00000000000E+00 0. -1.
</event>
<event>
 7    1  0.2339217E-009  0.4778728E+02  0.7816164E-02  0.1312668E+00
        -11   -1    0    0    0    0  0.00000000000E+00  0.00000000000E+00  0.45593999997E+02  0.45594000000E+02  0.51100000000E-03 0. -1.
         11   -1    0    0    0    0 -0.00000000000E+00 -0.00000000000E+00 -0.45593999997E+02  0.45594000000E+02  0.51100000000E-03 0.  1.
    9900012    2    1    2    0    0 -0.96658170593E+00 -0.16974607053E+01 -0.43356739666E+02  0.47787279643E+02  0.20000039202E+02 0.  0.
         12    1    1    2    0    0  0.96658170593E+00  0.16974607053E+01  0.43356739666E+02  0.43400720357E+02  0.00000000000E+00 0. -1.
         11    1    3    3    0    0 -0.11145731052E+01  0.58222724916E+00 -0.10448858287E+02  0.10524253016E+02  0.51100000000E-03 0.  1.
        -11    1    3    3    0    0 -0.55444766683E+01 -0.48378016584E+01 -0.55887183736E+01  0.92400930586E+01  0.51100000000E-03 0. -1.
         12    1    3    3    0    0  0.56924680676E+01  0.25581137040E+01 -0.27319163006E+02  0.28022933568E+02  0.00000000000E+00 0. -1.
</event>
<event>
 7    1  0.2339217E-009  0.4778728E+02  0.7816164E-02  0.1312668E+00
        -11   -1    0    0    0    0  0.00000000000E+00  0.00000000000E+00  0.45593999997E+02  0.45594000000E+02  0.51100000000E-03 0. -1.
         11   -1    0    0    0    0 -0.00000000000E+00 -0.00000000000E+00 -0.45593999997E+02  0.45594000000E+02  0.51100000000E-03 0.  1.
    9900012    2    1    2    0    0  0.14309318850E+02  0.17829167398E+02 -0.36891549831E+02  0.47787282668E+02  0.20000052996E+02 0.  0.
         12    1    1    2    0    0 -0.14309318850E+02 -0.17829167398E+02  0.36891549831E+02  0.43400717332E+02  0.00000000000E+00 0. -1.
         11    1    3    3    0    0 -0.58318556556E+00  0.62356231160E+01 -0.15455029799E+02  0.16675762273E+02  0.51100000000E-03 0. -1.
        -11    1    3    3    0    0  0.62500798285E+01  0.12819518057E+00 -0.13084621116E+02  0.14501284146E+02  0.51100000000E-03 0.  1.
        -12    1    3    3    0    0  0.86424245869E+01  0.11465349101E+02 -0.83518989159E+01  0.16610236249E+02  0.00000000000E+00 0.  1.
</event>
<event>
 7    1  0.2339217E-009  0.4778727E+02  0.7816164E-02  0.1312668E+00
        -11   -1    0    0    0    0  0.00000000000E+00  0.00000000000E+00  0.45593999997E+02  0.45594000000E+02  0.51100000000E-03 0. -1.
         11   -1    0    0    0    0 -0.00000000000E+00 -0.00000000000E+00 -0.45593999997E+02  0.45594000000E+02  0.51100000000E-03 0.  1.
    9900012    2    1    2    0    0 -0.33594243117E+02 -0.15072477560E+02 -0.22975439181E+02  0.47787267795E+02  0.19999985184E+02 0.  0.
         12    1    1    2    0    0  0.33594243117E+02  0.15072477560E+02  0.22975439181E+02  0.43400732205E+02  0.00000000000E+00 0. -1.
         11    1    3    3    0    0 -0.38268544816E+01 -0.84163999939E+00 -0.97269936663E+01  0.10486542765E+02  0.51100000000E-03 0. -1.
        -11    1    3    3    0    0 -0.44794668990E+01  0.18830233038E+01 -0.13753093070E+01  0.50500372685E+01  0.51100000000E-03 0.  1.
        -12    1    3    3    0    0 -0.25287921736E+02 -0.16113860864E+02 -0.11873136208E+02  0.32250687762E+02  0.00000000000E+00 0.  1.
</event>
<event>
 7    1  0.2339217E-009  0.4778727E+02  0.7816164E-02  0.1312668E+00
        -11   -1    0    0    0    0  0.00000000000E+00  0.00000000000E+00  0.45593999997E+02  0.45594000000E+02  0.51100000000E-03 0. -1.
         11   -1    0    0    0    0 -0.00000000000E+00 -0.00000000000E+00 -0.45593999997E+02  0.45594000000E+02  0.51100000000E-03 0.  1.
    9900012    2    1    2    0    0 -0.39832341109E+02 -0.11782424087E+02 -0.12577057362E+02  0.47787270888E+02  0.19999999285E+02 0.  0.
         12    1    1    2    0    0  0.39832341109E+02  0.11782424087E+02  0.12577057362E+02  0.43400729112E+02  0.00000000000E+00 0. -1.
         11    1    3    3    0    0 -0.20114249193E+02 -0.43345861406E+01 -0.69851389008E+00  0.20587850289E+02  0.51100000000E-03 0. -1.
        -11    1    3    3    0    0 -0.91496796008E+01 -0.10039703873E+02 -0.63697253825E+01  0.15002856140E+02  0.51100000000E-03 0.  1.
        -12    1    3    3    0    0 -0.10568412315E+02  0.25918659265E+01 -0.55088180891E+01  0.12196564458E+02  0.00000000000E+00 0.  1.
</event>
<event>
 7    1  0.2339217E-009  0.4778727E+02  0.7816164E-02  0.1312668E+00
        -11   -1    0    0    0    0  0.00000000000E+00  0.00000000000E+00  0.45593999997E+02  0.45594000000E+02  0.51100000000E-03 0.  1.
         11   -1    0    0    0    0 -0.00000000000E+00 -0.00000000000E+00 -0.45593999997E+02  0.45594000000E+02  0.51100000000E-03 0. -1.
    9900012    2    1    2    0    0  0.35449901795E+02 -0.24152131836E+02  0.66032221518E+01  0.47787267837E+02  0.19999985375E+02 0.  0.
         12    1    1    2    0    0 -0.35449901795E+02  0.24152131836E+02 -0.66032221518E+01  0.43400732163E+02  0.00000000000E+00 0. -1.
         11    1    3    3    0    0  0.86913369239E+01 -0.28475561769E+01  0.13299565611E+01  0.92421154732E+01  0.51100000000E-03 0. -1.
        -11    1    3    3    0    0  0.23153876527E+02 -0.21327621616E+02  0.96024700303E+01  0.32911652541E+02  0.51100000000E-03 0.  1.
        -12    1    3    3    0    0  0.36046883440E+01  0.23045956444E-01 -0.43292044396E+01  0.56334998228E+01  0.00000000000E+00 0.  1.
</event>
<event>
 7    1  0.2339217E-009  0.4778727E+02  0.7816164E-02  0.1312668E+00
        -11   -1    0    0    0    0  0.00000000000E+00  0.00000000000E+00  0.45593999997E+02  0.45594000000E+02  0.51100000000E-03 0.  1.
         11   -1    0    0    0    0 -0.00000000000E+00 -0.00000000000E+00 -0.45593999997E+02  0.45594000000E+02  0.51100000000E-03 0. -1.
    9900012    2    1    2    0    0  0.15848033582E+02  0.39811120306E+02 -0.68947427621E+01  0.47787274820E+02  0.20000017214E+02 0.  0.
         12    1    1    2    0    0 -0.15848033582E+02 -0.39811120306E+02  0.68947427621E+01  0.43400725180E+02  0.00000000000E+00 0. -1.
         11    1    3    3    0    0 -0.20585443838E+01  0.50012284421E+00  0.52344080082E+00  0.21821361948E+01  0.51100000000E-03 0. -1.
        -11    1    3    3    0    0  0.72844875816E+00  0.15957934451E+02 -0.34681934797E+01  0.16346702292E+02  0.51100000000E-03 0.  1.
         12    1    3    3    0    0  0.17178129207E+02  0.23353063010E+02 -0.39499900832E+01  0.29258436334E+02  0.00000000000E+00 0. -1.
</event>
<event>
 7    1  0.2339217E-009  0.4778727E+02  0.7816164E-02  0.1312668E+00
        -11   -1    0    0    0    0  0.00000000000E+00  0.00000000000E+00  0.45593999997E+02  0.45594000000E+02  0.51100000000E-03 0.  1.
         11   -1    0    0    0    0 -0.00000000000E+00 -0.00000000000E+00 -0.45593999997E+02  0.45594000000E+02  0.51100000000E-03 0. -1.
    9900012    2    1    2    0    0  0.26782715438E+02  0.11681246049E+02  0.32091401195E+02  0.47787269751E+02  0.19999994102E+02 0.  0.
         12    1    1    2    0    0 -0.26782715438E+02 -0.11681246049E+02 -0.32091401195E+02  0.43400730249E+02  0.00000000000E+00 0. -1.
         11    1    3    3    0    0  0.37436163269E+01  0.30560999157E+01  0.10867865114E+02  0.11893901895E+02  0.51100000000E-03 0. -1.
        -11    1    3    3    0    0  0.88025410521E+01  0.10791397880E+01  0.17097516363E+02  0.19260694112E+02  0.51100000000E-03 0.  1.
         12    1    3    3    0    0  0.14236558059E+02  0.75460063453E+01  0.41260197183E+01  0.16632673744E+02  0.00000000000E+00 0. -1.
</event>
<event>
 7    1  0.2339217E-009  0.4778727E+02  0.7816164E-02  0.1312668E+00
        -11   -1    0    0    0    0  0.00000000000E+00  0.00000000000E+00  0.45593999997E+02  0.45594000000E+02  0.51100000000E-03 0. -1.
         11   -1    0    0    0    0 -0.00000000000E+00 -0.00000000000E+00 -0.45593999997E+02  0.45594000000E+02  0.51100000000E-03 0.  1.
    9900012    2    1    2    0    0 -0.22175201728E+02 -0.31383385309E+02 -0.20173417417E+02  0.47787271718E+02  0.20000003071E+02 0.  0.
         12    1    1    2    0    0  0.22175201728E+02  0.31383385309E+02  0.20173417417E+02  0.43400728282E+02  0.00000000000E+00 0. -1.
         11    1    3    3    0    0 -0.21941319378E+01 -0.24111709308E+01 -0.47208687659E+01  0.57371214371E+01  0.51100000000E-03 0. -1.
        -11    1    3    3    0    0 -0.26458528200E+00  0.12632817660E+00 -0.55155344657E+01  0.55233219065E+01  0.51100000000E-03 0.  1.
         12    1    3    3    0    0 -0.19716484508E+02 -0.29098542555E+02 -0.99370141855E+01  0.36526828374E+02  0.00000000000E+00 0. -1.
</event>
<event>
 7    1  0.2339217E-009  0.4778727E+02  0.7816164E-02  0.1312668E+00
        -11   -1    0    0    0    0  0.00000000000E+00  0.00000000000E+00  0.45593999997E+02  0.45594000000E+02  0.51100000000E-03 0. -1.
         11   -1    0    0    0    0 -0.00000000000E+00 -0.00000000000E+00 -0.45593999997E+02  0.45594000000E+02  0.51100000000E-03 0.  1.
    9900012    2    1    2    0    0 -0.32975087699E+02  0.19841164027E+02 -0.20064764312E+02  0.47787274596E+02  0.20000016192E+02 0.  0.
         12    1    1    2    0    0  0.32975087699E+02 -0.19841164027E+02  0.20064764312E+02  0.43400725404E+02  0.00000000000E+00 0. -1.
         11    1    3    3    0    0 -0.10224905433E+01  0.58932441482E+01 -0.22287531621E+01  0.63830364576E+01  0.51100000000E-03 0. -1.
        -11    1    3    3    0    0 -0.12227577435E+02  0.16407073305E+01 -0.40122155221E+00  0.12343684599E+02  0.51100000000E-03 0.  1.
        -12    1    3    3    0    0 -0.19725019721E+02  0.12307212548E+02 -0.17434789598E+02  0.29060553539E+02  0.00000000000E+00 0.  1.
</event>
<event>
 7    1  0.2339217E-009  0.4778727E+02  0.7816164E-02  0.1312668E+00
        -11   -1    0    0    0    0  0.00000000000E+00  0.00000000000E+00  0.45593999997E+02  0.45594000000E+02  0.51100000000E-03 0. -1.
         11   -1    0    0    0    0 -0.00000000000E+00 -0.00000000000E+00 -0.45593999997E+02  0.45594000000E+02  0.51100000000E-03 0.  1.
    9900012    2    1    2    0    0  0.34781983989E+02  0.45791659357E+01 -0.25551283978E+02  0.47787270930E+02  0.19999999478E+02 0.  0.
         12    1    1    2    0    0 -0.34781983989E+02 -0.45791659357E+01  0.25551283978E+02  0.43400729070E+02  0.00000000000E+00 0. -1.
         11    1    3    3    0    0  0.20878239392E+02 -0.42998267037E+01 -0.15311315746E+02  0.26245490659E+02  0.51100000000E-03 0. -1.
        -11    1    3    3    0    0  0.89542333289E+01  0.16691744375E+01 -0.15992125288E+01  0.92478061606E+01  0.51100000000E-03 0.  1.
        -12    1    3    3    0    0  0.49495112682E+01  0.72098182020E+01 -0.86407557032E+01  0.12293974110E+02  0.00000000000E+00 0.  1.
</event>
<event>
 7    1  0.2339217E-009  0.4778727E+02  0.7816164E-02  0.1312668E+00
        -11   -1    0    0    0    0  0.00000000000E+00  0.00000000000E+00  0.45593999997E+02  0.45594000000E+02  0.51100000000E-03 0.  1.
         11   -1    0    0    0    0 -0.00000000000E+00 -0.00000000000E+00 -0.45593999997E+02  0.45594000000E+02  0.51100000000E-03 0. -1.
    9900012    2    1    2    0    0 -0.25931480975E+02  0.19582844333E+02  0.28769667986E+02  0.47787270815E+02  0.19999998956E+02 0.  0.
         12    1    1    2    0    0  0.25931480975E+02 -0.19582844333E+02 -0.28769667986E+02  0.43400729185E+02  0.00000000000E+00 0. -1.
         11    1    3    3    0    0 -0.14786448149E+02  0.11152896895E+02  0.27283703332E+02  0.32976152380E+02  0.51100000000E-03 0. -1.
        -11    1    3    3    0    0 -0.54755573901E+01  0.50642651976E+01  0.30118500376E+01  0.80436155822E+01  0.51100000000E-03 0.  1.
         12    1    3    3    0    0 -0.56694754354E+01  0.33656822411E+01 -0.15258853838E+01  0.67675028530E+01  0.00000000000E+00 0. -1.
</event>
<event>
 7    1  0.2339217E-009  0.4778728E+02  0.7816164E-02  0.1312668E+00
        -11   -1    0    0    0    0  0.00000000000E+00  0.00000000000E+00  0.45593999997E+02  0.45594000000E+02  0.51100000000E-03 0.  1.
         11   -1    0    0    0    0 -0.00000000000E+00 -0.00000000000E+00 -0.45593999997E+02  0.45594000000E+02  0.51100000000E-03 0. -1.
    9900012    2    1    2    0    0  0.35577776748E+02 -0.18774380517E+02  0.16290077291E+02  0.47787283643E+02  0.20000057441E+02 0.  0.
         12    1    1    2    0    0 -0.35577776748E+02  0.18774380517E+02 -0.16290077291E+02  0.43400716357E+02  0.00000000000E+00 0. -1.
         11    1    3    3    0    0  0.67692883970E+01 -0.74784963697E+01 -0.98888375036E+00  0.10135534751E+02  0.51100000000E-03 0. -1.
        -11    1    3    3    0    0  0.43020800791E+01 -0.41935220239E+01 -0.12275760445E+01  0.61319216546E+01  0.51100000000E-03 0.  1.
         12    1    3    3    0    0  0.24506408272E+02 -0.71023621233E+01  0.18506537086E+02  0.31519827237E+02  0.00000000000E+00 0. -1.
</event>
<event>
 7    1  0.2339217E-009  0.4778727E+02  0.7816164E-02  0.1312668E+00
        -11   -1    0    0    0    0  0.00000000000E+00  0.00000000000E+00  0.45593999997E+02  0.45594000000E+02  0.51100000000E-03 0.  1.
         11   -1    0    0    0    0 -0.00000000000E+00 -0.00000000000E+00 -0.45593999997E+02  0.45594000000E+02  0.51100000000E-03 0. -1.
    9900012    2    1    2    0    0 -0.24601011278E+01 -0.24855383859E+02  0.35493399703E+02  0.47787266979E+02  0.19999981463E+02 0.  0.
         12    1    1    2    0    0  0.24601011278E+01  0.24855383859E+02 -0.35493399703E+02  0.43400733021E+02  0.00000000000E+00 0. -1.
         11    1    3    3    0    0  0.22648535485E+01 -0.19016116541E+01  0.66506802914E+00  0.30311720874E+01  0.51100000000E-03 0. -1.
        -11    1    3    3    0    0  0.12270077367E+01 -0.75647014550E+01  0.23561092300E+02  0.24776103945E+02  0.51100000000E-03 0.  1.
         12    1    3    3    0    0 -0.59519624129E+01 -0.15389070750E+02  0.11267239374E+02  0.19979990946E+02  0.00000000000E+00 0. -1.
</event>
<event>
 7    1  0.2339217E-009  0.4778727E+02  0.7816164E-02  0.1312668E+00
        -11   -1    0    0    0    0  0.00000000000E+00  0.00000000000E+00  0.45593999997E+02  0.45594000000E+02  0.51100000000E-03 0.  1.
         11   -1    0    0    0    0 -0.00000000000E+00 -0.00000000000E+00 -0.45593999997E+02  0.45594000000E+02  0.51100000000E-03 0. -1.
    9900012    2    1    2    0    0 -0.34105408524E+02  0.25426624332E+02  0.85983288601E+01  0.47787269883E+02  0.19999994703E+02 0.  0.
         12    1    1    2    0    0  0.34105408524E+02 -0.25426624332E+02 -0.85983288601E+01  0.43400730117E+02  0.00000000000E+00 0. -1.
         11    1    3    3    0    0 -0.14388855703E+02  0.12844553799E+02  0.14872893458E+01  0.19345122398E+02  0.51100000000E-03 0. -1.
        -11    1    3    3    0    0 -0.12265642778E+02  0.15231132746E+02  0.41040165475E+01  0.19981900550E+02  0.51100000000E-03 0.  1.
        -12    1    3    3    0    0 -0.74509100432E+01 -0.26490622132E+01  0.30070229669E+01  0.84602469352E+01  0.00000000000E+00 0.  1.
</event>
<event>
 7    1  0.2339217E-009  0.4778727E+02  0.7816164E-02  0.1312668E+00
        -11   -1    0    0    0    0  0.00000000000E+00  0.00000000000E+00  0.45593999997E+02  0.45594000000E+02  0.51100000000E-03 0. -1.
         11   -1    0    0    0    0 -0.00000000000E+00 -0.00000000000E+00 -0.45593999997E+02  0.45594000000E+02  0.51100000000E-03 0.  1.
    9900012    2    1    2    0    0  0.41398331788E+02 -0.13028605369E+02 -0.23836393528E+00  0.47787271319E+02  0.20000001253E+02 0.  0.
         12    1    1    2    0    0 -0.41398331788E+02  0.13028605369E+02  0.23836393528E+00  0.43400728681E+02  0.00000000000E+00 0. -1.
         11    1    3    3    0    0  0.11027723539E+01 -0.39380375587E+01 -0.18396892425E+00  0.40936648012E+01  0.51100000000E-03 0. -1.
        -11    1    3    3    0    0  0.28557448648E+02 -0.12834400665E+02  0.10250504849E+01  0.31325715354E+02  0.51100000000E-03 0.  1.
         12    1    3    3    0    0  0.11738110786E+02  0.37438328548E+01 -0.10794454959E+01  0.12367891164E+02  0.00000000000E+00 0. -1.
</event>
<event>
 7    1  0.4248210E-009  0.4778727E+02  0.7816164E-02  0.1312668E+00
        -11   -1    0    0    0    0  0.00000000000E+00  0.00000000000E+00  0.45593999997E+02  0.45594000000E+02  0.51100000000E-03 0. -1.
         11   -1    0    0    0    0 -0.00000000000E+00 -0.00000000000E+00 -0.45593999997E+02  0.45594000000E+02  0.51100000000E-03 0.  1.
    9900012    2    1    2    0    0 -0.36554637902E+02 -0.18354904001E+02 -0.14507902996E+02  0.47787270716E+02  0.19999998503E+02 0.  0.
         12    1    1    2    0    0  0.36554637902E+02  0.18354904001E+02  0.14507902996E+02  0.43400729284E+02  0.00000000000E+00 0. -1.
         11    1    3    3    0    0 -0.11383760623E+01 -0.37166440842E+00 -0.39869584970E+01  0.41629163828E+01  0.51100000000E-03 0. -1.
        -11    1    3    3    0    0 -0.74152929364E+01 -0.79915253194E+01  0.24724865841E+01  0.11178740378E+02  0.51100000000E-03 0.  1.
        -12    1    3    3    0    0 -0.28000968903E+02 -0.99917142734E+01 -0.12993431083E+02  0.32445613956E+02  0.00000000000E+00 0.  1.
</event>
<event>
 7    1  0.2339217E-009  0.4778727E+02  0.7816164E-02  0.1312668E+00
        -11   -1    0    0    0    0  0.00000000000E+00  0.00000000000E+00  0.45593999997E+02  0.45594000000E+02  0.51100000000E-03 0.  1.
         11   -1    0    0    0    0 -0.00000000000E+00 -0.00000000000E+00 -0.45593999997E+02  0.45594000000E+02  0.51100000000E-03 0. -1.
    9900012    2    1    2    0    0  0.88661799919E+01  0.13441309718E+02  0.40303164496E+02  0.47787273935E+02  0.20000013179E+02 0.  0.
         12    1    1    2    0    0 -0.88661799919E+01 -0.13441309718E+02 -0.40303164496E+02  0.43400726065E+02  0.00000000000E+00 0. -1.
         11    1    3    3    0    0  0.80803551403E-01 -0.15381265184E+01  0.23346055867E+01  0.27969172149E+01  0.51100000000E-03 0. -1.
        -11    1    3    3    0    0  0.40296388878E+00  0.14091848342E+02  0.15296597818E+02  0.20802126686E+02  0.51100000000E-03 0.  1.
        -12    1    3    3    0    0  0.83824125517E+01  0.88758789431E+00  0.22671961091E+02  0.24188230034E+02  0.00000000000E+00 0.  1.
</event>
<event>
 7    1  0.2339217E-009  0.4778727E+02  0.7816164E-02  0.1312668E+00
        -11   -1    0    0    0    0  0.00000000000E+00  0.00000000000E+00  0.45593999997E+02  0.45594000000E+02  0.51100000000E-03 0.  1.
         11   -1    0    0    0    0 -0.00000000000E+00 -0.00000000000E+00 -0.45593999997E+02  0.45594000000E+02  0.51100000000E-03 0. -1.
    9900012    2    1    2    0    0 -0.17877731480E+02  0.33798449244E+02  0.20534723568E+02  0.47787270442E+02  0.19999997251E+02 0.  0.
         12    1    1    2    0    0  0.17877731480E+02 -0.33798449244E+02 -0.20534723568E+02  0.43400729558E+02  0.00000000000E+00 0. -1.
         11    1    3    3    0    0 -0.16945333375E+01  0.99242303687E+00 -0.20606614161E+01  0.28465193568E+01  0.51100000000E-03 0. -1.
        -11    1    3    3    0    0 -0.95854665187E+01  0.19443565037E+02  0.57054257222E+01  0.22416183276E+02  0.51100000000E-03 0.  1.
        -12    1    3    3    0    0 -0.65977316243E+01  0.13362461171E+02  0.16889959262E+02  0.22524567809E+02  0.00000000000E+00 0.  1.
</event>
<event>
 7    1  0.2339217E-009  0.4778726E+02  0.7816164E-02  0.1312668E+00
        -11   -1    0    0    0    0  0.00000000000E+00  0.00000000000E+00  0.45593999997E+02  0.45594000000E+02  0.51100000000E-03 0.  1.
         11   -1    0    0    0    0 -0.00000000000E+00 -0.00000000000E+00 -0.45593999997E+02  0.45594000000E+02  0.51100000000E-03 0. -1.
    9900012    2    1    2    0    0 -0.14593427275E+02 -0.17398566572E+01  0.40836614406E+02  0.47787259258E+02  0.19999946262E+02 0.  0.
         12    1    1    2    0    0  0.14593427275E+02  0.17398566572E+01 -0.40836614406E+02  0.43400740742E+02  0.00000000000E+00 0. -1.
         11    1    3    3    0    0  0.25399874411E+00  0.37116274391E+01  0.66476600866E+01  0.76178788712E+01  0.51100000000E-03 0. -1.
        -11    1    3    3    0    0 -0.12233493559E+01 -0.62422883970E+01  0.17444345255E+02  0.18567927448E+02  0.51100000000E-03 0.  1.
        -12    1    3    3    0    0 -0.13624076663E+02  0.79080430075E+00  0.16744609064E+02  0.21601452939E+02  0.00000000000E+00 0.  1.
</event>
<event>
 7    1  0.2339217E-009  0.4778727E+02  0.7816164E-02  0.1312668E+00
        -11   -1    0    0    0    0  0.00000000000E+00  0.00000000000E+00  0.45593999997E+02  0.45594000000E+02  0.51100000000E-03 0.  1.
         11   -1    0    0    0    0 -0.00000000000E+00 -0.00000000000E+00 -0.45593999997E+02  0.45594000000E+02  0.51100000000E-03 0. -1.
    9900012    2    1    2    0    0 -0.12691366826E+02 -0.14118270346E+02  0.39028540627E+02  0.47787270364E+02  0.19999996898E+02 0.  0.
         12    1    1    2    0    0  0.12691366826E+02  0.14118270346E+02 -0.39028540627E+02  0.43400729636E+02  0.00000000000E+00 0. -1.
         11    1    3    3    0    0 -0.60092489072E+01 -0.76485178937E+01  0.21736743467E+02  0.23813796740E+02  0.51100000000E-03 0. -1.
        -11    1    3    3    0    0 -0.10956834032E+02 -0.39807585171E+01  0.12244521757E+02  0.16906417825E+02  0.51100000000E-03 0.  1.
         12    1    3    3    0    0  0.42747161131E+01 -0.24889939351E+01  0.50472754038E+01  0.70670557984E+01  0.00000000000E+00 0. -1.
</event>
<event>
 7    1  0.2339217E-009  0.4778727E+02  0.7816164E-02  0.1312668E+00
        -11   -1    0    0    0    0  0.00000000000E+00  0.00000000000E+00  0.45593999997E+02  0.45594000000E+02  0.51100000000E-03 0.  1.
         11   -1    0    0    0    0 -0.00000000000E+00 -0.00000000000E+00 -0.45593999997E+02  0.45594000000E+02  0.51100000000E-03 0. -1.
    9900012    2    1    2    0    0  0.26612298180E+02 -0.38397028511E+00  0.34282085263E+02  0.47787271692E+02  0.20000002955E+02 0.  0.
         12    1    1    2    0    0 -0.26612298180E+02  0.38397028511E+00 -0.34282085263E+02  0.43400728308E+02  0.00000000000E+00 0. -1.
         11    1    3    3    0    0  0.19076020298E+01 -0.27082938431E+01  0.13391819889E+02  0.13795457268E+02  0.51100000000E-03 0. -1.
        -11    1    3    3    0    0  0.41954080705E+01  0.45451002089E+01  0.48907355866E+01  0.78853458786E+01  0.51100000000E-03 0.  1.
         12    1    3    3    0    0  0.20509288080E+02 -0.22207766509E+01  0.15999529788E+02  0.26106468545E+02  0.00000000000E+00 0. -1.
</event>
<event>
 7    1  0.2339217E-009  0.4778727E+02  0.7816164E-02  0.1312668E+00
        -11   -1    0    0    0    0  0.00000000000E+00  0.00000000000E+00  0.45593999997E+02  0.45594000000E+02  0.51100000000E-03 0.  1.
         11   -1    0    0    0    0 -0.00000000000E+00 -0.00000000000E+00 -0.45593999997E+02  0.45594000000E+02  0.51100000000E-03 0. -1.
    9900012    2    1    2    0    0 -0.68814648928E+01 -0.42676017120E+02  0.38763990566E+01  0.47787268832E+02  0.19999989911E+02 0.  0.
         12    1    1    2    0    0  0.68814648928E+01  0.42676017120E+02 -0.38763990566E+01  0.43400731168E+02  0.00000000000E+00 0. -1.
         11    1    3    3    0    0 -0.40875941603E+01 -0.27469264342E+02  0.30116526018E+01  0.27934547807E+02  0.51100000000E-03 0. -1.
        -11    1    3    3    0    0  0.14007074571E+01 -0.15464236100E+02  0.15108384151E+01  0.15600872172E+02  0.51100000000E-03 0.  1.
         12    1    3    3    0    0 -0.41945781896E+01  0.25748332219E+00 -0.64609196024E+00  0.42518488533E+01  0.00000000000E+00 0. -1.
</event>
<event>
 7    1  0.2339217E-009  0.4778727E+02  0.7816164E-02  0.1312668E+00
        -11   -1    0    0    0    0  0.00000000000E+00  0.00000000000E+00  0.45593999997E+02  0.45594000000E+02  0.51100000000E-03 0.  1.
         11   -1    0    0    0    0 -0.00000000000E+00 -0.00000000000E+00 -0.45593999997E+02  0.45594000000E+02  0.51100000000E-03 0. -1.
    9900012    2    1    2    0    0  0.31492026722E+02  0.18345338186E+02  0.23565312178E+02  0.47787272837E+02  0.20000008175E+02 0.  0.
         12    1    1    2    0    0 -0.31492026722E+02 -0.18345338186E+02 -0.23565312178E+02  0.43400727163E+02  0.00000000000E+00 0. -1.
         11    1    3    3    0    0  0.31893383313E+01  0.13602318526E+01 -0.12109517725E+01  0.36726712541E+01  0.51100000000E-03 0. -1.
        -11    1    3    3    0    0  0.22644884584E+01 -0.23791974543E+01  0.53996816148E+01  0.63202096727E+01  0.51100000000E-03 0.  1.
        -12    1    3    3    0    0  0.26038199932E+02  0.19364303788E+02  0.19376582336E+02  0.37794391911E+02  0.00000000000E+00 0.  1.
</event>
<event>
 7    1  0.2339217E-009  0.4778727E+02  0.7816164E-02  0.1312668E+00
        -11   -1    0    0    0    0  0.00000000000E+00  0.00000000000E+00  0.45593999997E+02  0.45594000000E+02  0.51100000000E-03 0.  1.
         11   -1    0    0    0    0 -0.00000000000E+00 -0.00000000000E+00 -0.45593999997E+02  0.45594000000E+02  0.51100000000E-03 0. -1.
    9900012    2    1    2    0    0  0.22221649288E+02 -0.30899353207E+02  0.20857891120E+02  0.47787270194E+02  0.19999996123E+02 0.  0.
         12    1    1    2    0    0 -0.22221649288E+02  0.30899353207E+02 -0.20857891120E+02  0.43400729806E+02  0.00000000000E+00 0. -1.
         11    1    3    3    0    0  0.37382332003E+01 -0.54366553079E+01  0.13897888119E+02  0.15384502034E+02  0.51100000000E-03 0. -1.
        -11    1    3    3    0    0  0.42107930522E+01 -0.38202667529E+01  0.66315765987E+00  0.57240714998E+01  0.51100000000E-03 0.  1.
         12    1    3    3    0    0  0.14272623036E+02 -0.21642431146E+02  0.62968453409E+01  0.26678696660E+02  0.00000000000E+00 0. -1.
</event>
<event>
 7    1  0.2339217E-009  0.4778727E+02  0.7816164E-02  0.1312668E+00
        -11   -1    0    0    0    0  0.00000000000E+00  0.00000000000E+00  0.45593999997E+02  0.45594000000E+02  0.51100000000E-03 0. -1.
         11   -1    0    0    0    0 -0.00000000000E+00 -0.00000000000E+00 -0.45593999997E+02  0.45594000000E+02  0.51100000000E-03 0.  1.
    9900012    2    1    2    0    0  0.25671569553E+02 -0.20654395518E+02 -0.28248713263E+02  0.47787270299E+02  0.19999996602E+02 0.  0.
         12    1    1    2    0    0 -0.25671569553E+02  0.20654395518E+02  0.28248713263E+02  0.43400729701E+02  0.00000000000E+00 0. -1.
         11    1    3    3    0    0  0.22181908701E+01 -0.10050198062E+02 -0.58182516524E+01  0.11822812879E+02  0.51100000000E-03 0. -1.
        -11    1    3    3    0    0  0.47191983102E+01 -0.25585756717E+01 -0.11815871389E+02  0.12978133884E+02  0.51100000000E-03 0.  1.
        -12    1    3    3    0    0  0.18734180373E+02 -0.80456217848E+01 -0.10614590221E+02  0.22986323536E+02  0.00000000000E+00 0.  1.
</event>
<event>
 7    1  0.2339217E-009  0.4778727E+02  0.7816164E-02  0.1312668E+00
        -11   -1    0    0    0    0  0.00000000000E+00  0.00000000000E+00  0.45593999997E+02  0.45594000000E+02  0.51100000000E-03 0.  1.
         11   -1    0    0    0    0 -0.00000000000E+00 -0.00000000000E+00 -0.45593999997E+02  0.45594000000E+02  0.51100000000E-03 0. -1.
    9900012    2    1    2    0    0 -0.40559656010E+02 -0.15198139788E+02  0.27484722969E+01  0.47787271336E+02  0.20000001327E+02 0.  0.
         12    1    1    2    0    0  0.40559656010E+02  0.15198139788E+02 -0.27484722969E+01  0.43400728664E+02  0.00000000000E+00 0. -1.
         11    1    3    3    0    0 -0.32950787612E+02 -0.91630733535E+01 -0.27281251158E+01  0.34309750574E+02  0.51100000000E-03 0. -1.
        -11    1    3    3    0    0 -0.69365229025E+01 -0.91868254311E+00  0.20802837378E+01  0.72997882355E+01  0.51100000000E-03 0.  1.
        -12    1    3    3    0    0 -0.67234549511E+00 -0.51163838910E+01  0.33963136749E+01  0.61777325260E+01  0.00000000000E+00 0.  1.
</event>
<event>
 7    1  0.2339217E-009  0.4778727E+02  0.7816164E-02  0.1312668E+00
        -11   -1    0    0    0    0  0.00000000000E+00  0.00000000000E+00  0.45593999997E+02  0.45594000000E+02  0.51100000000E-03 0.  1.
         11   -1    0    0    0    0 -0.00000000000E+00 -0.00000000000E+00 -0.45593999997E+02  0.45594000000E+02  0.51100000000E-03 0. -1.
    9900012    2    1    2    0    0 -0.38466748926E+01 -0.38527470012E+02  0.19607660425E+02  0.47787271889E+02  0.20000003849E+02 0.  0.
         12    1    1    2    0    0  0.38466748926E+01  0.38527470012E+02 -0.19607660425E+02  0.43400728111E+02  0.00000000000E+00 0. -1.
         11    1    3    3    0    0  0.14842229392E+00 -0.23581759560E+01 -0.25069665508E+01  0.34449825203E+01  0.51100000000E-03 0. -1.
        -11    1    3    3    0    0 -0.66703112707E+01 -0.11019711486E+02  0.50681538288E+01  0.13842444769E+02  0.51100000000E-03 0.  1.
        -12    1    3    3    0    0  0.26752140842E+01 -0.25149582570E+02  0.17046473147E+02  0.30499844600E+02  0.00000000000E+00 0.  1.
</event>
<event>
 7    1  0.2339217E-009  0.4778727E+02  0.7816164E-02  0.1312668E+00
        -11   -1    0    0    0    0  0.00000000000E+00  0.00000000000E+00  0.45593999997E+02  0.45594000000E+02  0.51100000000E-03 0.  1.
         11   -1    0    0    0    0 -0.00000000000E+00 -0.00000000000E+00 -0.45593999997E+02  0.45594000000E+02  0.51100000000E-03 0. -1.
    9900012    2    1    2    0    0  0.13336923790E+02  0.27015244602E+02  0.31239826617E+02  0.47787265626E+02  0.19999975296E+02 0.  0.
         12    1    1    2    0    0 -0.13336923790E+02 -0.27015244602E+02 -0.31239826617E+02  0.43400734374E+02  0.00000000000E+00 0. -1.
         11    1    3    3    0    0 -0.21877936764E+01  0.17486305626E+01  0.20407188237E+01  0.34653547572E+01  0.51100000000E-03 0. -1.
        -11    1    3    3    0    0 -0.18204591484E+01  0.27733065250E+01  0.86485285794E+01  0.92629556537E+01  0.51100000000E-03 0.  1.
         12    1    3    3    0    0  0.17345176615E+02  0.22493307515E+02  0.20550579214E+02  0.35058955215E+02  0.00000000000E+00 0. -1.
</event>
<event>
 7    1  0.2339217E-009  0.4778727E+02  0.7816164E-02  0.1312668E+00
        -11   -1    0    0    0    0  0.00000000000E+00  0.00000000000E+00  0.45593999997E+02  0.45594000000E+02  0.51100000000E-03 0. -1.
         11   -1    0    0    0    0 -0.00000000000E+00 -0.00000000000E+00 -0.45593999997E+02  0.45594000000E+02  0.51100000000E-03 0.  1.
    9900012    2    1    2    0    0  0.28709622281E+02 -0.18445562157E+02 -0.26816821339E+02  0.47787273260E+02  0.20000010103E+02 0.  0.
         12    1    1    2    0    0 -0.28709622281E+02  0.18445562157E+02  0.26816821339E+02  0.43400726740E+02  0.00000000000E+00 0. -1.
         11    1    3    3    0    0  0.12338603386E+02 -0.66620439027E+01 -0.15492225495E+02  0.20895765445E+02  0.51100000000E-03 0.  1.
        -11    1    3    3    0    0  0.74448200385E+00 -0.80252066619E+01 -0.56674269555E+01  0.98528129982E+01  0.51100000000E-03 0. -1.
         12    1    3    3    0    0  0.15626536891E+02 -0.37583115923E+01 -0.56571688886E+01  0.17038694817E+02  0.00000000000E+00 0. -1.
</event>
<event>
 7    1  0.2339217E-009  0.4778727E+02  0.7816164E-02  0.1312668E+00
        -11   -1    0    0    0    0  0.00000000000E+00  0.00000000000E+00  0.45593999997E+02  0.45594000000E+02  0.51100000000E-03 0. -1.
         11   -1    0    0    0    0 -0.00000000000E+00 -0.00000000000E+00 -0.45593999997E+02  0.45594000000E+02  0.51100000000E-03 0.  1.
    9900012    2    1    2    0    0 -0.32851897933E+02  0.63268652242E+01 -0.27646826615E+02  0.47787269094E+02  0.19999991106E+02 0.  0.
         12    1    1    2    0    0  0.32851897933E+02 -0.63268652242E+01  0.27646826615E+02  0.43400730906E+02  0.00000000000E+00 0. -1.
         11    1    3    3    0    0  0.88012766145E+00 -0.60780224829E+00 -0.41893585646E+01  0.43237453345E+01  0.51100000000E-03 0. -1.
        -11    1    3    3    0    0 -0.35706117879E+00 -0.13028331658E+00 -0.43417942221E+01  0.43583992194E+01  0.51100000000E-03 0.  1.
        -12    1    3    3    0    0 -0.33374964415E+02  0.70649507890E+01 -0.19115673828E+02  0.39105124540E+02  0.00000000000E+00 0.  1.
</event>
<event>
 7    1  0.2339217E-009  0.4778727E+02  0.7816164E-02  0.1312668E+00
        -11   -1    0    0    0    0  0.00000000000E+00  0.00000000000E+00  0.45593999997E+02  0.45594000000E+02  0.51100000000E-03 0.  1.
         11   -1    0    0    0    0 -0.00000000000E+00 -0.00000000000E+00 -0.45593999997E+02  0.45594000000E+02  0.51100000000E-03 0. -1.
    9900012    2    1    2    0    0  0.41429458588E+02  0.47417646874E+01  0.12030753521E+02  0.47787269574E+02  0.19999993293E+02 0.  0.
         12    1    1    2    0    0 -0.41429458588E+02 -0.47417646874E+01 -0.12030753521E+02  0.43400730426E+02  0.00000000000E+00 0. -1.
         11    1    3    3    0    0  0.25851583482E+01  0.25905340640E+01 -0.92262361462E+00  0.37742741047E+01  0.51100000000E-03 0. -1.
        -11    1    3    3    0    0  0.99448340289E+01  0.21378031585E+01 -0.35008620733E+01  0.10757600184E+02  0.51100000000E-03 0.  1.
        -12    1    3    3    0    0  0.28899466211E+02  0.13427464886E-01  0.16454239209E+02  0.33255395285E+02  0.00000000000E+00 0.  1.
</event>
<event>
 7    1  0.2339217E-009  0.4778727E+02  0.7816164E-02  0.1312668E+00
        -11   -1    0    0    0    0  0.00000000000E+00  0.00000000000E+00  0.45593999997E+02  0.45594000000E+02  0.51100000000E-03 0.  1.
         11   -1    0    0    0    0 -0.00000000000E+00 -0.00000000000E+00 -0.45593999997E+02  0.45594000000E+02  0.51100000000E-03 0. -1.
    9900012    2    1    2    0    0  0.27977262507E+02 -0.22089172655E+02 -0.24758124410E+02  0.47787268551E+02  0.19999988632E+02 0.  0.
         12    1    1    2    0    0 -0.27977262507E+02  0.22089172655E+02  0.24758124410E+02  0.43400731449E+02  0.00000000000E+00 0. -1.
         11    1    3    3    0    0  0.10616624299E+02 -0.26565593198E+01 -0.55050320449E+01  0.12250526397E+02  0.51100000000E-03 0. -1.
        -11    1    3    3    0    0  0.18641992034E+02 -0.13549136940E+02 -0.11604813519E+02  0.25802609866E+02  0.51100000000E-03 0.  1.
        -12    1    3    3    0    0 -0.12813538248E+01 -0.58834763950E+01 -0.76482788456E+01  0.97341322887E+01  0.00000000000E+00 0.  1.
</event>
<event>
 7    1  0.2339217E-009  0.4778727E+02  0.7816164E-02  0.1312668E+00
        -11   -1    0    0    0    0  0.00000000000E+00  0.00000000000E+00  0.45593999997E+02  0.45594000000E+02  0.51100000000E-03 0.  1.
         11   -1    0    0    0    0 -0.00000000000E+00 -0.00000000000E+00 -0.45593999997E+02  0.45594000000E+02  0.51100000000E-03 0. -1.
    9900012    2    1    2    0    0 -0.55416068076E+01  0.41248352959E+02  0.12308023281E+02  0.47787268843E+02  0.19999989962E+02 0.  0.
         12    1    1    2    0    0  0.55416068076E+01 -0.41248352959E+02 -0.12308023281E+02  0.43400731157E+02  0.00000000000E+00 0. -1.
         11    1    3    3    0    0  0.38390607936E+01  0.68815153858E+01  0.50650670794E+00  0.78962137185E+01  0.51100000000E-03 0. -1.
        -11    1    3    3    0    0 -0.42281593681E+01  0.25612714256E+02  0.24340510726E+01  0.26073225119E+02  0.51100000000E-03 0.  1.
        -12    1    3    3    0    0 -0.51525082332E+01  0.87541233172E+01  0.93674655009E+01  0.13817830005E+02  0.00000000000E+00 0.  1.
</event>
<event>
 7    1  0.2339217E-009  0.4778727E+02  0.7816164E-02  0.1312668E+00
        -11   -1    0    0    0    0  0.00000000000E+00  0.00000000000E+00  0.45593999997E+02  0.45594000000E+02  0.51100000000E-03 0. -1.
         11   -1    0    0    0    0 -0.00000000000E+00 -0.00000000000E+00 -0.45593999997E+02  0.45594000000E+02  0.51100000000E-03 0.  1.
    9900012    2    1    2    0    0  0.36966899811E+02  0.17747780811E+02 -0.14215757109E+02  0.47787272408E+02  0.20000006217E+02 0.  0.
         12    1    1    2    0    0 -0.36966899811E+02 -0.17747780811E+02  0.14215757109E+02  0.43400727592E+02  0.00000000000E+00 0. -1.
         11    1    3    3    0    0  0.97165555805E+00 -0.18098593972E+01 -0.20432728766E+01  0.28973556686E+01  0.51100000000E-03 0. -1.
        -11    1    3    3    0    0  0.14924407267E+02  0.92108875759E+01 -0.12290008797E+02  0.21415478017E+02  0.51100000000E-03 0.  1.
         12    1    3    3    0    0  0.21070836986E+02  0.10346752632E+02  0.11752456400E+00  0.23474438723E+02  0.00000000000E+00 0. -1.
</event>
<event>
 7    1  0.2339217E-009  0.4778727E+02  0.7816164E-02  0.1312668E+00
        -11   -1    0    0    0    0  0.00000000000E+00  0.00000000000E+00  0.45593999997E+02  0.45594000000E+02  0.51100000000E-03 0.  1.
         11   -1    0    0    0    0 -0.00000000000E+00 -0.00000000000E+00 -0.45593999997E+02  0.45594000000E+02  0.51100000000E-03 0. -1.
    9900012    2    1    2    0    0 -0.85231279627E+00  0.21868710452E+02  0.37478744779E+02  0.47787271387E+02  0.20000001564E+02 0.  0.
         12    1    1    2    0    0  0.85231279627E+00 -0.21868710452E+02 -0.37478744779E+02  0.43400728613E+02  0.00000000000E+00 0. -1.
         11    1    3    3    0    0 -0.23827667816E+01  0.22530999151E+01 -0.43414791294E+00  0.33079482212E+01  0.51100000000E-03 0. -1.
        -11    1    3    3    0    0 -0.37283861381E+01  0.98072824744E+01  0.10277247017E+02  0.14686914558E+02  0.51100000000E-03 0.  1.
         12    1    3    3    0    0  0.52588401234E+01  0.98083280623E+01  0.27635645674E+02  0.29792408608E+02  0.00000000000E+00 0. -1.
</event>
<event>
 7    1  0.2339217E-009  0.4778727E+02  0.7816164E-02  0.1312668E+00
        -11   -1    0    0    0    0  0.00000000000E+00  0.00000000000E+00  0.45593999997E+02  0.45594000000E+02  0.51100000000E-03 0. -1.
         11   -1    0    0    0    0 -0.00000000000E+00 -0.00000000000E+00 -0.45593999997E+02  0.45594000000E+02  0.51100000000E-03 0.  1.
    9900012    2    1    2    0    0  0.19705462200E+02  0.17377508032E+02 -0.34544756866E+02  0.47787271287E+02  0.20000001105E+02 0.  0.
         12    1    1    2    0    0 -0.19705462200E+02 -0.17377508032E+02  0.34544756866E+02  0.43400728713E+02  0.00000000000E+00 0. -1.
         11    1    3    3    0    0  0.26992274387E+01 -0.90375297027E+00 -0.83396261392E+01  0.88120350998E+01  0.51100000000E-03 0. -1.
        -11    1    3    3    0    0  0.92024527641E+01  0.10041756377E+02 -0.23728108926E+02  0.27359553386E+02  0.51100000000E-03 0.  1.
         12    1    3    3    0    0  0.78037819969E+01  0.82395046254E+01 -0.24770218003E+01  0.11615682801E+02  0.00000000000E+00 0. -1.
</event>
<event>
 7    1  0.2339217E-009  0.4778728E+02  0.7816164E-02  0.1312668E+00
        -11   -1    0    0    0    0  0.00000000000E+00  0.00000000000E+00  0.45593999997E+02  0.45594000000E+02  0.51100000000E-03 0. -1.
         11   -1    0    0    0    0 -0.00000000000E+00 -0.00000000000E+00 -0.45593999997E+02  0.45594000000E+02  0.51100000000E-03 0.  1.
    9900012    2    1    2    0    0 -0.31997729106E+01  0.41999806762E+02  0.10459442674E+02  0.47787282774E+02  0.20000053479E+02 0.  0.
         12    1    1    2    0    0  0.31997729106E+01 -0.41999806762E+02 -0.10459442674E+02  0.43400717226E+02  0.00000000000E+00 0. -1.
         11    1    3    3    0    0 -0.68603290867E+01  0.21744217798E+02  0.30056376584E+01  0.22998021237E+02  0.51100000000E-03 0. -1.
        -11    1    3    3    0    0  0.25513208814E+01  0.20689400831E+02  0.41203568794E+01  0.21249420841E+02  0.51100000000E-03 0.  1.
         12    1    3    3    0    0  0.11092352947E+01 -0.43381186729E+00  0.33334481366E+01  0.35398406962E+01  0.00000000000E+00 0. -1.
</event>
<event>
 7    1  0.2339217E-009  0.4778728E+02  0.7816164E-02  0.1312668E+00
        -11   -1    0    0    0    0  0.00000000000E+00  0.00000000000E+00  0.45593999997E+02  0.45594000000E+02  0.51100000000E-03 0.  1.
         11   -1    0    0    0    0 -0.00000000000E+00 -0.00000000000E+00 -0.45593999997E+02  0.45594000000E+02  0.51100000000E-03 0. -1.
    9900012    2    1    2    0    0 -0.72161834831E+00 -0.39705527599E+02  0.17509210518E+02  0.47787284477E+02  0.20000061243E+02 0.  0.
         12    1    1    2    0    0  0.72161834831E+00  0.39705527599E+02 -0.17509210518E+02  0.43400715523E+02  0.00000000000E+00 0. -1.
         11    1    3    3    0    0 -0.25346741245E+01 -0.93114362283E+01  0.39829283455E+01  0.10439881993E+02  0.51100000000E-03 0. -1.
        -11    1    3    3    0    0 -0.68293467861E+01 -0.20804641738E+02  0.81803309651E+01  0.23375006103E+02  0.51100000000E-03 0.  1.
         12    1    3    3    0    0  0.86424025624E+01 -0.95894496329E+01  0.53459512073E+01  0.13972396381E+02  0.00000000000E+00 0. -1.
</event>
<event>
 7    1  0.2339217E-009  0.4778727E+02  0.7816164E-02  0.1312668E+00
        -11   -1    0    0    0    0  0.00000000000E+00  0.00000000000E+00  0.45593999997E+02  0.45594000000E+02  0.51100000000E-03 0.  1.
         11   -1    0    0    0    0 -0.00000000000E+00 -0.00000000000E+00 -0.45593999997E+02  0.45594000000E+02  0.51100000000E-03 0. -1.
    9900012    2    1    2    0    0  0.10933536021E+02  0.63918335247E+00  0.41996102078E+02  0.47787270109E+02  0.19999995735E+02 0.  0.
         12    1    1    2    0    0 -0.10933536021E+02 -0.63918335247E+00 -0.41996102078E+02  0.43400729891E+02  0.00000000000E+00 0. -1.
         11    1    3    3    0    0 -0.68579298336E+00  0.40470580853E+01  0.21615899381E+01  0.46391230296E+01  0.51100000000E-03 0. -1.
        -11    1    3    3    0    0  0.28482185171E+01 -0.53310331923E+01  0.77355897453E+01  0.98169044300E+01  0.51100000000E-03 0.  1.
         12    1    3    3    0    0  0.87711104871E+01  0.19231584594E+01  0.32098922395E+02  0.33331242650E+02  0.00000000000E+00 0. -1.
</event>
<event>
 7    1  0.2339217E-009  0.4778727E+02  0.7816164E-02  0.1312668E+00
        -11   -1    0    0    0    0  0.00000000000E+00  0.00000000000E+00  0.45593999997E+02  0.45594000000E+02  0.51100000000E-03 0. -1.
         11   -1    0    0    0    0 -0.00000000000E+00 -0.00000000000E+00 -0.45593999997E+02  0.45594000000E+02  0.51100000000E-03 0.  1.
    9900012    2    1    2    0    0 -0.15951900564E+02 -0.23674142441E+02 -0.32690900656E+02  0.47787272614E+02  0.20000007155E+02 0.  0.
         12    1    1    2    0    0  0.15951900564E+02  0.23674142441E+02  0.32690900656E+02  0.43400727386E+02  0.00000000000E+00 0. -1.
         11    1    3    3    0    0 -0.15012674348E+01  0.69694668905E+00 -0.40018537477E+00  0.17028467909E+01  0.51100000000E-03 0. -1.
        -11    1    3    3    0    0 -0.17313971319E+02 -0.23616115244E+02 -0.31522634229E+02  0.43025236444E+02  0.51100000000E-03 0.  1.
         12    1    3    3    0    0  0.28633381891E+01 -0.75497388668E+00 -0.76808105235E+00  0.30591893792E+01  0.00000000000E+00 0. -1.
</event>
<event>
 7    1  0.2339217E-009  0.4778727E+02  0.7816164E-02  0.1312668E+00
        -11   -1    0    0    0    0  0.00000000000E+00  0.00000000000E+00  0.45593999997E+02  0.45594000000E+02  0.51100000000E-03 0. -1.
         11   -1    0    0    0    0 -0.00000000000E+00 -0.00000000000E+00 -0.45593999997E+02  0.45594000000E+02  0.51100000000E-03 0.  1.
    9900012    2    1    2    0    0 -0.25427783463E+02 -0.35037905173E+02 -0.30653619508E+01  0.47787269422E+02  0.19999992603E+02 0.  0.
         12    1    1    2    0    0  0.25427783463E+02  0.35037905173E+02  0.30653619508E+01  0.43400730578E+02  0.00000000000E+00 0. -1.
         11    1    3    3    0    0  0.60916367821E+00 -0.28156566032E+01 -0.23423948892E+01  0.37129256082E+01  0.51100000000E-03 0. -1.
        -11    1    3    3    0    0 -0.84982073061E+01 -0.17457066797E+02  0.57544885828E+01  0.20250502405E+02  0.51100000000E-03 0.  1.
        -12    1    3    3    0    0 -0.17538739836E+02 -0.14765181774E+02 -0.64774556444E+01  0.23823841409E+02  0.00000000000E+00 0.  1.
</event>
<event>
 7    1  0.2339217E-009  0.4778727E+02  0.7816164E-02  0.1312668E+00
        -11   -1    0    0    0    0  0.00000000000E+00  0.00000000000E+00  0.45593999997E+02  0.45594000000E+02  0.51100000000E-03 0.  1.
         11   -1    0    0    0    0 -0.00000000000E+00 -0.00000000000E+00 -0.45593999997E+02  0.45594000000E+02  0.51100000000E-03 0. -1.
    9900012    2    1    2    0    0 -0.13437988700E+01 -0.28764642384E+02  0.32471723804E+02  0.47787270816E+02  0.19999998960E+02 0.  0.
         12    1    1    2    0    0  0.13437988700E+01  0.28764642384E+02 -0.32471723804E+02  0.43400729184E+02  0.00000000000E+00 0. -1.
         11    1    3    3    0    0 -0.16095569872E+01 -0.11528101130E+01  0.44476391504E+01  0.48683815714E+01  0.51100000000E-03 0. -1.
        -11    1    3    3    0    0 -0.30247139552E+00 -0.30012788395E+02  0.26324255366E+02  0.39922742604E+02  0.51100000000E-03 0.  1.
         12    1    3    3    0    0  0.56822951269E+00  0.24009561239E+01  0.16998292879E+01  0.29961466413E+01  0.00000000000E+00 0. -1.
</event>
<event>
 7    1  0.2339217E-009  0.4778727E+02  0.7816164E-02  0.1312668E+00
        -11   -1    0    0    0    0  0.00000000000E+00  0.00000000000E+00  0.45593999997E+02  0.45594000000E+02  0.51100000000E-03 0.  1.
         11   -1    0    0    0    0 -0.00000000000E+00 -0.00000000000E+00 -0.45593999997E+02  0.45594000000E+02  0.51100000000E-03 0. -1.
    9900012    2    1    2    0    0 -0.19995975857E+02 -0.36855968078E+02  0.11199197250E+02  0.47787268986E+02  0.19999990617E+02 0.  0.
         12    1    1    2    0    0  0.19995975857E+02  0.36855968078E+02 -0.11199197250E+02  0.43400731014E+02  0.00000000000E+00 0. -1.
         11    1    3    3    0    0 -0.47204724000E+01 -0.66513215974E+01 -0.12692914883E+01  0.82543346076E+01  0.51100000000E-03 0. -1.
        -11    1    3    3    0    0  0.11345252311E+01 -0.14911434951E+02  0.33899542216E+01  0.15333943710E+02  0.51100000000E-03 0.  1.
         12    1    3    3    0    0 -0.16410028688E+02 -0.15293211530E+02  0.90785345165E+01  0.24198990669E+02  0.00000000000E+00 0. -1.
</event>
<event>
 7    1  0.2339217E-009  0.4778727E+02  0.7816164E-02  0.1312668E+00
        -11   -1    0    0    0    0  0.00000000000E+00  0.00000000000E+00  0.45593999997E+02  0.45594000000E+02  0.51100000000E-03 0.  1.
         11   -1    0    0    0    0 -0.00000000000E+00 -0.00000000000E+00 -0.45593999997E+02  0.45594000000E+02  0.51100000000E-03 0. -1.
    9900012    2    1    2    0    0  0.14431762766E+02  0.23923645640E+02  0.33211546476E+02  0.47787269400E+02  0.19999992503E+02 0.  0.
         12    1    1    2    0    0 -0.14431762766E+02 -0.23923645640E+02 -0.33211546476E+02  0.43400730600E+02  0.00000000000E+00 0. -1.
         11    1    3    3    0    0  0.38035652984E+01 -0.17462801070E+01  0.97274041912E+01  0.10589570140E+02  0.51100000000E-03 0. -1.
        -11    1    3    3    0    0 -0.38302327375E+00  0.67087997092E+01  0.74580127010E+01  0.10038757596E+02  0.51100000000E-03 0.  1.
        -12    1    3    3    0    0  0.11011220742E+02  0.18961126038E+02  0.16026129584E+02  0.27158941664E+02  0.00000000000E+00 0.  1.
</event>
<event>
 7    1  0.2339217E-009  0.4778727E+02  0.7816164E-02  0.1312668E+00
        -11   -1    0    0    0    0  0.00000000000E+00  0.00000000000E+00  0.45593999997E+02  0.45594000000E+02  0.51100000000E-03 0. -1.
         11   -1    0    0    0    0 -0.00000000000E+00 -0.00000000000E+00 -0.45593999997E+02  0.45594000000E+02  0.51100000000E-03 0.  1.
    9900012    2    1    2    0    0  0.11874284356E+02 -0.93515999179E+01 -0.40683808605E+02  0.47787270368E+02  0.19999996915E+02 0.  0.
         12    1    1    2    0    0 -0.11874284356E+02  0.93515999179E+01  0.40683808605E+02  0.43400729632E+02  0.00000000000E+00 0. -1.
         11    1    3    3    0    0 -0.19661425813E+01  0.31532673769E+01 -0.71819820254E+01  0.80863884320E+01  0.51100000000E-03 0. -1.
        -11    1    3    3    0    0 -0.83529408675E+00 -0.28321614773E+01 -0.18160049578E+01  0.34665154136E+01  0.51100000000E-03 0.  1.
        -12    1    3    3    0    0  0.14675721024E+02 -0.96727058176E+01 -0.31685821622E+02  0.36234366522E+02  0.00000000000E+00 0.  1.
</event>
<event>
 7    1  0.2339217E-009  0.4778727E+02  0.7816164E-02  0.1312668E+00
        -11   -1    0    0    0    0  0.00000000000E+00  0.00000000000E+00  0.45593999997E+02  0.45594000000E+02  0.51100000000E-03 0.  1.
         11   -1    0    0    0    0 -0.00000000000E+00 -0.00000000000E+00 -0.45593999997E+02  0.45594000000E+02  0.51100000000E-03 0. -1.
    9900012    2    1    2    0    0 -0.42575269004E+02  0.72635991033E+01  0.42673547390E+01  0.47787265915E+02  0.19999976611E+02 0.  0.
         12    1    1    2    0    0  0.42575269004E+02 -0.72635991033E+01 -0.42673547390E+01  0.43400734085E+02  0.00000000000E+00 0. -1.
         11    1    3    3    0    0 -0.96403507131E+01 -0.31049534363E+01  0.60410850099E+01  0.11792870985E+02  0.51100000000E-03 0. -1.
        -11    1    3    3    0    0 -0.79921962661E+00  0.27093835373E+01 -0.83343523394E+00  0.29451868725E+01  0.51100000000E-03 0.  1.
        -12    1    3    3    0    0 -0.32135698664E+02  0.76591690023E+01 -0.94029503701E+00  0.33049208057E+02  0.00000000000E+00 0.  1.
</event>
<event>
 7    1  0.2339217E-009  0.4778727E+02  0.7816164E-02  0.1312668E+00
        -11   -1    0    0    0    0  0.00000000000E+00  0.00000000000E+00  0.45593999997E+02  0.45594000000E+02  0.51100000000E-03 0. -1.
         11   -1    0    0    0    0 -0.00000000000E+00 -0.00000000000E+00 -0.45593999997E+02  0.45594000000E+02  0.51100000000E-03 0.  1.
    9900012    2    1    2    0    0 -0.12639988874E+02 -0.36901042724E+02 -0.19030684294E+02  0.47787271693E+02  0.20000002956E+02 0.  0.
         12    1    1    2    0    0  0.12639988874E+02  0.36901042724E+02  0.19030684294E+02  0.43400728307E+02  0.00000000000E+00 0. -1.
         11    1    3    3    0    0 -0.48626701209E+01 -0.74912332813E+01  0.14885696893E+01  0.90542794722E+01  0.51100000000E-03 0. -1.
        -11    1    3    3    0    0 -0.48984562786E+01 -0.97128575770E+01 -0.11169105006E+01  0.10935353929E+02  0.51100000000E-03 0.  1.
         12    1    3    3    0    0 -0.28788624749E+01 -0.19696951866E+02 -0.19402343483E+02  0.27797638292E+02  0.00000000000E+00 0. -1.
</event>
<event>
 7    1  0.2339217E-009  0.4778727E+02  0.7816164E-02  0.1312668E+00
        -11   -1    0    0    0    0  0.00000000000E+00  0.00000000000E+00  0.45593999997E+02  0.45594000000E+02  0.51100000000E-03 0. -1.
         11   -1    0    0    0    0 -0.00000000000E+00 -0.00000000000E+00 -0.45593999997E+02  0.45594000000E+02  0.51100000000E-03 0.  1.
    9900012    2    1    2    0    0  0.21933371777E+02  0.16096111972E+02 -0.33815166124E+02  0.47787273300E+02  0.20000010283E+02 0.  0.
         12    1    1    2    0    0 -0.21933371777E+02 -0.16096111972E+02  0.33815166124E+02  0.43400726700E+02  0.00000000000E+00 0. -1.
         11    1    3    3    0    0  0.65019458536E+00 -0.52495450947E+00  0.29814836456E+00  0.88725585050E+00  0.51100000000E-03 0. -1.
        -11    1    3    3    0    0  0.63986883722E+01  0.63891596334E+01 -0.89226935864E+00  0.90862928950E+01  0.51100000000E-03 0.  1.
         12    1    3    3    0    0  0.14884488819E+02  0.10231906848E+02 -0.33221045130E+02  0.37813724554E+02  0.00000000000E+00 0. -1.
</event>
<event>
 7    1  0.2339217E-009  0.4778727E+02  0.7816164E-02  0.1312668E+00
        -11   -1    0    0    0    0  0.00000000000E+00  0.00000000000E+00  0.45593999997E+02  0.45594000000E+02  0.51100000000E-03 0. -1.
         11   -1    0    0    0    0 -0.00000000000E+00 -0.00000000000E+00 -0.45593999997E+02  0.45594000000E+02  0.51100000000E-03 0.  1.
    9900012    2    1    2    0    0 -0.37156480959E+02  0.17196134158E+02 -0.14398338800E+02  0.47787271119E+02  0.20000000338E+02 0.  0.
         12    1    1    2    0    0  0.37156480959E+02 -0.17196134158E+02  0.14398338800E+02  0.43400728881E+02  0.00000000000E+00 0. -1.
         11    1    3    3    0    0 -0.26188243578E+02  0.11771653659E+02 -0.36780102011E+01  0.28946911595E+02  0.51100000000E-03 0.  1.
        -11    1    3    3    0    0 -0.11875401130E+02  0.41005751622E+01 -0.11521551983E+02  0.17046584086E+02  0.51100000000E-03 0. -1.
        -12    1    3    3    0    0  0.90716374883E+00  0.13239053365E+01  0.80122338449E+00  0.17937754372E+01  0.00000000000E+00 0.  1.
</event>
<event>
 7    1  0.2339217E-009  0.4778726E+02  0.7816164E-02  0.1312668E+00
        -11   -1    0    0    0    0  0.00000000000E+00  0.00000000000E+00  0.45593999997E+02  0.45594000000E+02  0.51100000000E-03 0. -1.
         11   -1    0    0    0    0 -0.00000000000E+00 -0.00000000000E+00 -0.45593999997E+02  0.45594000000E+02  0.51100000000E-03 0.  1.
    9900012    2    1    2    0    0 -0.19765868410E+02  0.35653182451E+02  0.14892444456E+02  0.47787264122E+02  0.19999968437E+02 0.  0.
         12    1    1    2    0    0  0.19765868410E+02 -0.35653182451E+02 -0.14892444456E+02  0.43400735878E+02  0.00000000000E+00 0. -1.
         11    1    3    3    0    0 -0.10867985763E+02  0.20403591673E+02  0.11428477067E+02  0.25788170855E+02  0.51100000000E-03 0. -1.
        -11    1    3    3    0    0 -0.10850729066E+02  0.15961313085E+02  0.42747815450E+01  0.19768044774E+02  0.51100000000E-03 0.  1.
        -12    1    3    3    0    0  0.19528464196E+01 -0.71172230749E+00 -0.81081415547E+00  0.22310484926E+01  0.00000000000E+00 0.  1.
</event>
<event>
 7    1  0.2339217E-009  0.4778727E+02  0.7816164E-02  0.1312668E+00
        -11   -1    0    0    0    0  0.00000000000E+00  0.00000000000E+00  0.45593999997E+02  0.45594000000E+02  0.51100000000E-03 0.  1.
         11   -1    0    0    0    0 -0.00000000000E+00 -0.00000000000E+00 -0.45593999997E+02  0.45594000000E+02  0.51100000000E-03 0. -1.
    9900012    2    1    2    0    0  0.26279126330E+02 -0.33291609751E+02 -0.92032249274E+01  0.47787272938E+02  0.20000008632E+02 0.  0.
         12    1    1    2    0    0 -0.26279126330E+02  0.33291609751E+02  0.92032249274E+01  0.43400727062E+02  0.00000000000E+00 0. -1.
         11    1    3    3    0    0  0.33885486533E+01  0.16914924795E+01 -0.32870564990E+01  0.50147930638E+01  0.51100000000E-03 0. -1.
        -11    1    3    3    0    0  0.72548788634E+01 -0.16746331526E+02 -0.39293161538E+01  0.18668487154E+02  0.51100000000E-03 0.  1.
        -12    1    3    3    0    0  0.15635698813E+02 -0.18236770704E+02 -0.19868522746E+01  0.24103992720E+02  0.00000000000E+00 0.  1.
</event>
<event>
 7    1  0.2339217E-009  0.4778727E+02  0.7816164E-02  0.1312668E+00
        -11   -1    0    0    0    0  0.00000000000E+00  0.00000000000E+00  0.45593999997E+02  0.45594000000E+02  0.51100000000E-03 0.  1.
         11   -1    0    0    0    0 -0.00000000000E+00 -0.00000000000E+00 -0.45593999997E+02  0.45594000000E+02  0.51100000000E-03 0. -1.
    9900012    2    1    2    0    0 -0.26151194865E+02 -0.23203359503E+02  0.25716574055E+02  0.47787273437E+02  0.20000010907E+02 0.  0.
         12    1    1    2    0    0  0.26151194865E+02  0.23203359503E+02 -0.25716574055E+02  0.43400726563E+02  0.00000000000E+00 0. -1.
         11    1    3    3    0    0 -0.10096766170E+02 -0.56626521345E+01  0.15307659738E+02  0.19192049479E+02  0.51100000000E-03 0. -1.
        -11    1    3    3    0    0 -0.14695318316E+02 -0.88944705720E+01  0.99043981667E+01  0.19828290155E+02  0.51100000000E-03 0.  1.
        -12    1    3    3    0    0 -0.13591103791E+01 -0.86462367962E+01  0.50451615120E+00  0.87669338029E+01  0.00000000000E+00 0.  1.
</event>
<event>
 7    1  0.2339217E-009  0.4778728E+02  0.7816164E-02  0.1312668E+00
        -11   -1    0    0    0    0  0.00000000000E+00  0.00000000000E+00  0.45593999997E+02  0.45594000000E+02  0.51100000000E-03 0.  1.
         11   -1    0    0    0    0 -0.00000000000E+00 -0.00000000000E+00 -0.45593999997E+02  0.45594000000E+02  0.51100000000E-03 0. -1.
    9900012    2    1    2    0    0 -0.54589087138E+01  0.38223594131E+02  0.19818679146E+02  0.47787275632E+02  0.20000020914E+02 0.  0.
         12    1    1    2    0    0  0.54589087138E+01 -0.38223594131E+02 -0.19818679146E+02  0.43400724368E+02  0.00000000000E+00 0. -1.
         11    1    3    3    0    0 -0.76655588151E+01  0.33564031225E+02  0.15085012771E+02  0.37588064522E+02  0.51100000000E-03 0. -1.
        -11    1    3    3    0    0 -0.25442754792E+01  0.31002279385E+01  0.17442972530E+01  0.43734796389E+01  0.51100000000E-03 0.  1.
         12    1    3    3    0    0  0.47509255805E+01  0.15593349678E+01  0.29893691223E+01  0.58257314702E+01  0.00000000000E+00 0. -1.
</event>
<event>
 7    1  0.2339217E-009  0.4778727E+02  0.7816164E-02  0.1312668E+00
        -11   -1    0    0    0    0  0.00000000000E+00  0.00000000000E+00  0.45593999997E+02  0.45594000000E+02  0.51100000000E-03 0. -1.
         11   -1    0    0    0    0 -0.00000000000E+00 -0.00000000000E+00 -0.45593999997E+02  0.45594000000E+02  0.51100000000E-03 0.  1.
    9900012    2    1    2    0    0  0.28502705631E+02  0.20777739711E+02 -0.25288436286E+02  0.47787266071E+02  0.19999977324E+02 0.  0.
         12    1    1    2    0    0 -0.28502705631E+02 -0.20777739711E+02  0.25288436286E+02  0.43400733929E+02  0.00000000000E+00 0. -1.
         11    1    3    3    0    0  0.28823746043E+01  0.23488544941E+01 -0.10070400394E+02  0.10734904058E+02  0.51100000000E-03 0. -1.
        -11    1    3    3    0    0  0.82326511206E+01  0.88949212819E+01 -0.11827241974E+02  0.16934574753E+02  0.51100000000E-03 0.  1.
        -12    1    3    3    0    0  0.17387679906E+02  0.95339639350E+01 -0.33907939182E+01  0.20117787260E+02  0.00000000000E+00 0.  1.
</event>
<event>
 7    1  0.2339217E-009  0.4778727E+02  0.7816164E-02  0.1312668E+00
        -11   -1    0    0    0    0  0.00000000000E+00  0.00000000000E+00  0.45593999997E+02  0.45594000000E+02  0.51100000000E-03 0.  1.
         11   -1    0    0    0    0 -0.00000000000E+00 -0.00000000000E+00 -0.45593999997E+02  0.45594000000E+02  0.51100000000E-03 0. -1.
    9900012    2    1    2    0    0  0.26981609721E+02  0.14819162348E+02  0.30594254155E+02  0.47787271629E+02  0.20000002666E+02 0.  0.
         12    1    1    2    0    0 -0.26981609721E+02 -0.14819162348E+02 -0.30594254155E+02  0.43400728371E+02  0.00000000000E+00 0. -1.
         11    1    3    3    0    0  0.30301991486E+01  0.16275372926E+01  0.14226511817E+02  0.14636414289E+02  0.51100000000E-03 0. -1.
        -11    1    3    3    0    0  0.28515046563E+01 -0.12500297784E+01  0.79646733889E+00  0.32137227222E+01  0.51100000000E-03 0.  1.
        -12    1    3    3    0    0  0.21099905916E+02  0.14441654834E+02  0.15571274999E+02  0.29937134618E+02  0.00000000000E+00 0.  1.
</event>
<event>
 7    1  0.2339217E-009  0.4778727E+02  0.7816164E-02  0.1312668E+00
        -11   -1    0    0    0    0  0.00000000000E+00  0.00000000000E+00  0.45593999997E+02  0.45594000000E+02  0.51100000000E-03 0.  1.
         11   -1    0    0    0    0 -0.00000000000E+00 -0.00000000000E+00 -0.45593999997E+02  0.45594000000E+02  0.51100000000E-03 0. -1.
    9900012    2    1    2    0    0  0.18343300023E+02  0.10509355415E+02  0.37903826924E+02  0.47787270715E+02  0.19999998499E+02 0.  0.
         12    1    1    2    0    0 -0.18343300023E+02 -0.10509355415E+02 -0.37903826924E+02  0.43400729285E+02  0.00000000000E+00 0. -1.
         11    1    3    3    0    0 -0.34781041556E+01  0.32853646267E-01  0.24240296742E+01  0.42395999813E+01  0.51100000000E-03 0. -1.
        -11    1    3    3    0    0  0.37786581714E+01  0.52438177058E+01  0.92322727486E+01  0.11269904262E+02  0.51100000000E-03 0.  1.
        -12    1    3    3    0    0  0.18042746008E+02  0.52326840626E+01  0.26247524501E+02  0.32277766472E+02  0.00000000000E+00 0.  1.
</event>
<event>
 7    1  0.2339217E-009  0.4778728E+02  0.7816164E-02  0.1312668E+00
        -11   -1    0    0    0    0  0.00000000000E+00  0.00000000000E+00  0.45593999997E+02  0.45594000000E+02  0.51100000000E-03 0. -1.
         11   -1    0    0    0    0 -0.00000000000E+00 -0.00000000000E+00 -0.45593999997E+02  0.45594000000E+02  0.51100000000E-03 0.  1.
    9900012    2    1    2    0    0 -0.32720027208E+02 -0.18103503040E+02 -0.22029204106E+02  0.47787276085E+02  0.20000022982E+02 0.  0.
         12    1    1    2    0    0  0.32720027208E+02  0.18103503040E+02  0.22029204106E+02  0.43400723915E+02  0.00000000000E+00 0. -1.
         11    1    3    3    0    0 -0.66392745045E+01 -0.30121615493E+01 -0.65449753248E+01  0.97974376961E+01  0.51100000000E-03 0. -1.
        -11    1    3    3    0    0 -0.13709364157E+02  0.52449872452E+00 -0.10960962476E+02  0.17560309313E+02  0.51100000000E-03 0.  1.
         12    1    3    3    0    0 -0.12371388546E+02 -0.15615840216E+02 -0.45232663045E+01  0.20429529076E+02  0.00000000000E+00 0. -1.
</event>
<event>
 7    1  0.2339217E-009  0.4778726E+02  0.7816164E-02  0.1312668E+00
        -11   -1    0    0    0    0  0.00000000000E+00  0.00000000000E+00  0.45593999997E+02  0.45594000000E+02  0.51100000000E-03 0.  1.
         11   -1    0    0    0    0 -0.00000000000E+00 -0.00000000000E+00 -0.45593999997E+02  0.45594000000E+02  0.51100000000E-03 0. -1.
    9900012    2    1    2    0    0  0.44567834487E+01 -0.13635317196E+02  0.40961433539E+02  0.47787264622E+02  0.19999970718E+02 0.  0.
         12    1    1    2    0    0 -0.44567834487E+01  0.13635317196E+02 -0.40961433539E+02  0.43400735378E+02  0.00000000000E+00 0. -1.
         11    1    3    3    0    0  0.15105620037E+01  0.14404823535E+01  0.72128412560E+01  0.75087859354E+01  0.51100000000E-03 0. -1.
        -11    1    3    3    0    0  0.52810464060E+01 -0.12676619399E+02  0.34243358347E+02  0.36894358941E+02  0.51100000000E-03 0.  1.
         12    1    3    3    0    0 -0.23348249610E+01 -0.23991801506E+01 -0.49476606403E+00  0.33841197455E+01  0.00000000000E+00 0. -1.
</event>
<event>
 7    1  0.2339217E-009  0.4778728E+02  0.7816164E-02  0.1312668E+00
        -11   -1    0    0    0    0  0.00000000000E+00  0.00000000000E+00  0.45593999997E+02  0.45594000000E+02  0.51100000000E-03 0.  1.
         11   -1    0    0    0    0 -0.00000000000E+00 -0.00000000000E+00 -0.45593999997E+02  0.45594000000E+02  0.51100000000E-03 0. -1.
    9900012    2    1    2    0    0  0.77345585084E+01 -0.13446988138E+02  0.40533658478E+02  0.47787281631E+02  0.20000048270E+02 0.  0.
         12    1    1    2    0    0 -0.77345585084E+01  0.13446988138E+02 -0.40533658478E+02  0.43400718369E+02  0.00000000000E+00 0. -1.
         11    1    3    3    0    0  0.10799024022E+02 -0.12505650138E+02  0.18689731048E+02  0.24946267298E+02  0.51100000000E-03 0. -1.
        -11    1    3    3    0    0 -0.10269771570E+01 -0.31799973362E+01  0.79978099305E+01  0.86678733888E+01  0.51100000000E-03 0.  1.
        -12    1    3    3    0    0 -0.20374883568E+01  0.22386593359E+01  0.13846117500E+02  0.14173140945E+02  0.00000000000E+00 0.  1.
</event>
<event>
 7    1  0.2339217E-009  0.4778725E+02  0.7816164E-02  0.1312668E+00
        -11   -1    0    0    0    0  0.00000000000E+00  0.00000000000E+00  0.45593999997E+02  0.45594000000E+02  0.51100000000E-03 0.  1.
         11   -1    0    0    0    0 -0.00000000000E+00 -0.00000000000E+00 -0.45593999997E+02  0.45594000000E+02  0.51100000000E-03 0. -1.
    9900012    2    1    2    0    0 -0.29934369720E+02 -0.18071924826E+02  0.25709228779E+02  0.47787246529E+02  0.19999888225E+02 0.  0.
         12    1    1    2    0    0  0.29934369720E+02  0.18071924826E+02 -0.25709228779E+02  0.43400753471E+02  0.00000000000E+00 0. -1.
         11    1    3    3    0    0 -0.70944587490E+01 -0.10499652515E+02  0.69175675204E+01  0.14436993750E+02  0.51100000000E-03 0. -1.
        -11    1    3    3    0    0 -0.18818297755E+02 -0.83824627334E+01  0.85263907250E+01  0.22295590392E+02  0.51100000000E-03 0.  1.
         12    1    3    3    0    0 -0.40216132155E+01  0.81019042181E+00  0.10265270533E+02  0.11054662387E+02  0.00000000000E+00 0. -1.
</event>
<event>
 7    1  0.2339217E-009  0.4778728E+02  0.7816164E-02  0.1312668E+00
        -11   -1    0    0    0    0  0.00000000000E+00  0.00000000000E+00  0.45593999997E+02  0.45594000000E+02  0.51100000000E-03 0.  1.
         11   -1    0    0    0    0 -0.00000000000E+00 -0.00000000000E+00 -0.45593999997E+02  0.45594000000E+02  0.51100000000E-03 0. -1.
    9900012    2    1    2    0    0 -0.40719418999E+02  0.64075771183E+01  0.13582885362E+02  0.47787275318E+02  0.20000019487E+02 0.  0.
         12    1    1    2    0    0  0.40719418999E+02 -0.64075771183E+01 -0.13582885362E+02  0.43400724682E+02  0.00000000000E+00 0. -1.
         11    1    3    3    0    0 -0.36034782460E+01 -0.13107912757E+01  0.40840981304E+01  0.56020609634E+01  0.51100000000E-03 0.  1.
        -11    1    3    3    0    0 -0.28141250870E+02 -0.15442559323E+01  0.58895650260E+01  0.28792389678E+02  0.51100000000E-03 0. -1.
         12    1    3    3    0    0 -0.89746898829E+01  0.92626243264E+01  0.36092222060E+01  0.13392824677E+02  0.00000000000E+00 0. -1.
</event>
<event>
 7    1  0.2339217E-009  0.4778727E+02  0.7816164E-02  0.1312668E+00
        -11   -1    0    0    0    0  0.00000000000E+00  0.00000000000E+00  0.45593999997E+02  0.45594000000E+02  0.51100000000E-03 0.  1.
         11   -1    0    0    0    0 -0.00000000000E+00 -0.00000000000E+00 -0.45593999997E+02  0.45594000000E+02  0.51100000000E-03 0. -1.
    9900012    2    1    2    0    0  0.17802011288E+02  0.33023440401E+01  0.39443708692E+02  0.47787271464E+02  0.20000001913E+02 0.  0.
         12    1    1    2    0    0 -0.17802011288E+02 -0.33023440401E+01 -0.39443708692E+02  0.43400728536E+02  0.00000000000E+00 0. -1.
         11    1    3    3    0    0 -0.98845015388E+00  0.32903682616E+00  0.12342977833E+01  0.16151749808E+01  0.51100000000E-03 0. -1.
        -11    1    3    3    0    0  0.84517495323E+01 -0.56680610324E+00  0.25059073075E+01  0.88336238889E+01  0.51100000000E-03 0.  1.
        -12    1    3    3    0    0  0.10338711909E+02  0.35401133172E+01  0.35703503602E+02  0.37338472594E+02  0.00000000000E+00 0.  1.
</event>
<event>
 7    1  0.2339217E-009  0.4778727E+02  0.7816164E-02  0.1312668E+00
        -11   -1    0    0    0    0  0.00000000000E+00  0.00000000000E+00  0.45593999997E+02  0.45594000000E+02  0.51100000000E-03 0.  1.
         11   -1    0    0    0    0 -0.00000000000E+00 -0.00000000000E+00 -0.45593999997E+02  0.45594000000E+02  0.51100000000E-03 0. -1.
    9900012    2    1    2    0    0 -0.10598054819E+02 -0.22422559959E+01  0.42027096655E+02  0.47787270385E+02  0.19999996992E+02 0.  0.
         12    1    1    2    0    0  0.10598054819E+02  0.22422559959E+01 -0.42027096655E+02  0.43400729615E+02  0.00000000000E+00 0. -1.
         11    1    3    3    0    0 -0.42906366732E+01  0.34636681004E+01  0.44112797900E+01  0.70615826426E+01  0.51100000000E-03 0.  1.
        -11    1    3    3    0    0 -0.59913659986E+01  0.30227618355E+01  0.19310694694E+02  0.20443494942E+02  0.51100000000E-03 0. -1.
         12    1    3    3    0    0 -0.31605214720E+00 -0.87286859318E+01  0.18305122171E+02  0.20282192800E+02  0.00000000000E+00 0. -1.
</event>
<event>
 7    1  0.2339217E-009  0.4778727E+02  0.7816164E-02  0.1312668E+00
        -11   -1    0    0    0    0  0.00000000000E+00  0.00000000000E+00  0.45593999997E+02  0.45594000000E+02  0.51100000000E-03 0. -1.
         11   -1    0    0    0    0 -0.00000000000E+00 -0.00000000000E+00 -0.45593999997E+02  0.45594000000E+02  0.51100000000E-03 0.  1.
    9900012    2    1    2    0    0  0.11795192425E+02  0.31822567103E+02 -0.27052189770E+02  0.47787270597E+02  0.19999997959E+02 0.  0.
         12    1    1    2    0    0 -0.11795192425E+02 -0.31822567103E+02  0.27052189770E+02  0.43400729403E+02  0.00000000000E+00 0. -1.
         11    1    3    3    0    0  0.90981695221E+01  0.20305013833E+02 -0.13338436970E+02  0.25941938564E+02  0.51100000000E-03 0. -1.
        -11    1    3    3    0    0  0.26750721999E+01  0.13272475902E+02 -0.14572438312E+02  0.19891470194E+02  0.51100000000E-03 0.  1.
         12    1    3    3    0    0  0.21950702950E-01 -0.17549226316E+01  0.85868551228E+00  0.19538618389E+01  0.00000000000E+00 0. -1.
</event>
<event>
 7    1  0.2541646E-009  0.4778727E+02  0.7816164E-02  0.1312668E+00
        -11   -1    0    0    0    0  0.00000000000E+00  0.00000000000E+00  0.45593999997E+02  0.45594000000E+02  0.51100000000E-03 0. -1.
         11   -1    0    0    0    0 -0.00000000000E+00 -0.00000000000E+00 -0.45593999997E+02  0.45594000000E+02  0.51100000000E-03 0.  1.
    9900012    2    1    2    0    0 -0.30973108229E+02 -0.26983586349E+01 -0.30282149988E+02  0.47787272119E+02  0.20000004899E+02 0.  0.
         12    1    1    2    0    0  0.30973108229E+02  0.26983586349E+01  0.30282149988E+02  0.43400727881E+02  0.00000000000E+00 0. -1.
         11    1    3    3    0    0 -0.49907535213E+01 -0.49849700620E+01 -0.32804103797E+01  0.77793727092E+01  0.51100000000E-03 0.  1.
        -11    1    3    3    0    0 -0.73329256760E+01 -0.50869118246E+00 -0.17308709236E+02  0.18804839308E+02  0.51100000000E-03 0. -1.
        -12    1    3    3    0    0 -0.18649429032E+02  0.27953026096E+01 -0.96930303721E+01  0.21203060102E+02  0.00000000000E+00 0.  1.
</event>
<event>
 7    1  0.2339217E-009  0.4778727E+02  0.7816164E-02  0.1312668E+00
        -11   -1    0    0    0    0  0.00000000000E+00  0.00000000000E+00  0.45593999997E+02  0.45594000000E+02  0.51100000000E-03 0.  1.
         11   -1    0    0    0    0 -0.00000000000E+00 -0.00000000000E+00 -0.45593999997E+02  0.45594000000E+02  0.51100000000E-03 0. -1.
    9900012    2    1    2    0    0  0.39761913339E+01 -0.33491992069E+02  0.27314827938E+02  0.47787268952E+02  0.19999990458E+02 0.  0.
         12    1    1    2    0    0 -0.39761913339E+01  0.33491992069E+02 -0.27314827938E+02  0.43400731048E+02  0.00000000000E+00 0. -1.
         11    1    3    3    0    0  0.58804467063E+00 -0.41750819567E+01  0.24521631174E+01  0.48775208965E+01  0.51100000000E-03 0. -1.
        -11    1    3    3    0    0 -0.51911299336E+01 -0.24651959402E+02  0.17355812240E+02  0.30592338112E+02  0.51100000000E-03 0.  1.
         12    1    3    3    0    0  0.85792765969E+01 -0.46649507098E+01  0.75068525803E+01  0.12317409943E+02  0.00000000000E+00 0. -1.
</event>
<event>
 7    1  0.2898175E-009  0.4778727E+02  0.7816164E-02  0.1312668E+00
        -11   -1    0    0    0    0  0.00000000000E+00  0.00000000000E+00  0.45593999997E+02  0.45594000000E+02  0.51100000000E-03 0. -1.
         11   -1    0    0    0    0 -0.00000000000E+00 -0.00000000000E+00 -0.45593999997E+02  0.45594000000E+02  0.51100000000E-03 0.  1.
    9900012    2    1    2    0    0  0.21063862975E+02 -0.10030353803E+02 -0.36596846813E+02  0.47787268238E+02  0.19999987204E+02 0.  0.
         12    1    1    2    0    0 -0.21063862975E+02  0.10030353803E+02  0.36596846813E+02  0.43400731762E+02  0.00000000000E+00 0. -1.
         11    1    3    3    0    0  0.41348088242E+01  0.25171643956E+01 -0.48030247251E+01  0.68192233706E+01  0.51100000000E-03 0. -1.
        -11    1    3    3    0    0  0.17269100638E+02 -0.88522334750E+01 -0.17269928767E+02  0.25977573294E+02  0.51100000000E-03 0.  1.
        -12    1    3    3    0    0 -0.34004648758E+00 -0.36952847240E+01 -0.14523893321E+02  0.14990471573E+02  0.00000000000E+00 0.  1.
</event>
<event>
 7    1  0.2339217E-009  0.4778727E+02  0.7816164E-02  0.1312668E+00
        -11   -1    0    0    0    0  0.00000000000E+00  0.00000000000E+00  0.45593999997E+02  0.45594000000E+02  0.51100000000E-03 0. -1.
         11   -1    0    0    0    0 -0.00000000000E+00 -0.00000000000E+00 -0.45593999997E+02  0.45594000000E+02  0.51100000000E-03 0.  1.
    9900012    2    1    2    0    0  0.11686710943E+01  0.22598116025E+02 -0.37034886467E+02  0.47787268950E+02  0.19999990452E+02 0.  0.
         12    1    1    2    0    0 -0.11686710943E+01 -0.22598116025E+02  0.37034886467E+02  0.43400731050E+02  0.00000000000E+00 0. -1.
         11    1    3    3    0    0  0.22670408040E+01  0.46760225626E+01 -0.83124698478E+01  0.98031533827E+01  0.51100000000E-03 0.  1.
        -11    1    3    3    0    0 -0.77578364462E+01  0.59384553640E+01 -0.60574254549E+01  0.11495289550E+02  0.51100000000E-03 0. -1.
         12    1    3    3    0    0  0.66594667366E+01  0.11983638098E+02 -0.22664991165E+02  0.26488826018E+02  0.00000000000E+00 0. -1.
</event>
<event>
 7    1  0.3417254E-009  0.4778726E+02  0.7816164E-02  0.1312668E+00
        -11   -1    0    0    0    0  0.00000000000E+00  0.00000000000E+00  0.45593999997E+02  0.45594000000E+02  0.51100000000E-03 0. -1.
         11   -1    0    0    0    0 -0.00000000000E+00 -0.00000000000E+00 -0.45593999997E+02  0.45594000000E+02  0.51100000000E-03 0.  1.
    9900012    2    1    2    0    0  0.30731529589E+02 -0.38495923411E+01 -0.30403589612E+02  0.47787256534E+02  0.19999933842E+02 0.  0.
         12    1    1    2    0    0 -0.30731529589E+02  0.38495923411E+01  0.30403589612E+02  0.43400743466E+02  0.00000000000E+00 0. -1.
         11    1    3    3    0    0  0.26576457084E+01 -0.15222384828E+01  0.14572293832E+01  0.33917264699E+01  0.51100000000E-03 0. -1.
        -11    1    3    3    0    0  0.87827854406E+01 -0.61153178344E+01 -0.15406423742E+02  0.18758793274E+02  0.51100000000E-03 0.  1.
        -12    1    3    3    0    0  0.19291098440E+02  0.37879639761E+01 -0.16454395253E+02  0.25636736790E+02  0.00000000000E+00 0.  1.
</event>
<event>
 7    1  0.2339217E-009  0.4778727E+02  0.7816164E-02  0.1312668E+00
        -11   -1    0    0    0    0  0.00000000000E+00  0.00000000000E+00  0.45593999997E+02  0.45594000000E+02  0.51100000000E-03 0. -1.
         11   -1    0    0    0    0 -0.00000000000E+00 -0.00000000000E+00 -0.45593999997E+02  0.45594000000E+02  0.51100000000E-03 0.  1.
    9900012    2    1    2    0    0  0.25540585419E+02  0.25410863975E+02  0.24198964220E+02  0.47787269812E+02  0.19999994382E+02 0.  0.
         12    1    1    2    0    0 -0.25540585419E+02 -0.25410863975E+02 -0.24198964220E+02  0.43400730188E+02  0.00000000000E+00 0. -1.
         11    1    3    3    0    0  0.19619684398E+02  0.19022208691E+02  0.14562260848E+02  0.30965075176E+02  0.51100000000E-03 0. -1.
        -11    1    3    3    0    0  0.82340235883E+01  0.74732837723E+01  0.86319858658E+01  0.14076941963E+02  0.51100000000E-03 0.  1.
         12    1    3    3    0    0 -0.23131225677E+01 -0.10846284885E+01  0.10047175061E+01  0.27452526729E+01  0.00000000000E+00 0. -1.
</event>
<event>
 7    1  0.2339217E-009  0.4778727E+02  0.7816164E-02  0.1312668E+00
        -11   -1    0    0    0    0  0.00000000000E+00  0.00000000000E+00  0.45593999997E+02  0.45594000000E+02  0.51100000000E-03 0.  1.
         11   -1    0    0    0    0 -0.00000000000E+00 -0.00000000000E+00 -0.45593999997E+02  0.45594000000E+02  0.51100000000E-03 0. -1.
    9900012    2    1    2    0    0  0.32730967647E+02  0.19038222513E+02 -0.21209739042E+02  0.47787272013E+02  0.20000004417E+02 0.  0.
         12    1    1    2    0    0 -0.32730967647E+02 -0.19038222513E+02  0.21209739042E+02  0.43400727987E+02  0.00000000000E+00 0. -1.
         11    1    3    3    0    0  0.69915404127E+01 -0.18786722125E+01 -0.42605264950E+01  0.84001864801E+01  0.51100000000E-03 0. -1.
        -11    1    3    3    0    0  0.26016858683E+02  0.17122563751E+02 -0.12571479630E+02  0.33587218186E+02  0.51100000000E-03 0.  1.
         12    1    3    3    0    0 -0.27743144853E+00  0.37943309745E+01 -0.43777329169E+01  0.57998673472E+01  0.00000000000E+00 0. -1.
</event>
<event>
 7    1  0.2339217E-009  0.4778727E+02  0.7816164E-02  0.1312668E+00
        -11   -1    0    0    0    0  0.00000000000E+00  0.00000000000E+00  0.45593999997E+02  0.45594000000E+02  0.51100000000E-03 0.  1.
         11   -1    0    0    0    0 -0.00000000000E+00 -0.00000000000E+00 -0.45593999997E+02  0.45594000000E+02  0.51100000000E-03 0. -1.
    9900012    2    1    2    0    0 -0.28669307585E+01  0.88315852949E+01  0.42395843009E+02  0.47787266190E+02  0.19999977867E+02 0.  0.
         12    1    1    2    0    0  0.28669307585E+01 -0.88315852949E+01 -0.42395843009E+02  0.43400733810E+02  0.00000000000E+00 0. -1.
         11    1    3    3    0    0  0.44674055689E+01  0.35431864305E+01  0.20885882307E+01  0.60724034498E+01  0.51100000000E-03 0. -1.
        -11    1    3    3    0    0 -0.17448966562E+01  0.44852928344E+01  0.13869786801E+02  0.14681059305E+02  0.51100000000E-03 0.  1.
         12    1    3    3    0    0 -0.55894396712E+01  0.80310603010E+00  0.26437467977E+02  0.27033803435E+02  0.00000000000E+00 0. -1.
</event>
<event>
 7    1  0.2339217E-009  0.4778727E+02  0.7816164E-02  0.1312668E+00
        -11   -1    0    0    0    0  0.00000000000E+00  0.00000000000E+00  0.45593999997E+02  0.45594000000E+02  0.51100000000E-03 0.  1.
         11   -1    0    0    0    0 -0.00000000000E+00 -0.00000000000E+00 -0.45593999997E+02  0.45594000000E+02  0.51100000000E-03 0. -1.
    9900012    2    1    2    0    0  0.34074564501E+02 -0.26636259978E+02 -0.36134122753E+01  0.47787273741E+02  0.20000012293E+02 0.  0.
         12    1    1    2    0    0 -0.34074564501E+02  0.26636259978E+02  0.36134122753E+01  0.43400726259E+02  0.00000000000E+00 0. -1.
         11    1    3    3    0    0  0.69831463910E+01 -0.57050393233E+01 -0.23118478001E+01  0.93089445004E+01  0.51100000000E-03 0. -1.
        -11    1    3    3    0    0  0.24272795115E+02 -0.15568915353E+02 -0.75155438506E+01  0.29800052141E+02  0.51100000000E-03 0.  1.
         12    1    3    3    0    0  0.28186229953E+01 -0.53623053019E+01  0.62139793753E+01  0.86782770996E+01  0.00000000000E+00 0. -1.
</event>
<event>
 7    1  0.2339217E-009  0.4778727E+02  0.7816164E-02  0.1312668E+00
        -11   -1    0    0    0    0  0.00000000000E+00  0.00000000000E+00  0.45593999997E+02  0.45594000000E+02  0.51100000000E-03 0. -1.
         11   -1    0    0    0    0 -0.00000000000E+00 -0.00000000000E+00 -0.45593999997E+02  0.45594000000E+02  0.51100000000E-03 0.  1.
    9900012    2    1    2    0    0 -0.94063875259E+00  0.32229841135E+02 -0.29051264562E+02  0.47787269205E+02  0.19999991616E+02 0.  0.
         12    1    1    2    0    0  0.94063875259E+00 -0.32229841135E+02  0.29051264562E+02  0.43400730795E+02  0.00000000000E+00 0. -1.
         11    1    3    3    0    0 -0.59311239236E+00  0.40290374997E+00  0.14854657045E+01  0.16494612339E+01  0.51100000000E-03 0. -1.
        -11    1    3    3    0    0 -0.21816847419E+01  0.49343737107E+01 -0.12746468840E+02  0.13841252125E+02  0.51100000000E-03 0.  1.
         12    1    3    3    0    0  0.18341583817E+01  0.26892563674E+02 -0.17790261426E+02  0.32296555847E+02  0.00000000000E+00 0. -1.
</event>
<event>
 7    1  0.2339217E-009  0.4778727E+02  0.7816164E-02  0.1312668E+00
        -11   -1    0    0    0    0  0.00000000000E+00  0.00000000000E+00  0.45593999997E+02  0.45594000000E+02  0.51100000000E-03 0.  1.
         11   -1    0    0    0    0 -0.00000000000E+00 -0.00000000000E+00 -0.45593999997E+02  0.45594000000E+02  0.51100000000E-03 0. -1.
    9900012    2    1    2    0    0 -0.78128256212E+01 -0.17670253185E+02  0.38863156774E+02  0.47787273667E+02  0.20000011958E+02 0.  0.
         12    1    1    2    0    0  0.78128256212E+01  0.17670253185E+02 -0.38863156774E+02  0.43400726333E+02  0.00000000000E+00 0. -1.
         11    1    3    3    0    0 -0.28459258119E+00 -0.33635524084E+01 -0.10379197570E+01  0.35315372607E+01  0.51100000000E-03 0. -1.
        -11    1    3    3    0    0  0.16664732295E+01 -0.15714747025E+00  0.79289250701E+01  0.81036831985E+01  0.51100000000E-03 0.  1.
         12    1    3    3    0    0 -0.91947062695E+01 -0.14149553306E+02  0.31972151460E+02  0.36152053208E+02  0.00000000000E+00 0. -1.
</event>
<event>
 7    1  0.2339217E-009  0.4778727E+02  0.7816164E-02  0.1312668E+00
        -11   -1    0    0    0    0  0.00000000000E+00  0.00000000000E+00  0.45593999997E+02  0.45594000000E+02  0.51100000000E-03 0. -1.
         11   -1    0    0    0    0 -0.00000000000E+00 -0.00000000000E+00 -0.45593999997E+02  0.45594000000E+02  0.51100000000E-03 0.  1.
    9900012    2    1    2    0    0  0.28441598541E+02  0.31619390389E+02 -0.86552104234E+01  0.47787273697E+02  0.20000012096E+02 0.  0.
         12    1    1    2    0    0 -0.28441598541E+02 -0.31619390389E+02  0.86552104234E+01  0.43400726303E+02  0.00000000000E+00 0. -1.
         11    1    3    3    0    0 -0.26488426120E+00  0.12504293344E+01 -0.29442382273E+01  0.32097159052E+01  0.51100000000E-03 0. -1.
        -11    1    3    3    0    0  0.88661991787E+01  0.12291660615E+01 -0.14607288564E+01  0.90694027442E+01  0.51100000000E-03 0.  1.
        -12    1    3    3    0    0  0.19840283623E+02  0.29139794993E+02 -0.42502433397E+01  0.35508155048E+02  0.00000000000E+00 0.  1.
</event>
<event>
 7    1  0.2339217E-009  0.4778727E+02  0.7816164E-02  0.1312668E+00
        -11   -1    0    0    0    0  0.00000000000E+00  0.00000000000E+00  0.45593999997E+02  0.45594000000E+02  0.51100000000E-03 0.  1.
         11   -1    0    0    0    0 -0.00000000000E+00 -0.00000000000E+00 -0.45593999997E+02  0.45594000000E+02  0.51100000000E-03 0. -1.
    9900012    2    1    2    0    0 -0.39498782502E+02  0.12070395050E+02  0.13333221944E+02  0.47787273471E+02  0.20000011064E+02 0.  0.
         12    1    1    2    0    0  0.39498782502E+02 -0.12070395050E+02 -0.13333221944E+02  0.43400726529E+02  0.00000000000E+00 0. -1.
         11    1    3    3    0    0  0.18866096236E+00  0.54747209370E+00  0.20807540735E+01  0.21598278700E+01  0.51100000000E-03 0.  1.
        -11    1    3    3    0    0  0.91204734533E+00 -0.13317235271E+01  0.16944988650E+00  0.16229699436E+01  0.51100000000E-03 0. -1.
        -12    1    3    3    0    0 -0.40599490810E+02  0.12854646484E+02  0.11083017984E+02  0.44004475657E+02  0.00000000000E+00 0.  1.
</event>
<event>
 7    1  0.2339217E-009  0.4778727E+02  0.7816164E-02  0.1312668E+00
        -11   -1    0    0    0    0  0.00000000000E+00  0.00000000000E+00  0.45593999997E+02  0.45594000000E+02  0.51100000000E-03 0. -1.
         11   -1    0    0    0    0 -0.00000000000E+00 -0.00000000000E+00 -0.45593999997E+02  0.45594000000E+02  0.51100000000E-03 0.  1.
    9900012    2    1    2    0    0 -0.71885325841E+01 -0.42459269318E+02 -0.53998989731E+01  0.47787268893E+02  0.19999990189E+02 0.  0.
         12    1    1    2    0    0  0.71885325841E+01  0.42459269318E+02  0.53998989731E+01  0.43400731107E+02  0.00000000000E+00 0. -1.
         11    1    3    3    0    0 -0.43687578226E+01 -0.17678099573E+02  0.37750834908E+01  0.18597110127E+02  0.51100000000E-03 0. -1.
        -11    1    3    3    0    0  0.27291657443E+01 -0.69961741729E+00  0.33668762135E-01  0.28176131809E+01  0.51100000000E-03 0.  1.
         12    1    3    3    0    0 -0.55489405057E+01 -0.24081552327E+02 -0.92086512261E+01  0.26372545585E+02  0.00000000000E+00 0. -1.
</event>
<event>
 7    1  0.2339217E-009  0.4778727E+02  0.7816164E-02  0.1312668E+00
        -11   -1    0    0    0    0  0.00000000000E+00  0.00000000000E+00  0.45593999997E+02  0.45594000000E+02  0.51100000000E-03 0.  1.
         11   -1    0    0    0    0 -0.00000000000E+00 -0.00000000000E+00 -0.45593999997E+02  0.45594000000E+02  0.51100000000E-03 0. -1.
    9900012    2    1    2    0    0  0.31880089896E+02 -0.97434194509E+01  0.27791168770E+02  0.47787269407E+02  0.19999992536E+02 0.  0.
         12    1    1    2    0    0 -0.31880089896E+02  0.97434194509E+01 -0.27791168770E+02  0.43400730593E+02  0.00000000000E+00 0. -1.
         11    1    3    3    0    0  0.16012488523E+01 -0.41673325036E-02 -0.84425257859E+00  0.18101872641E+01  0.51100000000E-03 0. -1.
        -11    1    3    3    0    0  0.31023289531E+02 -0.11186192979E+02  0.29398601717E+02  0.44179782591E+02  0.51100000000E-03 0.  1.
        -12    1    3    3    0    0 -0.74444848658E+00  0.14469408609E+01 -0.76318036848E+00  0.17972995518E+01  0.00000000000E+00 0.  1.
</event>
<event>
 7    1  0.2339217E-009  0.4778727E+02  0.7816164E-02  0.1312668E+00
        -11   -1    0    0    0    0  0.00000000000E+00  0.00000000000E+00  0.45593999997E+02  0.45594000000E+02  0.51100000000E-03 0.  1.
         11   -1    0    0    0    0 -0.00000000000E+00 -0.00000000000E+00 -0.45593999997E+02  0.45594000000E+02  0.51100000000E-03 0. -1.
    9900012    2    1    2    0    0 -0.59031491298E+01 -0.11193450011E+02  0.41514850032E+02  0.47787271136E+02  0.20000000415E+02 0.  0.
         12    1    1    2    0    0  0.59031491298E+01  0.11193450011E+02 -0.41514850032E+02  0.43400728864E+02  0.00000000000E+00 0. -1.
         11    1    3    3    0    0 -0.34517392095E+01 -0.81556554598E+01  0.38898360654E+01  0.96726441279E+01  0.51100000000E-03 0. -1.
        -11    1    3    3    0    0 -0.28099224508E+01 -0.19537575023E+01  0.12395401595E+02  0.12859191791E+02  0.51100000000E-03 0.  1.
         12    1    3    3    0    0  0.35851253055E+00 -0.10840370488E+01  0.25229612372E+02  0.25255435217E+02  0.00000000000E+00 0. -1.
</event>
<event>
 7    1  0.2339217E-009  0.4778727E+02  0.7816164E-02  0.1312668E+00
        -11   -1    0    0    0    0  0.00000000000E+00  0.00000000000E+00  0.45593999997E+02  0.45594000000E+02  0.51100000000E-03 0.  1.
         11   -1    0    0    0    0 -0.00000000000E+00 -0.00000000000E+00 -0.45593999997E+02  0.45594000000E+02  0.51100000000E-03 0. -1.
    9900012    2    1    2    0    0  0.43090348114E+02  0.42495751910E+01 -0.29641586000E+01  0.47787271595E+02  0.20000002511E+02 0.  0.
         12    1    1    2    0    0 -0.43090348114E+02 -0.42495751910E+01  0.29641586000E+01  0.43400728405E+02  0.00000000000E+00 0. -1.
         11    1    3    3    0    0  0.10604646901E+02  0.33237375759E+01 -0.45047589975E+01  0.11991606283E+02  0.51100000000E-03 0. -1.
        -11    1    3    3    0    0  0.20459942850E+02  0.78166050078E+01  0.99835340617E+00  0.21924992248E+02  0.51100000000E-03 0.  1.
         12    1    3    3    0    0  0.12025758362E+02 -0.68907673927E+01  0.54224699127E+00  0.13870673064E+02  0.00000000000E+00 0. -1.
</event>
<event>
 7    1  0.2339217E-009  0.4778727E+02  0.7816164E-02  0.1312668E+00
        -11   -1    0    0    0    0  0.00000000000E+00  0.00000000000E+00  0.45593999997E+02  0.45594000000E+02  0.51100000000E-03 0. -1.
         11   -1    0    0    0    0 -0.00000000000E+00 -0.00000000000E+00 -0.45593999997E+02  0.45594000000E+02  0.51100000000E-03 0.  1.
    9900012    2    1    2    0    0 -0.34799343943E+02  0.12086749453E+02 -0.22946446961E+02  0.47787270981E+02  0.19999999712E+02 0.  0.
         12    1    1    2    0    0  0.34799343943E+02 -0.12086749453E+02  0.22946446961E+02  0.43400729019E+02  0.00000000000E+00 0. -1.
         11    1    3    3    0    0 -0.91410973040E+01  0.62678579647E+01  0.18901144857E+01  0.11243586457E+02  0.51100000000E-03 0. -1.
        -11    1    3    3    0    0 -0.58515740900E+01  0.25035616436E+00 -0.31502397386E+01  0.66503840650E+01  0.51100000000E-03 0.  1.
        -12    1    3    3    0    0 -0.19806672549E+02  0.55685353235E+01 -0.21686321708E+02  0.29893300459E+02  0.00000000000E+00 0.  1.
</event>
<event>
 7    1  0.2339217E-009  0.4778727E+02  0.7816164E-02  0.1312668E+00
        -11   -1    0    0    0    0  0.00000000000E+00  0.00000000000E+00  0.45593999997E+02  0.45594000000E+02  0.51100000000E-03 0.  1.
         11   -1    0    0    0    0 -0.00000000000E+00 -0.00000000000E+00 -0.45593999997E+02  0.45594000000E+02  0.51100000000E-03 0. -1.
    9900012    2    1    2    0    0 -0.26458950638E+02 -0.35741551231E+01  0.34216555021E+02  0.47787270845E+02  0.19999999089E+02 0.  0.
         12    1    1    2    0    0  0.26458950638E+02  0.35741551231E+01 -0.34216555021E+02  0.43400729155E+02  0.00000000000E+00 0. -1.
         11    1    3    3    0    0 -0.40635830271E+01 -0.37514648845E+01  0.10388271443E+02  0.11768703397E+02  0.51100000000E-03 0. -1.
        -11    1    3    3    0    0 -0.19616193693E+02 -0.57671157784E+01  0.18215829821E+02  0.27383775045E+02  0.51100000000E-03 0.  1.
         12    1    3    3    0    0 -0.27791739179E+01  0.59444255398E+01  0.56124537570E+01  0.86347924027E+01  0.00000000000E+00 0. -1.
</event>
<event>
 7    1  0.2339217E-009  0.4778728E+02  0.7816164E-02  0.1312668E+00
        -11   -1    0    0    0    0  0.00000000000E+00  0.00000000000E+00  0.45593999997E+02  0.45594000000E+02  0.51100000000E-03 0.  1.
         11   -1    0    0    0    0 -0.00000000000E+00 -0.00000000000E+00 -0.45593999997E+02  0.45594000000E+02  0.51100000000E-03 0. -1.
    9900012    2    1    2    0    0  0.19116887185E+02 -0.25592214640E+02  0.29380364948E+02  0.47787277998E+02  0.20000031702E+02 0.  0.
         12    1    1    2    0    0 -0.19116887185E+02  0.25592214640E+02 -0.29380364948E+02  0.43400722002E+02  0.00000000000E+00 0. -1.
         11    1    3    3    0    0  0.90178703347E+01 -0.14788769693E+02  0.23641915919E+02  0.29308187985E+02  0.51100000000E-03 0. -1.
        -11    1    3    3    0    0  0.86226895492E+01 -0.10964942298E+02  0.77663761666E+01  0.15965504492E+02  0.51100000000E-03 0.  1.
         12    1    3    3    0    0  0.14763273014E+01  0.16149735150E+00 -0.20279271369E+01  0.25135855203E+01  0.00000000000E+00 0. -1.
</event>
<event>
 7    1  0.2339217E-009  0.4778726E+02  0.7816164E-02  0.1312668E+00
        -11   -1    0    0    0    0  0.00000000000E+00  0.00000000000E+00  0.45593999997E+02  0.45594000000E+02  0.51100000000E-03 0. -1.
         11   -1    0    0    0    0 -0.00000000000E+00 -0.00000000000E+00 -0.45593999997E+02  0.45594000000E+02  0.51100000000E-03 0.  1.
    9900012    2    1    2    0    0 -0.72887400840E+01 -0.36069902413E+02 -0.23010008037E+02  0.47787261965E+02  0.19999958605E+02 0.  0.
         12    1    1    2    0    0  0.72887400840E+01  0.36069902413E+02  0.23010008037E+02  0.43400738035E+02  0.00000000000E+00 0. -1.
         11    1    3    3    0    0 -0.81566087394E+01 -0.16625616826E+02 -0.11968305233E+02  0.22049529051E+02  0.51100000000E-03 0. -1.
        -11    1    3    3    0    0 -0.38168460224E+01 -0.11933573966E+02 -0.11314108416E+02  0.16881574295E+02  0.51100000000E-03 0.  1.
         12    1    3    3    0    0  0.46847146778E+01 -0.75107116214E+01  0.27240561232E+00  0.88561586193E+01  0.00000000000E+00 0. -1.
</event>
<event>
 7    1  0.2339217E-009  0.4778727E+02  0.7816164E-02  0.1312668E+00
        -11   -1    0    0    0    0  0.00000000000E+00  0.00000000000E+00  0.45593999997E+02  0.45594000000E+02  0.51100000000E-03 0.  1.
         11   -1    0    0    0    0 -0.00000000000E+00 -0.00000000000E+00 -0.45593999997E+02  0.45594000000E+02  0.51100000000E-03 0. -1.
    9900012    2    1    2    0    0  0.22229020701E+01  0.30292060442E+02  0.31001182377E+02  0.47787268114E+02  0.19999986639E+02 0.  0.
         12    1    1    2    0    0 -0.22229020701E+01 -0.30292060442E+02 -0.31001182377E+02  0.43400731886E+02  0.00000000000E+00 0. -1.
         11    1    3    3    0    0 -0.70810857435E+01  0.88919310895E+01  0.72378405681E+01  0.13475702214E+02  0.51100000000E-03 0. -1.
        -11    1    3    3    0    0  0.48456901007E+01  0.17412801628E+02  0.14002392050E+02  0.22863800132E+02  0.51100000000E-03 0.  1.
        -12    1    3    3    0    0  0.44582977129E+01  0.39873277248E+01  0.97609497594E+01  0.11447765768E+02  0.00000000000E+00 0.  1.
</event>
<event>
 7    1  0.2339217E-009  0.4778727E+02  0.7816164E-02  0.1312668E+00
        -11   -1    0    0    0    0  0.00000000000E+00  0.00000000000E+00  0.45593999997E+02  0.45594000000E+02  0.51100000000E-03 0. -1.
         11   -1    0    0    0    0 -0.00000000000E+00 -0.00000000000E+00 -0.45593999997E+02  0.45594000000E+02  0.51100000000E-03 0.  1.
    9900012    2    1    2    0    0 -0.13989731218E+02 -0.40674561433E+02 -0.57871273787E+01  0.47787269930E+02  0.19999994918E+02 0.  0.
         12    1    1    2    0    0  0.13989731218E+02  0.40674561433E+02  0.57871273787E+01  0.43400730070E+02  0.00000000000E+00 0. -1.
         11    1    3    3    0    0 -0.43875808263E+01 -0.12656433111E+02  0.84694986775E+00  0.13422126841E+02  0.51100000000E-03 0. -1.
        -11    1    3    3    0    0 -0.64743972497E+01 -0.22122475926E+02 -0.11828289561E+02  0.25908110603E+02  0.51100000000E-03 0.  1.
        -12    1    3    3    0    0 -0.31277531415E+01 -0.58956523963E+01  0.51942123143E+01  0.84570324853E+01  0.00000000000E+00 0.  1.
</event>
<event>
 7    1  0.2339217E-009  0.4778727E+02  0.7816164E-02  0.1312668E+00
        -11   -1    0    0    0    0  0.00000000000E+00  0.00000000000E+00  0.45593999997E+02  0.45594000000E+02  0.51100000000E-03 0. -1.
         11   -1    0    0    0    0 -0.00000000000E+00 -0.00000000000E+00 -0.45593999997E+02  0.45594000000E+02  0.51100000000E-03 0.  1.
    9900012    2    1    2    0    0  0.80752908629E+01  0.34106418958E+02 -0.25596192058E+02  0.47787272074E+02  0.20000004692E+02 0.  0.
         12    1    1    2    0    0 -0.80752908629E+01 -0.34106418958E+02  0.25596192058E+02  0.43400727926E+02  0.00000000000E+00 0. -1.
         11    1    3    3    0    0  0.13647380034E+01 -0.98696311980E+00 -0.45739305036E+01  0.48741611105E+01  0.51100000000E-03 0. -1.
        -11    1    3    3    0    0  0.62380361324E+01  0.92195626447E+01 -0.35313195983E+01  0.11678341000E+02  0.51100000000E-03 0.  1.
         12    1    3    3    0    0  0.47251672711E+00  0.25873819433E+02 -0.17490941956E+02  0.31234769963E+02  0.00000000000E+00 0. -1.
</event>
<event>
 7    1  0.2339217E-009  0.4778727E+02  0.7816164E-02  0.1312668E+00
        -11   -1    0    0    0    0  0.00000000000E+00  0.00000000000E+00  0.45593999997E+02  0.45594000000E+02  0.51100000000E-03 0.  1.
         11   -1    0    0    0    0 -0.00000000000E+00 -0.00000000000E+00 -0.45593999997E+02  0.45594000000E+02  0.51100000000E-03 0. -1.
    9900012    2    1    2    0    0  0.26735106240E+02  0.18216243665E+02  0.28931401901E+02  0.47787268959E+02  0.19999990490E+02 0.  0.
         12    1    1    2    0    0 -0.26735106240E+02 -0.18216243665E+02 -0.28931401901E+02  0.43400731041E+02  0.00000000000E+00 0. -1.
         11    1    3    3    0    0  0.16628606608E+02  0.21247210087E+02  0.19370064294E+02  0.33213760480E+02  0.51100000000E-03 0. -1.
        -11    1    3    3    0    0  0.82803044740E+00  0.34251808266E+00  0.18164675060E+01  0.20254647665E+01  0.51100000000E-03 0.  1.
        -12    1    3    3    0    0  0.92784691852E+01 -0.33734845046E+01  0.77448701015E+01  0.12548043713E+02  0.00000000000E+00 0.  1.
</event>
<event>
 7    1  0.2339217E-009  0.4778727E+02  0.7816164E-02  0.1312668E+00
        -11   -1    0    0    0    0  0.00000000000E+00  0.00000000000E+00  0.45593999997E+02  0.45594000000E+02  0.51100000000E-03 0. -1.
         11   -1    0    0    0    0 -0.00000000000E+00 -0.00000000000E+00 -0.45593999997E+02  0.45594000000E+02  0.51100000000E-03 0.  1.
    9900012    2    1    2    0    0 -0.10044660129E+02 -0.43566900906E+01 -0.41996991888E+02  0.47787271051E+02  0.20000000031E+02 0.  0.
         12    1    1    2    0    0  0.10044660129E+02  0.43566900906E+01  0.41996991888E+02  0.43400728949E+02  0.00000000000E+00 0. -1.
         11    1    3    3    0    0  0.20292865274E+01 -0.39238263822E+00 -0.36219753071E+01  0.41702126243E+01  0.51100000000E-03 0. -1.
        -11    1    3    3    0    0 -0.11076286580E+02 -0.17666390552E+01 -0.96656314488E+01  0.14806402991E+02  0.51100000000E-03 0.  1.
        -12    1    3    3    0    0 -0.99766007630E+00 -0.21976683973E+01 -0.28709385132E+02  0.28810655436E+02  0.00000000000E+00 0.  1.
</event>
<event>
 7    1  0.2339217E-009  0.4778727E+02  0.7816164E-02  0.1312668E+00
        -11   -1    0    0    0    0  0.00000000000E+00  0.00000000000E+00  0.45593999997E+02  0.45594000000E+02  0.51100000000E-03 0. -1.
         11   -1    0    0    0    0 -0.00000000000E+00 -0.00000000000E+00 -0.45593999997E+02  0.45594000000E+02  0.51100000000E-03 0.  1.
    9900012    2    1    2    0    0 -0.16507625149E+02  0.13532616290E+02 -0.37788755158E+02  0.47787269498E+02  0.19999992949E+02 0.  0.
         12    1    1    2    0    0  0.16507625149E+02 -0.13532616290E+02  0.37788755158E+02  0.43400730502E+02  0.00000000000E+00 0. -1.
         11    1    3    3    0    0 -0.11241896948E+02  0.10605376985E+02 -0.34203373899E+02  0.37532986216E+02  0.51100000000E-03 0. -1.
        -11    1    3    3    0    0 -0.54842927571E+01  0.43455392779E+01 -0.47068518674E+01  0.84330085630E+01  0.51100000000E-03 0.  1.
         12    1    3    3    0    0  0.21856455561E+00 -0.14182999727E+01  0.11214706079E+01  0.18212747189E+01  0.00000000000E+00 0. -1.
</event>
<event>
 7    1  0.2339217E-009  0.4778727E+02  0.7816164E-02  0.1312668E+00
        -11   -1    0    0    0    0  0.00000000000E+00  0.00000000000E+00  0.45593999997E+02  0.45594000000E+02  0.51100000000E-03 0.  1.
         11   -1    0    0    0    0 -0.00000000000E+00 -0.00000000000E+00 -0.45593999997E+02  0.45594000000E+02  0.51100000000E-03 0. -1.
    9900012    2    1    2    0    0  0.42077750004E+02  0.47842527638E+01  0.94972175550E+01  0.47787271190E+02  0.20000000665E+02 0.  0.
         12    1    1    2    0    0 -0.42077750004E+02 -0.47842527638E+01 -0.94972175550E+01  0.43400728810E+02  0.00000000000E+00 0. -1.
         11    1    3    3    0    0  0.70525673648E+01  0.36105309321E+01  0.64379806896E+01  0.10208929213E+02  0.51100000000E-03 0. -1.
        -11    1    3    3    0    0  0.61523963910E+01  0.97480818638E+00  0.58817810187E+01  0.85672387947E+01  0.51100000000E-03 0.  1.
         12    1    3    3    0    0  0.28872786249E+02  0.19891364532E+00 -0.28225441533E+01  0.29011103183E+02  0.00000000000E+00 0. -1.
</event>
<event>
 7    1  0.2339217E-009  0.4778727E+02  0.7816164E-02  0.1312668E+00
        -11   -1    0    0    0    0  0.00000000000E+00  0.00000000000E+00  0.45593999997E+02  0.45594000000E+02  0.51100000000E-03 0.  1.
         11   -1    0    0    0    0 -0.00000000000E+00 -0.00000000000E+00 -0.45593999997E+02  0.45594000000E+02  0.51100000000E-03 0. -1.
    9900012    2    1    2    0    0  0.41657679026E+02 -0.52403909630E+01  0.10990870545E+02  0.47787272418E+02  0.20000006263E+02 0.  0.
         12    1    1    2    0    0 -0.41657679026E+02  0.52403909630E+01 -0.10990870545E+02  0.43400727582E+02  0.00000000000E+00 0. -1.
         11    1    3    3    0    0  0.22193064600E+02  0.31174077027E-01 -0.93597820243E+00  0.22212814852E+02  0.51100000000E-03 0. -1.
        -11    1    3    3    0    0  0.86448269903E+01  0.28397008288E+01  0.49264031573E+01  0.10347288670E+02  0.51100000000E-03 0.  1.
        -12    1    3    3    0    0  0.10819787436E+02 -0.81112658688E+01  0.70004455898E+01  0.15227168897E+02  0.00000000000E+00 0.  1.
</event>
<event>
 7    1  0.2339217E-009  0.4778728E+02  0.7816164E-02  0.1312668E+00
        -11   -1    0    0    0    0  0.00000000000E+00  0.00000000000E+00  0.45593999997E+02  0.45594000000E+02  0.51100000000E-03 0. -1.
         11   -1    0    0    0    0 -0.00000000000E+00 -0.00000000000E+00 -0.45593999997E+02  0.45594000000E+02  0.51100000000E-03 0.  1.
    9900012    2    1    2    0    0 -0.16123570057E+02 -0.29551495038E+02  0.27392745789E+02  0.47787275441E+02  0.20000020046E+02 0.  0.
         12    1    1    2    0    0  0.16123570057E+02  0.29551495038E+02 -0.27392745789E+02  0.43400724559E+02  0.00000000000E+00 0. -1.
         11    1    3    3    0    0 -0.47221566480E+01 -0.57606513461E+01  0.40836104751E+01  0.84946890534E+01  0.51100000000E-03 0. -1.
        -11    1    3    3    0    0 -0.89159563963E+01 -0.23703432869E+02  0.12576746115E+02  0.28275812125E+02  0.51100000000E-03 0.  1.
         12    1    3    3    0    0 -0.24854570124E+01 -0.87410822619E-01  0.10732389200E+02  0.11016774262E+02  0.00000000000E+00 0. -1.
</event>
<event>
 7    1  0.2339217E-009  0.4778726E+02  0.7816164E-02  0.1312668E+00
        -11   -1    0    0    0    0  0.00000000000E+00  0.00000000000E+00  0.45593999997E+02  0.45594000000E+02  0.51100000000E-03 0.  1.
         11   -1    0    0    0    0 -0.00000000000E+00 -0.00000000000E+00 -0.45593999997E+02  0.45594000000E+02  0.51100000000E-03 0. -1.
    9900012    2    1    2    0    0  0.78516823244E+01  0.28488429570E+02  0.31786543544E+02  0.47787264002E+02  0.19999967891E+02 0.  0.
         12    1    1    2    0    0 -0.78516823244E+01 -0.28488429570E+02 -0.31786543544E+02  0.43400735998E+02  0.00000000000E+00 0. -1.
         11    1    3    3    0    0  0.51367615705E+01  0.93157402826E+01  0.13207922300E+02  0.16959320393E+02  0.51100000000E-03 0. -1.
        -11    1    3    3    0    0  0.74211193333E+01  0.16658428662E+02  0.17712102246E+02  0.25422329238E+02  0.51100000000E-03 0.  1.
         12    1    3    3    0    0 -0.47061985793E+01  0.25142606257E+01  0.86651899810E+00  0.54056143717E+01  0.00000000000E+00 0. -1.
</event>
<event>
 7    1  0.2339217E-009  0.4778727E+02  0.7816164E-02  0.1312668E+00
        -11   -1    0    0    0    0  0.00000000000E+00  0.00000000000E+00  0.45593999997E+02  0.45594000000E+02  0.51100000000E-03 0.  1.
         11   -1    0    0    0    0 -0.00000000000E+00 -0.00000000000E+00 -0.45593999997E+02  0.45594000000E+02  0.51100000000E-03 0. -1.
    9900012    2    1    2    0    0 -0.43026731240E+02  0.27833315131E+01  0.49575286731E+01  0.47787266987E+02  0.19999981501E+02 0.  0.
         12    1    1    2    0    0  0.43026731240E+02 -0.27833315131E+01 -0.49575286731E+01  0.43400733013E+02  0.00000000000E+00 0. -1.
         11    1    3    3    0    0 -0.70153036338E+01 -0.22324795589E+01  0.33198234276E+01  0.80758701021E+01  0.51100000000E-03 0. -1.
        -11    1    3    3    0    0 -0.64783227591E+01  0.33831175049E+01  0.64459014879E+01  0.97449369457E+01  0.51100000000E-03 0.  1.
        -12    1    3    3    0    0 -0.29533104847E+02  0.16326935670E+01 -0.48081962424E+01  0.29966459939E+02  0.00000000000E+00 0.  1.
</event>
<event>
 7    1  0.2339217E-009  0.4778727E+02  0.7816164E-02  0.1312668E+00
        -11   -1    0    0    0    0  0.00000000000E+00  0.00000000000E+00  0.45593999997E+02  0.45594000000E+02  0.51100000000E-03 0.  1.
         11   -1    0    0    0    0 -0.00000000000E+00 -0.00000000000E+00 -0.45593999997E+02  0.45594000000E+02  0.51100000000E-03 0. -1.
    9900012    2    1    2    0    0 -0.33089599565E+02 -0.53260919006E+01  0.27574161421E+02  0.47787271523E+02  0.20000002180E+02 0.  0.
         12    1    1    2    0    0  0.33089599565E+02  0.53260919006E+01 -0.27574161421E+02  0.43400728477E+02  0.00000000000E+00 0. -1.
         11    1    3    3    0    0 -0.10980161893E+01  0.15476093416E+01 -0.13401353979E+01  0.23230792867E+01  0.51100000000E-03 0. -1.
        -11    1    3    3    0    0 -0.17539218095E+02 -0.25501998896E+01  0.74422468711E+01  0.19222765920E+02  0.51100000000E-03 0.  1.
        -12    1    3    3    0    0 -0.14452365281E+02 -0.43235013527E+01  0.21472049948E+02  0.26241426316E+02  0.00000000000E+00 0.  1.
</event>
<event>
 7    1  0.2339217E-009  0.4778726E+02  0.7816164E-02  0.1312668E+00
        -11   -1    0    0    0    0  0.00000000000E+00  0.00000000000E+00  0.45593999997E+02  0.45594000000E+02  0.51100000000E-03 0. -1.
         11   -1    0    0    0    0 -0.00000000000E+00 -0.00000000000E+00 -0.45593999997E+02  0.45594000000E+02  0.51100000000E-03 0.  1.
    9900012    2    1    2    0    0 -0.42862645307E+02 -0.28795149028E+01  0.61746769835E+01  0.47787255713E+02  0.19999930098E+02 0.  0.
         12    1    1    2    0    0  0.42862645307E+02  0.28795149028E+01 -0.61746769835E+01  0.43400744287E+02  0.00000000000E+00 0. -1.
         11    1    3    3    0    0 -0.28159188433E+02  0.65587572392E+01  0.18193643456E+01  0.28970110055E+02  0.51100000000E-03 0. -1.
        -11    1    3    3    0    0 -0.67942464873E+01 -0.21434897803E+01 -0.21382783895E+00  0.71275561291E+01  0.51100000000E-03 0.  1.
         12    1    3    3    0    0 -0.79092103873E+01 -0.72947823617E+01  0.45691404768E+01  0.11689589529E+02  0.00000000000E+00 0. -1.
</event>
<event>
 7    1  0.2339217E-009  0.4778728E+02  0.7816164E-02  0.1312668E+00
        -11   -1    0    0    0    0  0.00000000000E+00  0.00000000000E+00  0.45593999997E+02  0.45594000000E+02  0.51100000000E-03 0.  1.
         11   -1    0    0    0    0 -0.00000000000E+00 -0.00000000000E+00 -0.45593999997E+02  0.45594000000E+02  0.51100000000E-03 0. -1.
    9900012    2    1    2    0    0 -0.72572141133E+01 -0.13752162705E+01  0.42767559060E+02  0.47787280139E+02  0.20000041466E+02 0.  0.
         12    1    1    2    0    0  0.72572141133E+01  0.13752162705E+01 -0.42767559060E+02  0.43400719861E+02  0.00000000000E+00 0. -1.
         11    1    3    3    0    0 -0.53447014898E+01 -0.37938988341E+01  0.88620126705E+01  0.11022466657E+02  0.51100000000E-03 0. -1.
        -11    1    3    3    0    0 -0.76661456708E+01  0.32646761239E+01  0.21696449114E+02  0.23241424312E+02  0.51100000000E-03 0.  1.
        -12    1    3    3    0    0  0.57536330473E+01 -0.84599356030E+00  0.12209097276E+02  0.13523389170E+02  0.00000000000E+00 0.  1.
</event>
<event>
 7    1  0.2339217E-009  0.4778727E+02  0.7816164E-02  0.1312668E+00
        -11   -1    0    0    0    0  0.00000000000E+00  0.00000000000E+00  0.45593999997E+02  0.45594000000E+02  0.51100000000E-03 0.  1.
         11   -1    0    0    0    0 -0.00000000000E+00 -0.00000000000E+00 -0.45593999997E+02  0.45594000000E+02  0.51100000000E-03 0. -1.
    9900012    2    1    2    0    0 -0.24813189335E+02 -0.34882318697E+02 -0.71521075383E+01  0.47787272300E+02  0.20000005726E+02 0.  0.
         12    1    1    2    0    0  0.24813189335E+02  0.34882318697E+02  0.71521075383E+01  0.43400727700E+02  0.00000000000E+00 0. -1.
         11    1    3    3    0    0 -0.35972410449E+01  0.61660383586E+00  0.17186640830E+01  0.40341231906E+01  0.51100000000E-03 0. -1.
        -11    1    3    3    0    0 -0.57256224694E+01 -0.23487224919E+01 -0.21417861197E+01  0.65487783631E+01  0.51100000000E-03 0.  1.
         12    1    3    3    0    0 -0.15490325821E+02 -0.33150200041E+02 -0.67289855016E+01  0.37204370747E+02  0.00000000000E+00 0. -1.
</event>
<event>
 7    1  0.2339217E-009  0.4778727E+02  0.7816164E-02  0.1312668E+00
        -11   -1    0    0    0    0  0.00000000000E+00  0.00000000000E+00  0.45593999997E+02  0.45594000000E+02  0.51100000000E-03 0. -1.
         11   -1    0    0    0    0 -0.00000000000E+00 -0.00000000000E+00 -0.45593999997E+02  0.45594000000E+02  0.51100000000E-03 0.  1.
    9900012    2    1    2    0    0  0.30466497254E+02 -0.30238960152E+02 -0.64047557517E+01  0.47787273482E+02  0.20000011116E+02 0.  0.
         12    1    1    2    0    0 -0.30466497254E+02  0.30238960152E+02  0.64047557517E+01  0.43400726518E+02  0.00000000000E+00 0. -1.
         11    1    3    3    0    0  0.13377682183E+02 -0.44932084683E+01 -0.39224294143E+01  0.14647073281E+02  0.51100000000E-03 0. -1.
        -11    1    3    3    0    0  0.17711471360E+02 -0.18552306879E+02 -0.50591973964E+00  0.25654244548E+02  0.51100000000E-03 0.  1.
         12    1    3    3    0    0 -0.62265628865E+00 -0.71934448047E+01 -0.19764065977E+01  0.74859556539E+01  0.00000000000E+00 0. -1.
</event>
<event>
 7    1  0.2339217E-009  0.4778726E+02  0.7816164E-02  0.1312668E+00
        -11   -1    0    0    0    0  0.00000000000E+00  0.00000000000E+00  0.45593999997E+02  0.45594000000E+02  0.51100000000E-03 0.  1.
         11   -1    0    0    0    0 -0.00000000000E+00 -0.00000000000E+00 -0.45593999997E+02  0.45594000000E+02  0.51100000000E-03 0. -1.
    9900012    2    1    2    0    0  0.13524752926E+02  0.32879950211E+02  0.24892042684E+02  0.47787264331E+02  0.19999969392E+02 0.  0.
         12    1    1    2    0    0 -0.13524752926E+02 -0.32879950211E+02 -0.24892042684E+02  0.43400735669E+02  0.00000000000E+00 0. -1.
         11    1    3    3    0    0  0.48619648702E+01  0.19851298662E+02  0.16358370181E+02  0.26178407824E+02  0.51100000000E-03 0. -1.
        -11    1    3    3    0    0  0.31504936624E+01  0.41541950288E+01  0.97847656196E+01  0.11087136021E+02  0.51100000000E-03 0.  1.
         12    1    3    3    0    0  0.55122943935E+01  0.88744565205E+01 -0.12510931160E+01  0.10521720487E+02  0.00000000000E+00 0. -1.
</event>
<event>
 7    1  0.2339217E-009  0.4778727E+02  0.7816164E-02  0.1312668E+00
        -11   -1    0    0    0    0  0.00000000000E+00  0.00000000000E+00  0.45593999997E+02  0.45594000000E+02  0.51100000000E-03 0.  1.
         11   -1    0    0    0    0 -0.00000000000E+00 -0.00000000000E+00 -0.45593999997E+02  0.45594000000E+02  0.51100000000E-03 0. -1.
    9900012    2    1    2    0    0  0.32537682952E+02  0.26791004410E+02  0.10352034405E+02  0.47787270220E+02  0.19999996239E+02 0.  0.
         12    1    1    2    0    0 -0.32537682952E+02 -0.26791004410E+02 -0.10352034405E+02  0.43400729780E+02  0.00000000000E+00 0. -1.
         11    1    3    3    0    0  0.73852291100E+01  0.74881072727E+01 -0.33530721758E+01  0.11038861029E+02  0.51100000000E-03 0.  1.
        -11    1    3    3    0    0  0.10305635298E+01  0.31475645915E+01 -0.18688504573E+01  0.38028708024E+01  0.51100000000E-03 0. -1.
        -12    1    3    3    0    0  0.24121890312E+02  0.16155332546E+02  0.15573957038E+02  0.32945538388E+02  0.00000000000E+00 0.  1.
</event>
<event>
 7    1  0.2339217E-009  0.4778727E+02  0.7816164E-02  0.1312668E+00
        -11   -1    0    0    0    0  0.00000000000E+00  0.00000000000E+00  0.45593999997E+02  0.45594000000E+02  0.51100000000E-03 0.  1.
         11   -1    0    0    0    0 -0.00000000000E+00 -0.00000000000E+00 -0.45593999997E+02  0.45594000000E+02  0.51100000000E-03 0. -1.
    9900012    2    1    2    0    0  0.34682373179E+02 -0.24897645110E+02  0.78015199041E+01  0.47787268968E+02  0.19999990531E+02 0.  0.
         12    1    1    2    0    0 -0.34682373179E+02  0.24897645110E+02 -0.78015199041E+01  0.43400731032E+02  0.00000000000E+00 0. -1.
         11    1    3    3    0    0  0.43571933987E+01 -0.83289465240E+01  0.38507289422E+01  0.10157981993E+02  0.51100000000E-03 0. -1.
        -11    1    3    3    0    0  0.15498694913E+02 -0.11917331169E+02  0.86736709803E+01  0.21388428992E+02  0.51100000000E-03 0.  1.
        -12    1    3    3    0    0  0.14826484868E+02 -0.46513674162E+01 -0.47228800184E+01  0.16240857984E+02  0.00000000000E+00 0.  1.
</event>
<event>
 7    1  0.2339217E-009  0.4778727E+02  0.7816164E-02  0.1312668E+00
        -11   -1    0    0    0    0  0.00000000000E+00  0.00000000000E+00  0.45593999997E+02  0.45594000000E+02  0.51100000000E-03 0. -1.
         11   -1    0    0    0    0 -0.00000000000E+00 -0.00000000000E+00 -0.45593999997E+02  0.45594000000E+02  0.51100000000E-03 0.  1.
    9900012    2    1    2    0    0 -0.33832594787E+02  0.23555559957E+02 -0.13568882076E+02  0.47787269180E+02  0.19999991501E+02 0.  0.
         12    1    1    2    0    0  0.33832594787E+02 -0.23555559957E+02  0.13568882076E+02  0.43400730820E+02  0.00000000000E+00 0. -1.
         11    1    3    3    0    0 -0.17949326510E+02  0.14752050829E+02 -0.12460841344E+02  0.26364254078E+02  0.51100000000E-03 0. -1.
        -11    1    3    3    0    0 -0.15464223484E+02  0.77031051672E+01 -0.44828412810E+01  0.17848694725E+02  0.51100000000E-03 0.  1.
         12    1    3    3    0    0 -0.41904479255E+00  0.11004039604E+01  0.33748005489E+01  0.35743203772E+01  0.00000000000E+00 0. -1.
</event>
<event>
 7    1  0.2339217E-009  0.4778726E+02  0.7816164E-02  0.1312668E+00
        -11   -1    0    0    0    0  0.00000000000E+00  0.00000000000E+00  0.45593999997E+02  0.45594000000E+02  0.51100000000E-03 0.  1.
         11   -1    0    0    0    0 -0.00000000000E+00 -0.00000000000E+00 -0.45593999997E+02  0.45594000000E+02  0.51100000000E-03 0. -1.
    9900012    2    1    2    0    0 -0.19598298545E+02 -0.37239010033E+02  0.10620111993E+02  0.47787263222E+02  0.19999964334E+02 0.  0.
         12    1    1    2    0    0  0.19598298545E+02  0.37239010033E+02 -0.10620111993E+02  0.43400736778E+02  0.00000000000E+00 0. -1.
         11    1    3    3    0    0 -0.50745311924E+01 -0.13670254365E+02  0.59777482825E+01  0.15759447833E+02  0.51100000000E-03 0. -1.
        -11    1    3    3    0    0 -0.15711320954E+02 -0.24625791681E+02  0.61337804211E+01  0.29847922618E+02  0.51100000000E-03 0.  1.
         12    1    3    3    0    0  0.11875536016E+01  0.10570360128E+01 -0.14914167104E+01  0.21798927710E+01  0.00000000000E+00 0. -1.
</event>
<event>
 7    1  0.2339217E-009  0.4778730E+02  0.7816164E-02  0.1312668E+00
        -11   -1    0    0    0    0  0.00000000000E+00  0.00000000000E+00  0.45593999997E+02  0.45594000000E+02  0.51100000000E-03 0.  1.
         11   -1    0    0    0    0 -0.00000000000E+00 -0.00000000000E+00 -0.45593999997E+02  0.45594000000E+02  0.51100000000E-03 0. -1.
    9900012    2    1    2    0    0 -0.32122111539E+02 -0.26378036748E+02  0.12489591922E+02  0.47787299790E+02  0.20000131060E+02 0.  0.
         12    1    1    2    0    0  0.32122111539E+02  0.26378036748E+02 -0.12489591922E+02  0.43400700210E+02  0.00000000000E+00 0. -1.
         11    1    3    3    0    0 -0.13968579974E+02 -0.16159994106E+02  0.12892983181E+02  0.24949862757E+02  0.51100000000E-03 0. -1.
        -11    1    3    3    0    0 -0.21643704867E+01  0.15222479840E+01  0.12610429578E+01  0.29312059175E+01  0.51100000000E-03 0.  1.
         12    1    3    3    0    0 -0.15989161078E+02 -0.11740290626E+02 -0.16644342168E+01  0.19906231115E+02  0.00000000000E+00 0. -1.
</event>
<event>
 7    1  0.2339217E-009  0.4778727E+02  0.7816164E-02  0.1312668E+00
        -11   -1    0    0    0    0  0.00000000000E+00  0.00000000000E+00  0.45593999997E+02  0.45594000000E+02  0.51100000000E-03 0.  1.
         11   -1    0    0    0    0 -0.00000000000E+00 -0.00000000000E+00 -0.45593999997E+02  0.45594000000E+02  0.51100000000E-03 0. -1.
    9900012    2    1    2    0    0 -0.14719608021E+02 -0.36516265386E+02  0.18262506598E+02  0.47787266766E+02  0.19999980491E+02 0.  0.
         12    1    1    2    0    0  0.14719608021E+02  0.36516265386E+02 -0.18262506598E+02  0.43400733234E+02  0.00000000000E+00 0. -1.
         11    1    3    3    0    0 -0.78942194950E+01 -0.93936546484E+01  0.13647463064E+02  0.18352457531E+02  0.51100000000E-03 0. -1.
        -11    1    3    3    0    0 -0.62234015469E+01 -0.11301817718E+02  0.42991031600E+01  0.13599415384E+02  0.51100000000E-03 0.  1.
         12    1    3    3    0    0 -0.60198697946E+00 -0.15820793019E+02  0.31594037457E+00  0.15835393851E+02  0.00000000000E+00 0. -1.
</event>
<event>
 7    1  0.2339217E-009  0.4778727E+02  0.7816164E-02  0.1312668E+00
        -11   -1    0    0    0    0  0.00000000000E+00  0.00000000000E+00  0.45593999997E+02  0.45594000000E+02  0.51100000000E-03 0. -1.
         11   -1    0    0    0    0 -0.00000000000E+00 -0.00000000000E+00 -0.45593999997E+02  0.45594000000E+02  0.51100000000E-03 0.  1.
    9900012    2    1    2    0    0  0.22471799432E+02  0.12727438788E+01 -0.37108239510E+02  0.47787273206E+02  0.20000009855E+02 0.  0.
         12    1    1    2    0    0 -0.22471799432E+02 -0.12727438788E+01  0.37108239510E+02  0.43400726794E+02  0.00000000000E+00 0. -1.
         11    1    3    3    0    0 -0.62935592984E+00  0.11558646229E+01 -0.10160584049E+02  0.10245466334E+02  0.51100000000E-03 0. -1.
        -11    1    3    3    0    0  0.35915612256E+01  0.48765971945E+01 -0.62125206563E+01  0.86761699731E+01  0.51100000000E-03 0.  1.
        -12    1    3    3    0    0  0.19509594136E+02 -0.47597179386E+01 -0.20735134805E+02  0.28865636899E+02  0.00000000000E+00 0.  1.
</event>
<event>
 7    1  0.2339217E-009  0.4778727E+02  0.7816164E-02  0.1312668E+00
        -11   -1    0    0    0    0  0.00000000000E+00  0.00000000000E+00  0.45593999997E+02  0.45594000000E+02  0.51100000000E-03 0. -1.
         11   -1    0    0    0    0 -0.00000000000E+00 -0.00000000000E+00 -0.45593999997E+02  0.45594000000E+02  0.51100000000E-03 0.  1.
    9900012    2    1    2    0    0 -0.25683922367E+02  0.23468292291E+02 -0.25946072217E+02  0.47787271035E+02  0.19999999957E+02 0.  0.
         12    1    1    2    0    0  0.25683922367E+02 -0.23468292291E+02  0.25946072217E+02  0.43400728965E+02  0.00000000000E+00 0. -1.
         11    1    3    3    0    0 -0.12465343177E+02  0.41177682163E+01 -0.15509375148E+02  0.20319486050E+02  0.51100000000E-03 0. -1.
        -11    1    3    3    0    0 -0.19056196135E+01  0.18568259356E+01 -0.54221970580E+01  0.60398186946E+01  0.51100000000E-03 0.  1.
         12    1    3    3    0    0 -0.11312959577E+02  0.17493698139E+02 -0.50145000106E+01  0.21427966290E+02  0.00000000000E+00 0. -1.
</event>
<event>
 7    1  0.2339217E-009  0.4778727E+02  0.7816164E-02  0.1312668E+00
        -11   -1    0    0    0    0  0.00000000000E+00  0.00000000000E+00  0.45593999997E+02  0.45594000000E+02  0.51100000000E-03 0.  1.
         11   -1    0    0    0    0 -0.00000000000E+00 -0.00000000000E+00 -0.45593999997E+02  0.45594000000E+02  0.51100000000E-03 0. -1.
    9900012    2    1    2    0    0  0.31433415039E+02 -0.50710253783E+01  0.29493193946E+02  0.47787269954E+02  0.19999995029E+02 0.  0.
         12    1    1    2    0    0 -0.31433415039E+02  0.50710253783E+01 -0.29493193946E+02  0.43400730046E+02  0.00000000000E+00 0. -1.
         11    1    3    3    0    0  0.96218585416E+01  0.45350934097E+01  0.95858026852E+01  0.14319037936E+02  0.51100000000E-03 0. -1.
        -11    1    3    3    0    0  0.16358674943E+02 -0.63092999722E+00  0.12909188362E+02  0.20848296405E+02  0.51100000000E-03 0.  1.
         12    1    3    3    0    0  0.54528815539E+01 -0.89751887907E+01  0.69982028989E+01  0.12619935613E+02  0.00000000000E+00 0. -1.
</event>
<event>
 7    1  0.2339217E-009  0.4778727E+02  0.7816164E-02  0.1312668E+00
        -11   -1    0    0    0    0  0.00000000000E+00  0.00000000000E+00  0.45593999997E+02  0.45594000000E+02  0.51100000000E-03 0. -1.
         11   -1    0    0    0    0 -0.00000000000E+00 -0.00000000000E+00 -0.45593999997E+02  0.45594000000E+02  0.51100000000E-03 0.  1.
    9900012    2    1    2    0    0 -0.28753104459E+02 -0.32487507624E+02  0.12017129525E+01  0.47787270954E+02  0.19999999589E+02 0.  0.
         12    1    1    2    0    0  0.28753104459E+02  0.32487507624E+02 -0.12017129525E+01  0.43400729046E+02  0.00000000000E+00 0. -1.
         11    1    3    3    0    0 -0.14789279237E+02 -0.11080989791E+02  0.39768691673E+01  0.18903084503E+02  0.51100000000E-03 0. -1.
        -11    1    3    3    0    0 -0.78856331075E+01 -0.21419750377E+01 -0.29361650478E+01  0.86828757919E+01  0.51100000000E-03 0.  1.
        -12    1    3    3    0    0 -0.60781921147E+01 -0.19264542795E+02  0.16100883297E+00  0.20201310659E+02  0.00000000000E+00 0.  1.
</event>
<event>
 7    1  0.2339217E-009  0.4778727E+02  0.7816164E-02  0.1312668E+00
        -11   -1    0    0    0    0  0.00000000000E+00  0.00000000000E+00  0.45593999997E+02  0.45594000000E+02  0.51100000000E-03 0. -1.
         11   -1    0    0    0    0 -0.00000000000E+00 -0.00000000000E+00 -0.45593999997E+02  0.45594000000E+02  0.51100000000E-03 0.  1.
    9900012    2    1    2    0    0 -0.35371484959E+02  0.23505310759E+02  0.89432347679E+01  0.47787273852E+02  0.20000012800E+02 0.  0.
         12    1    1    2    0    0  0.35371484959E+02 -0.23505310759E+02 -0.89432347679E+01  0.43400726148E+02  0.00000000000E+00 0. -1.
         11    1    3    3    0    0 -0.19853093299E+02  0.15752718776E+02  0.90884968502E+00  0.25359800283E+02  0.51100000000E-03 0. -1.
        -11    1    3    3    0    0 -0.59929376455E+01  0.70703985798E+00 -0.25396717661E+01  0.65471474647E+01  0.51100000000E-03 0.  1.
         12    1    3    3    0    0 -0.95254540145E+01  0.70455521245E+01  0.10574056849E+02  0.15880326104E+02  0.00000000000E+00 0. -1.
</event>
<event>
 7    1  0.2339217E-009  0.4778727E+02  0.7816164E-02  0.1312668E+00
        -11   -1    0    0    0    0  0.00000000000E+00  0.00000000000E+00  0.45593999997E+02  0.45594000000E+02  0.51100000000E-03 0. -1.
         11   -1    0    0    0    0 -0.00000000000E+00 -0.00000000000E+00 -0.45593999997E+02  0.45594000000E+02  0.51100000000E-03 0.  1.
    9900012    2    1    2    0    0 -0.38792076703E+02  0.13145636518E+02 -0.14352362430E+02  0.47787270954E+02  0.19999999590E+02 0.  0.
         12    1    1    2    0    0  0.38792076703E+02 -0.13145636518E+02  0.14352362430E+02  0.43400729046E+02  0.00000000000E+00 0. -1.
         11    1    3    3    0    0 -0.10039768073E+02  0.69322210269E+01 -0.46112794298E+01  0.13042872750E+02  0.51100000000E-03 0.  1.
        -11    1    3    3    0    0 -0.17610151104E+01  0.39719467216E+01  0.25105813603E+01  0.50180229181E+01  0.51100000000E-03 0. -1.
        -12    1    3    3    0    0 -0.26991293519E+02  0.22414687696E+01 -0.12251664360E+02  0.29726375287E+02  0.00000000000E+00 0.  1.
</event>
<event>
 7    1  0.2339217E-009  0.4778727E+02  0.7816164E-02  0.1312668E+00
        -11   -1    0    0    0    0  0.00000000000E+00  0.00000000000E+00  0.45593999997E+02  0.45594000000E+02  0.51100000000E-03 0. -1.
         11   -1    0    0    0    0 -0.00000000000E+00 -0.00000000000E+00 -0.45593999997E+02  0.45594000000E+02  0.51100000000E-03 0.  1.
    9900012    2    1    2    0    0 -0.41970924841E+02  0.27249214440E+01 -0.10706985627E+02  0.47787271088E+02  0.20000000198E+02 0.  0.
         12    1    1    2    0    0  0.41970924841E+02 -0.27249214440E+01  0.10706985627E+02  0.43400728912E+02  0.00000000000E+00 0. -1.
         11    1    3    3    0    0 -0.15743904540E+01  0.25246300196E+01  0.33797691394E+00  0.29944433027E+01  0.51100000000E-03 0. -1.
        -11    1    3    3    0    0 -0.26228990966E+02  0.28322949204E+01 -0.14317126893E+02  0.30016028790E+02  0.51100000000E-03 0.  1.
        -12    1    3    3    0    0 -0.14167543422E+02 -0.26320034960E+01  0.32721643516E+01  0.14776798995E+02  0.00000000000E+00 0.  1.
</event>
<event>
 7    1  0.2339217E-009  0.4778727E+02  0.7816164E-02  0.1312668E+00
        -11   -1    0    0    0    0  0.00000000000E+00  0.00000000000E+00  0.45593999997E+02  0.45594000000E+02  0.51100000000E-03 0.  1.
         11   -1    0    0    0    0 -0.00000000000E+00 -0.00000000000E+00 -0.45593999997E+02  0.45594000000E+02  0.51100000000E-03 0. -1.
    9900012    2    1    2    0    0 -0.61811653166E+01  0.42670298523E+02  0.49660910773E+01  0.47787271419E+02  0.20000001710E+02 0.  0.
         12    1    1    2    0    0  0.61811653166E+01 -0.42670298523E+02 -0.49660910773E+01  0.43400728581E+02  0.00000000000E+00 0. -1.
         11    1    3    3    0    0  0.37544402355E-01  0.43090921301E+00 -0.20317582287E+01  0.20772900840E+01  0.51100000000E-03 0. -1.
        -11    1    3    3    0    0  0.50789953891E+00  0.16271964152E+02 -0.39258066169E+01  0.16746544036E+02  0.51100000000E-03 0.  1.
         12    1    3    3    0    0 -0.67266092578E+01  0.25967425158E+02  0.10923655923E+02  0.28963437299E+02  0.00000000000E+00 0. -1.
</event>
<event>
 7    1  0.2339217E-009  0.4778727E+02  0.7816164E-02  0.1312668E+00
        -11   -1    0    0    0    0  0.00000000000E+00  0.00000000000E+00  0.45593999997E+02  0.45594000000E+02  0.51100000000E-03 0.  1.
         11   -1    0    0    0    0 -0.00000000000E+00 -0.00000000000E+00 -0.45593999997E+02  0.45594000000E+02  0.51100000000E-03 0. -1.
    9900012    2    1    2    0    0  0.23337284185E+02 -0.35871967018E+02 -0.72247015137E+01  0.47787272324E+02  0.20000005834E+02 0.  0.
         12    1    1    2    0    0 -0.23337284185E+02  0.35871967018E+02  0.72247015137E+01  0.43400727676E+02  0.00000000000E+00 0. -1.
         11    1    3    3    0    0  0.52510329546E+01 -0.11434430788E+02 -0.11630679348E+01  0.12636149802E+02  0.51100000000E-03 0. -1.
        -11    1    3    3    0    0  0.12982348463E+02 -0.25034797164E+02 -0.14362278469E+01  0.28237301417E+02  0.51100000000E-03 0.  1.
         12    1    3    3    0    0  0.51039027673E+01  0.59726093400E+00 -0.46254057319E+01  0.69138211046E+01  0.00000000000E+00 0. -1.
</event>
<event>
 7    1  0.2339217E-009  0.4778727E+02  0.7816164E-02  0.1312668E+00
        -11   -1    0    0    0    0  0.00000000000E+00  0.00000000000E+00  0.45593999997E+02  0.45594000000E+02  0.51100000000E-03 0.  1.
         11   -1    0    0    0    0 -0.00000000000E+00 -0.00000000000E+00 -0.45593999997E+02  0.45594000000E+02  0.51100000000E-03 0. -1.
    9900012    2    1    2    0    0  0.14189912607E+02  0.23124461943E+02  0.33875199357E+02  0.47787268538E+02  0.19999988573E+02 0.  0.
         12    1    1    2    0    0 -0.14189912607E+02 -0.23124461943E+02 -0.33875199357E+02  0.43400731462E+02  0.00000000000E+00 0. -1.
         11    1    3    3    0    0 -0.34177372423E+01  0.25578037979E+01  0.33240386905E+01  0.54104086355E+01  0.51100000000E-03 0. -1.
        -11    1    3    3    0    0  0.64839514207E+01  0.13706442512E+02  0.10502857854E+02  0.18445005170E+02  0.51100000000E-03 0.  1.
        -12    1    3    3    0    0  0.11123698429E+02  0.68602156326E+01  0.20048302813E+02  0.23931854733E+02  0.00000000000E+00 0.  1.
</event>
<event>
 7    1  0.2339217E-009  0.4778727E+02  0.7816164E-02  0.1312668E+00
        -11   -1    0    0    0    0  0.00000000000E+00  0.00000000000E+00  0.45593999997E+02  0.45594000000E+02  0.51100000000E-03 0. -1.
         11   -1    0    0    0    0 -0.00000000000E+00 -0.00000000000E+00 -0.45593999997E+02  0.45594000000E+02  0.51100000000E-03 0.  1.
    9900012    2    1    2    0    0  0.14963916141E+02  0.28271341574E+02 -0.29333188296E+02  0.47787268713E+02  0.19999989368E+02 0.  0.
         12    1    1    2    0    0 -0.14963916141E+02 -0.28271341574E+02  0.29333188296E+02  0.43400731287E+02  0.00000000000E+00 0. -1.
         11    1    3    3    0    0 -0.27405769124E+01  0.12893985847E+02 -0.12641591680E+02  0.18264048656E+02  0.51100000000E-03 0. -1.
        -11    1    3    3    0    0  0.55701643804E+01  0.16436140915E+01 -0.24040946611E+01  0.62855286100E+01  0.51100000000E-03 0.  1.
        -12    1    3    3    0    0  0.12134328673E+02  0.13733741636E+02 -0.14287501955E+02  0.23237691447E+02  0.00000000000E+00 0.  1.
</event>
<event>
 7    1  0.2339217E-009  0.4778727E+02  0.7816164E-02  0.1312668E+00
        -11   -1    0    0    0    0  0.00000000000E+00  0.00000000000E+00  0.45593999997E+02  0.45594000000E+02  0.51100000000E-03 0.  1.
         11   -1    0    0    0    0 -0.00000000000E+00 -0.00000000000E+00 -0.45593999997E+02  0.45594000000E+02  0.51100000000E-03 0. -1.
    9900012    2    1    2    0    0 -0.18570246895E+02  0.37043373821E+02 -0.12905738667E+02  0.47787266085E+02  0.19999977389E+02 0.  0.
         12    1    1    2    0    0  0.18570246895E+02 -0.37043373821E+02  0.12905738667E+02  0.43400733915E+02  0.00000000000E+00 0. -1.
         11    1    3    3    0    0 -0.15411003341E+02  0.25299201266E+02 -0.75130829919E+01  0.30561332186E+02  0.51100000000E-03 0. -1.
        -11    1    3    3    0    0 -0.38954906984E+01  0.86337756741E+01  0.15359111032E+01  0.95956215718E+01  0.51100000000E-03 0.  1.
         12    1    3    3    0    0  0.73624714436E+00  0.31103968812E+01 -0.69285667783E+01  0.76303123276E+01  0.00000000000E+00 0. -1.
</event>
<event>
 7    1  0.2339217E-009  0.4778727E+02  0.7816164E-02  0.1312668E+00
        -11   -1    0    0    0    0  0.00000000000E+00  0.00000000000E+00  0.45593999997E+02  0.45594000000E+02  0.51100000000E-03 0.  1.
         11   -1    0    0    0    0 -0.00000000000E+00 -0.00000000000E+00 -0.45593999997E+02  0.45594000000E+02  0.51100000000E-03 0. -1.
    9900012    2    1    2    0    0  0.44845305100E+01  0.36241630851E+02  0.23453286447E+02  0.47787268833E+02  0.19999989919E+02 0.  0.
         12    1    1    2    0    0 -0.44845305100E+01 -0.36241630851E+02 -0.23453286447E+02  0.43400731167E+02  0.00000000000E+00 0. -1.
         11    1    3    3    0    0 -0.78905229087E+00  0.12939771085E+02  0.18768339652E+01  0.13098961228E+02  0.51100000000E-03 0. -1.
        -11    1    3    3    0    0 -0.33983457356E+01  0.13686105245E+02  0.12809528220E+02  0.19051043121E+02  0.51100000000E-03 0.  1.
        -12    1    3    3    0    0  0.86719285365E+01  0.96157545204E+01  0.87669242619E+01  0.15637264484E+02  0.00000000000E+00 0.  1.
</event>
<event>
 7    1  0.2339217E-009  0.4778727E+02  0.7816164E-02  0.1312668E+00
        -11   -1    0    0    0    0  0.00000000000E+00  0.00000000000E+00  0.45593999997E+02  0.45594000000E+02  0.51100000000E-03 0.  1.
         11   -1    0    0    0    0 -0.00000000000E+00 -0.00000000000E+00 -0.45593999997E+02  0.45594000000E+02  0.51100000000E-03 0. -1.
    9900012    2    1    2    0    0  0.22014224938E+02  0.72716738362E+01  0.36689504438E+02  0.47787273326E+02  0.20000010401E+02 0.  0.
         12    1    1    2    0    0 -0.22014224938E+02 -0.72716738362E+01 -0.36689504438E+02  0.43400726674E+02  0.00000000000E+00 0. -1.
         11    1    3    3    0    0  0.11109515064E+02 -0.17788833399E+01  0.73014306220E+01  0.13412555323E+02  0.51100000000E-03 0. -1.
        -11    1    3    3    0    0  0.11886698636E+02  0.38832533598E+01  0.19284085054E+02  0.22983672417E+02  0.51100000000E-03 0.  1.
        -12    1    3    3    0    0 -0.98198876208E+00  0.51673038163E+01  0.10103988761E+02  0.11391045586E+02  0.00000000000E+00 0.  1.
</event>
<event>
 7    1  0.2339217E-009  0.4778728E+02  0.7816164E-02  0.1312668E+00
        -11   -1    0    0    0    0  0.00000000000E+00  0.00000000000E+00  0.45593999997E+02  0.45594000000E+02  0.51100000000E-03 0. -1.
         11   -1    0    0    0    0 -0.00000000000E+00 -0.00000000000E+00 -0.45593999997E+02  0.45594000000E+02  0.51100000000E-03 0.  1.
    9900012    2    1    2    0    0  0.89606185316E+01 -0.36300843396E+02 -0.22035856310E+02  0.47787275593E+02  0.20000020739E+02 0.  0.
         12    1    1    2    0    0 -0.89606185316E+01  0.36300843396E+02  0.22035856310E+02  0.43400724407E+02  0.00000000000E+00 0. -1.
         11    1    3    3    0    0  0.98319714623E+00 -0.14190670774E+02 -0.44633108595E+01  0.14908486098E+02  0.51100000000E-03 0. -1.
        -11    1    3    3    0    0  0.77252492699E+01 -0.19989876608E+02 -0.76906747804E+01  0.22768862991E+02  0.51100000000E-03 0.  1.
        -12    1    3    3    0    0  0.25217211548E+00 -0.21202960136E+01 -0.98818706702E+01  0.10109926503E+02  0.00000000000E+00 0.  1.
</event>
<event>
 7    1  0.2339217E-009  0.4778727E+02  0.7816164E-02  0.1312668E+00
        -11   -1    0    0    0    0  0.00000000000E+00  0.00000000000E+00  0.45593999997E+02  0.45594000000E+02  0.51100000000E-03 0.  1.
         11   -1    0    0    0    0 -0.00000000000E+00 -0.00000000000E+00 -0.45593999997E+02  0.45594000000E+02  0.51100000000E-03 0. -1.
    9900012    2    1    2    0    0 -0.98324627847E+01  0.38667303272E+02 -0.17081735866E+02  0.47787269972E+02  0.19999995112E+02 0.  0.
         12    1    1    2    0    0  0.98324627847E+01 -0.38667303272E+02  0.17081735866E+02  0.43400730028E+02  0.00000000000E+00 0. -1.
         11    1    3    3    0    0  0.37238533631E+01  0.73703448915E+01 -0.50659716305E+01  0.96877828480E+01  0.51100000000E-03 0. -1.
        -11    1    3    3    0    0 -0.38170362264E+01  0.45474990003E+01  0.21346455406E+01  0.63092174282E+01  0.51100000000E-03 0.  1.
         12    1    3    3    0    0 -0.97392799214E+01  0.26749459380E+02 -0.14150409777E+02  0.31790269696E+02  0.00000000000E+00 0. -1.
</event>
<event>
 7    1  0.2339217E-009  0.4778727E+02  0.7816164E-02  0.1312668E+00
        -11   -1    0    0    0    0  0.00000000000E+00  0.00000000000E+00  0.45593999997E+02  0.45594000000E+02  0.51100000000E-03 0.  1.
         11   -1    0    0    0    0 -0.00000000000E+00 -0.00000000000E+00 -0.45593999997E+02  0.45594000000E+02  0.51100000000E-03 0. -1.
    9900012    2    1    2    0    0  0.50083121184E+01 -0.42345428509E+02  0.80873222692E+01  0.47787270889E+02  0.19999999289E+02 0.  0.
         12    1    1    2    0    0 -0.50083121184E+01  0.42345428509E+02 -0.80873222692E+01  0.43400729111E+02  0.00000000000E+00 0. -1.
         11    1    3    3    0    0 -0.13393479144E+01 -0.56154091621E+00  0.46244896912E+00  0.15241523371E+01  0.51100000000E-03 0. -1.
        -11    1    3    3    0    0  0.78649005479E+01 -0.12751437456E+02 -0.30573587151E+01  0.15290626553E+02  0.51100000000E-03 0.  1.
        -12    1    3    3    0    0 -0.15172405151E+01 -0.29032450137E+02  0.10682232015E+02  0.30972491998E+02  0.00000000000E+00 0.  1.
</event>
<event>
 7    1  0.2339217E-009  0.4778727E+02  0.7816164E-02  0.1312668E+00
        -11   -1    0    0    0    0  0.00000000000E+00  0.00000000000E+00  0.45593999997E+02  0.45594000000E+02  0.51100000000E-03 0.  1.
         11   -1    0    0    0    0 -0.00000000000E+00 -0.00000000000E+00 -0.45593999997E+02  0.45594000000E+02  0.51100000000E-03 0. -1.
    9900012    2    1    2    0    0 -0.21602630454E+02 -0.35269263295E+02  0.13154043060E+02  0.47787269307E+02  0.19999992078E+02 0.  0.
         12    1    1    2    0    0  0.21602630454E+02  0.35269263295E+02 -0.13154043060E+02  0.43400730693E+02  0.00000000000E+00 0. -1.
         11    1    3    3    0    0 -0.13103164304E+02 -0.11624027777E+02  0.72302769839E+01  0.18949613243E+02  0.51100000000E-03 0. -1.
        -11    1    3    3    0    0 -0.87407104756E+01 -0.14448214030E+02 -0.15872424562E+01  0.16960844529E+02  0.51100000000E-03 0.  1.
        -12    1    3    3    0    0  0.24124432531E+00 -0.91970214879E+01  0.75110085319E+01  0.11876811535E+02  0.00000000000E+00 0.  1.
</event>
<event>
 7    1  0.2339217E-009  0.4778727E+02  0.7816164E-02  0.1312668E+00
        -11   -1    0    0    0    0  0.00000000000E+00  0.00000000000E+00  0.45593999997E+02  0.45594000000E+02  0.51100000000E-03 0.  1.
         11   -1    0    0    0    0 -0.00000000000E+00 -0.00000000000E+00 -0.45593999997E+02  0.45594000000E+02  0.51100000000E-03 0. -1.
    9900012    2    1    2    0    0 -0.15088740195E+02 -0.39687393933E+02  0.89924422804E+01  0.47787270328E+02  0.19999996734E+02 0.  0.
         12    1    1    2    0    0  0.15088740195E+02  0.39687393933E+02 -0.89924422804E+01  0.43400729672E+02  0.00000000000E+00 0. -1.
         11    1    3    3    0    0 -0.93198099951E+01 -0.39769590041E+01  0.32142465359E+01  0.10630448830E+02  0.51100000000E-03 0. -1.
        -11    1    3    3    0    0  0.12034042613E+01 -0.54078373740E+01  0.17064809461E+01  0.57969788994E+01  0.51100000000E-03 0.  1.
         12    1    3    3    0    0 -0.69723344611E+01 -0.30302597555E+02  0.40717147984E+01  0.31359842599E+02  0.00000000000E+00 0. -1.
</event>
<event>
 7    1  0.2339217E-009  0.4778727E+02  0.7816164E-02  0.1312668E+00
        -11   -1    0    0    0    0  0.00000000000E+00  0.00000000000E+00  0.45593999997E+02  0.45594000000E+02  0.51100000000E-03 0.  1.
         11   -1    0    0    0    0 -0.00000000000E+00 -0.00000000000E+00 -0.45593999997E+02  0.45594000000E+02  0.51100000000E-03 0. -1.
    9900012    2    1    2    0    0 -0.25852112393E+02  0.96263594335E+01  0.33505592890E+02  0.47787271135E+02  0.20000000412E+02 0.  0.
         12    1    1    2    0    0  0.25852112393E+02 -0.96263594335E+01 -0.33505592890E+02  0.43400728865E+02  0.00000000000E+00 0. -1.
         11    1    3    3    0    0 -0.61150019648E+01 -0.33703414318E+00  0.10356767618E+01  0.62112372084E+01  0.51100000000E-03 0. -1.
        -11    1    3    3    0    0 -0.11927809039E+01  0.66666187491E+01  0.57463060257E+01  0.88818109095E+01  0.51100000000E-03 0.  1.
        -12    1    3    3    0    0 -0.18544329524E+02  0.32967748276E+01  0.26723610103E+02  0.32694223017E+02  0.00000000000E+00 0.  1.
</event>
<event>
 7    1  0.2339217E-009  0.4778727E+02  0.7816164E-02  0.1312668E+00
        -11   -1    0    0    0    0  0.00000000000E+00  0.00000000000E+00  0.45593999997E+02  0.45594000000E+02  0.51100000000E-03 0. -1.
         11   -1    0    0    0    0 -0.00000000000E+00 -0.00000000000E+00 -0.45593999997E+02  0.45594000000E+02  0.51100000000E-03 0.  1.
    9900012    2    1    2    0    0 -0.28838895282E+02 -0.23880692029E+02 -0.21946626720E+02  0.47787265476E+02  0.19999974610E+02 0.  0.
         12    1    1    2    0    0  0.28838895282E+02  0.23880692029E+02  0.21946626720E+02  0.43400734524E+02  0.00000000000E+00 0. -1.
         11    1    3    3    0    0 -0.22758836931E+02 -0.18088323480E+02 -0.16382033237E+02  0.33369493823E+02  0.51100000000E-03 0.  1.
        -11    1    3    3    0    0 -0.49002493710E+01 -0.66872795623E+01  0.37244449141E+00  0.82988473298E+01  0.51100000000E-03 0. -1.
         12    1    3    3    0    0 -0.11798089792E+01  0.89491101340E+00 -0.59370379749E+01  0.61189243225E+01  0.00000000000E+00 0. -1.
</event>
<event>
 7    1  0.2339217E-009  0.4778727E+02  0.7816164E-02  0.1312668E+00
        -11   -1    0    0    0    0  0.00000000000E+00  0.00000000000E+00  0.45593999997E+02  0.45594000000E+02  0.51100000000E-03 0.  1.
         11   -1    0    0    0    0 -0.00000000000E+00 -0.00000000000E+00 -0.45593999997E+02  0.45594000000E+02  0.51100000000E-03 0. -1.
    9900012    2    1    2    0    0 -0.11344772067E+02 -0.40226719957E+02  0.11693186362E+02  0.47787268911E+02  0.19999990275E+02 0.  0.
         12    1    1    2    0    0  0.11344772067E+02  0.40226719957E+02 -0.11693186362E+02  0.43400731089E+02  0.00000000000E+00 0. -1.
         11    1    3    3    0    0 -0.10786766254E+01  0.22269953993E+00 -0.17700672448E+01  0.20847725677E+01  0.51100000000E-03 0. -1.
        -11    1    3    3    0    0 -0.96529171072E+01 -0.15275389261E+02  0.25150023736E+01  0.18243945926E+02  0.51100000000E-03 0.  1.
         12    1    3    3    0    0 -0.61317833479E+00 -0.25174030236E+02  0.10948251233E+02  0.27458550418E+02  0.00000000000E+00 0. -1.
</event>
<event>
 7    1  0.2339217E-009  0.4778727E+02  0.7816164E-02  0.1312668E+00
        -11   -1    0    0    0    0  0.00000000000E+00  0.00000000000E+00  0.45593999997E+02  0.45594000000E+02  0.51100000000E-03 0. -1.
         11   -1    0    0    0    0 -0.00000000000E+00 -0.00000000000E+00 -0.45593999997E+02  0.45594000000E+02  0.51100000000E-03 0.  1.
    9900012    2    1    2    0    0 -0.18411003858E+02 -0.38983359846E+02  0.49956086552E+01  0.47787268280E+02  0.19999987397E+02 0.  0.
         12    1    1    2    0    0  0.18411003858E+02  0.38983359846E+02 -0.49956086552E+01  0.43400731720E+02  0.00000000000E+00 0. -1.
         11    1    3    3    0    0  0.24376285746E+01 -0.45426139181E+01 -0.36001043987E+01  0.62879349726E+01  0.51100000000E-03 0. -1.
        -11    1    3    3    0    0 -0.66632428061E+01 -0.15979220131E+02  0.33607143737E+01  0.17636005275E+02  0.51100000000E-03 0.  1.
         12    1    3    3    0    0 -0.14185389627E+02 -0.18461525797E+02  0.52349986802E+01  0.23863328033E+02  0.00000000000E+00 0. -1.
</event>
<event>
 7    1  0.2339217E-009  0.4778727E+02  0.7816164E-02  0.1312668E+00
        -11   -1    0    0    0    0  0.00000000000E+00  0.00000000000E+00  0.45593999997E+02  0.45594000000E+02  0.51100000000E-03 0.  1.
         11   -1    0    0    0    0 -0.00000000000E+00 -0.00000000000E+00 -0.45593999997E+02  0.45594000000E+02  0.51100000000E-03 0. -1.
    9900012    2    1    2    0    0  0.48599781000E+01 -0.32188491107E+02 -0.28703738257E+02  0.47787274928E+02  0.20000017705E+02 0.  0.
         12    1    1    2    0    0 -0.48599781000E+01  0.32188491107E+02  0.28703738257E+02  0.43400725072E+02  0.00000000000E+00 0. -1.
         11    1    3    3    0    0 -0.15183428220E+01 -0.39236450489E+01 -0.58512013579E+01  0.72067269260E+01  0.51100000000E-03 0. -1.
        -11    1    3    3    0    0  0.10641960387E+02 -0.21151008567E+02 -0.21864078486E+02  0.32228161794E+02  0.51100000000E-03 0.  1.
         12    1    3    3    0    0 -0.42636394651E+01 -0.71138374909E+01 -0.98845841322E+00  0.83523862081E+01  0.00000000000E+00 0. -1.
</event>
<event>
 7    1  0.2339217E-009  0.4778727E+02  0.7816164E-02  0.1312668E+00
        -11   -1    0    0    0    0  0.00000000000E+00  0.00000000000E+00  0.45593999997E+02  0.45594000000E+02  0.51100000000E-03 0. -1.
         11   -1    0    0    0    0 -0.00000000000E+00 -0.00000000000E+00 -0.45593999997E+02  0.45594000000E+02  0.51100000000E-03 0.  1.
    9900012    2    1    2    0    0 -0.26129777806E+02  0.15846392225E+02 -0.30818009900E+02  0.47787272253E+02  0.20000005512E+02 0.  0.
         12    1    1    2    0    0  0.26129777806E+02 -0.15846392225E+02  0.30818009900E+02  0.43400727747E+02  0.00000000000E+00 0. -1.
         11    1    3    3    0    0  0.13558836956E+01  0.22032993721E+01 -0.57470459710E+00  0.26501385537E+01  0.51100000000E-03 0. -1.
        -11    1    3    3    0    0 -0.38409565563E+01  0.80956428974E+01 -0.10750983561E+02  0.13995571764E+02  0.51100000000E-03 0.  1.
        -12    1    3    3    0    0 -0.23644704945E+02  0.55474499558E+01 -0.19492321742E+02  0.31141561936E+02  0.00000000000E+00 0.  1.
</event>
<event>
 7    1  0.2339217E-009  0.4778727E+02  0.7816164E-02  0.1312668E+00
        -11   -1    0    0    0    0  0.00000000000E+00  0.00000000000E+00  0.45593999997E+02  0.45594000000E+02  0.51100000000E-03 0.  1.
         11   -1    0    0    0    0 -0.00000000000E+00 -0.00000000000E+00 -0.45593999997E+02  0.45594000000E+02  0.51100000000E-03 0. -1.
    9900012    2    1    2    0    0 -0.31377262953E+02  0.11747668455E+01  0.29961819003E+02  0.47787270680E+02  0.19999998337E+02 0.  0.
         12    1    1    2    0    0  0.31377262953E+02 -0.11747668455E+01 -0.29961819003E+02  0.43400729320E+02  0.00000000000E+00 0. -1.
         11    1    3    3    0    0 -0.25602871194E+01  0.15349059816E+01 -0.13406449495E+01  0.32723593397E+01  0.51100000000E-03 0. -1.
        -11    1    3    3    0    0 -0.26986523727E+02  0.35242184516E+01  0.25491485875E+02  0.37289521731E+02  0.51100000000E-03 0.  1.
         12    1    3    3    0    0 -0.18304521069E+01 -0.38843575877E+01  0.58109780774E+01  0.72253896089E+01  0.00000000000E+00 0. -1.
</event>
<event>
 7    1  0.2339217E-009  0.4778728E+02  0.7816164E-02  0.1312668E+00
        -11   -1    0    0    0    0  0.00000000000E+00  0.00000000000E+00  0.45593999997E+02  0.45594000000E+02  0.51100000000E-03 0.  1.
         11   -1    0    0    0    0 -0.00000000000E+00 -0.00000000000E+00 -0.45593999997E+02  0.45594000000E+02  0.51100000000E-03 0. -1.
    9900012    2    1    2    0    0 -0.27844628336E+02 -0.67434552749E+01  0.32601000351E+02  0.47787277193E+02  0.20000028035E+02 0.  0.
         12    1    1    2    0    0  0.27844628336E+02  0.67434552749E+01 -0.32601000351E+02  0.43400722807E+02  0.00000000000E+00 0. -1.
         11    1    3    3    0    0 -0.30055409465E+01 -0.40836116222E+01  0.10614639148E+02  0.11763491181E+02  0.51100000000E-03 0. -1.
        -11    1    3    3    0    0 -0.11537382659E+02 -0.46152224695E+01  0.18233497839E+02  0.22065174388E+02  0.51100000000E-03 0.  1.
         12    1    3    3    0    0 -0.13301704731E+02  0.19553788167E+01  0.37528633650E+01  0.13958611625E+02  0.00000000000E+00 0. -1.
</event>
<event>
 7    1  0.2339217E-009  0.4778727E+02  0.7816164E-02  0.1312668E+00
        -11   -1    0    0    0    0  0.00000000000E+00  0.00000000000E+00  0.45593999997E+02  0.45594000000E+02  0.51100000000E-03 0.  1.
         11   -1    0    0    0    0 -0.00000000000E+00 -0.00000000000E+00 -0.45593999997E+02  0.45594000000E+02  0.51100000000E-03 0. -1.
    9900012    2    1    2    0    0  0.12182447545E+02  0.36792592804E+02  0.19532442769E+02  0.47787271505E+02  0.20000002099E+02 0.  0.
         12    1    1    2    0    0 -0.12182447545E+02 -0.36792592804E+02 -0.19532442769E+02  0.43400728495E+02  0.00000000000E+00 0. -1.
         11    1    3    3    0    0  0.18176812714E+01 -0.60249300878E+00  0.57711354312E+00  0.20000058332E+01  0.51100000000E-03 0. -1.
        -11    1    3    3    0    0  0.18860087585E+01  0.24380702714E+01  0.73836351681E+01  0.80012051744E+01  0.51100000000E-03 0.  1.
         12    1    3    3    0    0  0.84787575149E+01  0.34957015541E+02  0.11571694058E+02  0.37786060497E+02  0.00000000000E+00 0. -1.
</event>
<event>
 7    1  0.2339217E-009  0.4778727E+02  0.7816164E-02  0.1312668E+00
        -11   -1    0    0    0    0  0.00000000000E+00  0.00000000000E+00  0.45593999997E+02  0.45594000000E+02  0.51100000000E-03 0.  1.
         11   -1    0    0    0    0 -0.00000000000E+00 -0.00000000000E+00 -0.45593999997E+02  0.45594000000E+02  0.51100000000E-03 0. -1.
    9900012    2    1    2    0    0  0.31252171832E+00  0.35702273005E+01  0.43252506153E+02  0.47787268655E+02  0.19999989105E+02 0.  0.
         12    1    1    2    0    0 -0.31252171832E+00 -0.35702273005E+01 -0.43252506153E+02  0.43400731345E+02  0.00000000000E+00 0. -1.
         11    1    3    3    0    0 -0.58501885529E+01  0.32696515348E+01  0.19576690996E+02  0.20692079593E+02  0.51100000000E-03 0. -1.
        -11    1    3    3    0    0 -0.77924636781E+00  0.15521128020E+01  0.17884145369E+02  0.17968275791E+02  0.51100000000E-03 0.  1.
         12    1    3    3    0    0  0.69419566390E+01 -0.12515370363E+01  0.57916697876E+01  0.91269132712E+01  0.00000000000E+00 0. -1.
</event>
<event>
 7    1  0.2339217E-009  0.4778727E+02  0.7816164E-02  0.1312668E+00
        -11   -1    0    0    0    0  0.00000000000E+00  0.00000000000E+00  0.45593999997E+02  0.45594000000E+02  0.51100000000E-03 0.  1.
         11   -1    0    0    0    0 -0.00000000000E+00 -0.00000000000E+00 -0.45593999997E+02  0.45594000000E+02  0.51100000000E-03 0. -1.
    9900012    2    1    2    0    0  0.29611875910E+02 -0.14812198393E+02  0.28059919309E+02  0.47787268580E+02  0.19999988764E+02 0.  0.
         12    1    1    2    0    0 -0.29611875910E+02  0.14812198393E+02 -0.28059919309E+02  0.43400731420E+02  0.00000000000E+00 0. -1.
         11    1    3    3    0    0  0.15838059971E+02 -0.49040608119E+01  0.47690933004E+01  0.17252194274E+02  0.51100000000E-03 0. -1.
        -11    1    3    3    0    0  0.74175485066E+01 -0.74866126801E+01  0.64095471892E+01  0.12334978342E+02  0.51100000000E-03 0.  1.
        -12    1    3    3    0    0  0.63562674326E+01 -0.24215249011E+01  0.16881278820E+02  0.18200095964E+02  0.00000000000E+00 0.  1.
</event>
<event>
 7    1  0.2339217E-009  0.4778727E+02  0.7816164E-02  0.1312668E+00
        -11   -1    0    0    0    0  0.00000000000E+00  0.00000000000E+00  0.45593999997E+02  0.45594000000E+02  0.51100000000E-03 0.  1.
         11   -1    0    0    0    0 -0.00000000000E+00 -0.00000000000E+00 -0.45593999997E+02  0.45594000000E+02  0.51100000000E-03 0. -1.
    9900012    2    1    2    0    0  0.41960931026E+02  0.23679847329E+01  0.10830346409E+02  0.47787268582E+02  0.19999988774E+02 0.  0.
         12    1    1    2    0    0 -0.41960931026E+02 -0.23679847329E+01 -0.10830346409E+02  0.43400731418E+02  0.00000000000E+00 0. -1.
         11    1    3    3    0    0  0.34414560363E+01 -0.12121030065E+01  0.52120106019E+01  0.63622219487E+01  0.51100000000E-03 0. -1.
        -11    1    3    3    0    0  0.11440702958E+02 -0.52099032025E+01  0.18827116149E+01  0.12711309092E+02  0.51100000000E-03 0.  1.
         12    1    3    3    0    0  0.27078772032E+02  0.87899909418E+01  0.37356241924E+01  0.28713737542E+02  0.00000000000E+00 0. -1.
</event>
<event>
 7    1  0.2339217E-009  0.4778727E+02  0.7816164E-02  0.1312668E+00
        -11   -1    0    0    0    0  0.00000000000E+00  0.00000000000E+00  0.45593999997E+02  0.45594000000E+02  0.51100000000E-03 0.  1.
         11   -1    0    0    0    0 -0.00000000000E+00 -0.00000000000E+00 -0.45593999997E+02  0.45594000000E+02  0.51100000000E-03 0. -1.
    9900012    2    1    2    0    0 -0.20182404781E+02 -0.38124708289E+02 -0.47749738776E+01  0.47787271660E+02  0.20000002807E+02 0.  0.
         12    1    1    2    0    0  0.20182404781E+02  0.38124708289E+02  0.47749738776E+01  0.43400728340E+02  0.00000000000E+00 0. -1.
         11    1    3    3    0    0 -0.32829247396E+01 -0.13915800422E+02  0.14363368056E+00  0.14298521851E+02  0.51100000000E-03 0. -1.
        -11    1    3    3    0    0  0.92322410551E+00 -0.92615640427E+01  0.13327957268E+01  0.94024069247E+01  0.51100000000E-03 0.  1.
        -12    1    3    3    0    0 -0.17822704147E+02 -0.14947343825E+02 -0.62514032849E+01  0.24086342885E+02  0.00000000000E+00 0.  1.
</event>
<event>
 7    1  0.2339217E-009  0.4778727E+02  0.7816164E-02  0.1312668E+00
        -11   -1    0    0    0    0  0.00000000000E+00  0.00000000000E+00  0.45593999997E+02  0.45594000000E+02  0.51100000000E-03 0.  1.
         11   -1    0    0    0    0 -0.00000000000E+00 -0.00000000000E+00 -0.45593999997E+02  0.45594000000E+02  0.51100000000E-03 0. -1.
    9900012    2    1    2    0    0  0.83962881934E+01  0.15001644049E+02  0.39850675526E+02  0.47787270519E+02  0.19999997603E+02 0.  0.
         12    1    1    2    0    0 -0.83962881934E+01 -0.15001644049E+02 -0.39850675526E+02  0.43400729481E+02  0.00000000000E+00 0. -1.
         11    1    3    3    0    0  0.89361492104E+00  0.13934820723E+01 -0.63552929162E+00  0.17731998350E+01  0.51100000000E-03 0. -1.
        -11    1    3    3    0    0  0.77076592901E+00 -0.31166426875E+01  0.10943198381E+02  0.11404434788E+02  0.51100000000E-03 0.  1.
        -12    1    3    3    0    0  0.67319073434E+01  0.16724804664E+02  0.29543006437E+02  0.34609635896E+02  0.00000000000E+00 0.  1.
</event>
<event>
 7    1  0.2339217E-009  0.4778727E+02  0.7816164E-02  0.1312668E+00
        -11   -1    0    0    0    0  0.00000000000E+00  0.00000000000E+00  0.45593999997E+02  0.45594000000E+02  0.51100000000E-03 0.  1.
         11   -1    0    0    0    0 -0.00000000000E+00 -0.00000000000E+00 -0.45593999997E+02  0.45594000000E+02  0.51100000000E-03 0. -1.
    9900012    2    1    2    0    0 -0.43146033783E+02 -0.46112333826E+01 -0.88298063120E+00  0.47787270061E+02  0.19999995515E+02 0.  0.
         12    1    1    2    0    0  0.43146033783E+02  0.46112333826E+01  0.88298063120E+00  0.43400729939E+02  0.00000000000E+00 0. -1.
         11    1    3    3    0    0 -0.11765697230E+02  0.61978573865E+01  0.23443283693E+01  0.13503367849E+02  0.51100000000E-03 0.  1.
        -11    1    3    3    0    0 -0.11388723623E+01  0.40201371015E+00  0.12310203327E+01  0.17245453318E+01  0.51100000000E-03 0. -1.
        -12    1    3    3    0    0 -0.30241464190E+02 -0.11211104479E+02 -0.44583293333E+01  0.32559356880E+02  0.00000000000E+00 0.  1.
</event>
<event>
 7    1  0.2339217E-009  0.4778727E+02  0.7816164E-02  0.1312668E+00
        -11   -1    0    0    0    0  0.00000000000E+00  0.00000000000E+00  0.45593999997E+02  0.45594000000E+02  0.51100000000E-03 0. -1.
         11   -1    0    0    0    0 -0.00000000000E+00 -0.00000000000E+00 -0.45593999997E+02  0.45594000000E+02  0.51100000000E-03 0.  1.
    9900012    2    1    2    0    0 -0.53082564001E+01 -0.29317891845E+02 -0.31557998054E+02  0.47787267179E+02  0.19999982375E+02 0.  0.
         12    1    1    2    0    0  0.53082564001E+01  0.29317891845E+02  0.31557998054E+02  0.43400732821E+02  0.00000000000E+00 0. -1.
         11    1    3    3    0    0 -0.92525845487E+01 -0.60679505160E+01 -0.15143239037E+02  0.18754946896E+02  0.51100000000E-03 0. -1.
        -11    1    3    3    0    0  0.15860581516E+01 -0.39320150105E+01 -0.46434766212E+01  0.62879406721E+01  0.51100000000E-03 0.  1.
         12    1    3    3    0    0  0.23582699970E+01 -0.19317926318E+02 -0.11771282396E+02  0.22744379611E+02  0.00000000000E+00 0. -1.
</event>
<event>
 7    1  0.2339217E-009  0.4778727E+02  0.7816164E-02  0.1312668E+00
        -11   -1    0    0    0    0  0.00000000000E+00  0.00000000000E+00  0.45593999997E+02  0.45594000000E+02  0.51100000000E-03 0.  1.
         11   -1    0    0    0    0 -0.00000000000E+00 -0.00000000000E+00 -0.45593999997E+02  0.45594000000E+02  0.51100000000E-03 0. -1.
    9900012    2    1    2    0    0  0.35775009022E+02  0.11329312908E+02  0.21804094861E+02  0.47787272423E+02  0.20000006286E+02 0.  0.
         12    1    1    2    0    0 -0.35775009022E+02 -0.11329312908E+02 -0.21804094861E+02  0.43400727577E+02  0.00000000000E+00 0. -1.
         11    1    3    3    0    0  0.55637713337E+01  0.63743428366E+01  0.26345664526E+01  0.88616442439E+01  0.51100000000E-03 0. -1.
        -11    1    3    3    0    0  0.29169976026E+00  0.29587075498E+01 -0.56781682667E+00  0.30267896070E+01  0.51100000000E-03 0.  1.
        -12    1    3    3    0    0  0.29919537928E+02  0.19962625214E+01  0.19737345235E+02  0.35898838572E+02  0.00000000000E+00 0.  1.
</event>
<event>
 7    1  0.2339217E-009  0.4778727E+02  0.7816164E-02  0.1312668E+00
        -11   -1    0    0    0    0  0.00000000000E+00  0.00000000000E+00  0.45593999997E+02  0.45594000000E+02  0.51100000000E-03 0. -1.
         11   -1    0    0    0    0 -0.00000000000E+00 -0.00000000000E+00 -0.45593999997E+02  0.45594000000E+02  0.51100000000E-03 0.  1.
    9900012    2    1    2    0    0 -0.21833140370E+02 -0.34902372922E+02 -0.13739053673E+02  0.47787271321E+02  0.20000001263E+02 0.  0.
         12    1    1    2    0    0  0.21833140370E+02  0.34902372922E+02  0.13739053673E+02  0.43400728679E+02  0.00000000000E+00 0. -1.
         11    1    3    3    0    0 -0.42409924193E+01 -0.15267621310E+02 -0.25437108465E+01  0.16048574463E+02  0.51100000000E-03 0. -1.
        -11    1    3    3    0    0 -0.10595845254E+01 -0.80300167335E+01  0.97273148732E+00  0.81578241532E+01  0.51100000000E-03 0.  1.
        -12    1    3    3    0    0 -0.16532563426E+02 -0.11604734878E+02 -0.12168074314E+02  0.23580872705E+02  0.00000000000E+00 0.  1.
</event>
<event>
 7    1  0.2339217E-009  0.4778727E+02  0.7816164E-02  0.1312668E+00
        -11   -1    0    0    0    0  0.00000000000E+00  0.00000000000E+00  0.45593999997E+02  0.45594000000E+02  0.51100000000E-03 0. -1.
         11   -1    0    0    0    0 -0.00000000000E+00 -0.00000000000E+00 -0.45593999997E+02  0.45594000000E+02  0.51100000000E-03 0.  1.
    9900012    2    1    2    0    0 -0.47912531641E+01 -0.42485139973E+02 -0.74618911586E+01  0.47787273680E+02  0.20000012016E+02 0.  0.
         12    1    1    2    0    0  0.47912531641E+01  0.42485139973E+02  0.74618911586E+01  0.43400726320E+02  0.00000000000E+00 0. -1.
         11    1    3    3    0    0 -0.34238693413E+01 -0.14545133355E+02  0.32138056507E+01  0.15284381983E+02  0.51100000000E-03 0. -1.
        -11    1    3    3    0    0  0.45458857623E+01 -0.14597034223E+02 -0.17329807789E+01  0.15386413101E+02  0.51100000000E-03 0.  1.
        -12    1    3    3    0    0 -0.59132695852E+01 -0.13342972396E+02 -0.89427160304E+01  0.17116478596E+02  0.00000000000E+00 0.  1.
</event>
<event>
 7    1  0.2339217E-009  0.4778727E+02  0.7816164E-02  0.1312668E+00
        -11   -1    0    0    0    0  0.00000000000E+00  0.00000000000E+00  0.45593999997E+02  0.45594000000E+02  0.51100000000E-03 0.  1.
         11   -1    0    0    0    0 -0.00000000000E+00 -0.00000000000E+00 -0.45593999997E+02  0.45594000000E+02  0.51100000000E-03 0. -1.
    9900012    2    1    2    0    0  0.25351948799E+02  0.10432796251E+02  0.33646081786E+02  0.47787269993E+02  0.19999995208E+02 0.  0.
         12    1    1    2    0    0 -0.25351948799E+02 -0.10432796251E+02 -0.33646081786E+02  0.43400730007E+02  0.00000000000E+00 0. -1.
         11    1    3    3    0    0  0.14176044040E+02 -0.18291246419E+01  0.14866179746E+02  0.20623026501E+02  0.51100000000E-03 0. -1.
        -11    1    3    3    0    0  0.56675739322E+01  0.41149509797E+00  0.97322935522E+01  0.11269794166E+02  0.51100000000E-03 0.  1.
        -12    1    3    3    0    0  0.55083308269E+01  0.11850425795E+02  0.90476084887E+01  0.15894449326E+02  0.00000000000E+00 0.  1.
</event>
<event>
 7    1  0.2339217E-009  0.4778727E+02  0.7816164E-02  0.1312668E+00
        -11   -1    0    0    0    0  0.00000000000E+00  0.00000000000E+00  0.45593999997E+02  0.45594000000E+02  0.51100000000E-03 0.  1.
         11   -1    0    0    0    0 -0.00000000000E+00 -0.00000000000E+00 -0.45593999997E+02  0.45594000000E+02  0.51100000000E-03 0. -1.
    9900012    2    1    2    0    0  0.64911022612E+01  0.31047420694E+02  0.29623407438E+02  0.47787274101E+02  0.20000013937E+02 0.  0.
         12    1    1    2    0    0 -0.64911022612E+01 -0.31047420694E+02 -0.29623407438E+02  0.43400725899E+02  0.00000000000E+00 0. -1.
         11    1    3    3    0    0  0.57961905743E+00  0.70800770911E+01 -0.59939697933E+00  0.71290060224E+01  0.51100000000E-03 0. -1.
        -11    1    3    3    0    0  0.79188929683E+00  0.15530787736E+02  0.10992977518E+02  0.19044106997E+02  0.51100000000E-03 0.  1.
         12    1    3    3    0    0  0.51195939069E+01  0.84365558672E+01  0.19229826900E+02  0.21614161082E+02  0.00000000000E+00 0. -1.
</event>
<event>
 7    1  0.2339217E-009  0.4778727E+02  0.7816164E-02  0.1312668E+00
        -11   -1    0    0    0    0  0.00000000000E+00  0.00000000000E+00  0.45593999997E+02  0.45594000000E+02  0.51100000000E-03 0. -1.
         11   -1    0    0    0    0 -0.00000000000E+00 -0.00000000000E+00 -0.45593999997E+02  0.45594000000E+02  0.51100000000E-03 0.  1.
    9900012    2    1    2    0    0 -0.42083115729E+02 -0.10217969383E+02 -0.28683544646E+01  0.47787274372E+02  0.20000015169E+02 0.  0.
         12    1    1    2    0    0  0.42083115729E+02  0.10217969383E+02  0.28683544646E+01  0.43400725628E+02  0.00000000000E+00 0. -1.
         11    1    3    3    0    0 -0.46734552765E+01  0.87025814812E+00 -0.37460051451E+01  0.60523622061E+01  0.51100000000E-03 0. -1.
        -11    1    3    3    0    0 -0.10547072833E+02 -0.10455317915E+02  0.60804727453E+00  0.14863517073E+02  0.51100000000E-03 0.  1.
         12    1    3    3    0    0 -0.26862587620E+02 -0.63290961618E+00  0.26960340598E+00  0.26871395092E+02  0.00000000000E+00 0. -1.
</event>
<event>
 7    1  0.2339217E-009  0.4778727E+02  0.7816164E-02  0.1312668E+00
        -11   -1    0    0    0    0  0.00000000000E+00  0.00000000000E+00  0.45593999997E+02  0.45594000000E+02  0.51100000000E-03 0.  1.
         11   -1    0    0    0    0 -0.00000000000E+00 -0.00000000000E+00 -0.45593999997E+02  0.45594000000E+02  0.51100000000E-03 0. -1.
    9900012    2    1    2    0    0 -0.21432722534E+02  0.33657051894E+02  0.17072332183E+02  0.47787271163E+02  0.20000000540E+02 0.  0.
         12    1    1    2    0    0  0.21432722534E+02 -0.33657051894E+02 -0.17072332183E+02  0.43400728837E+02  0.00000000000E+00 0. -1.
         11    1    3    3    0    0 -0.43451104796E+01  0.94320325067E+01  0.88981251105E+00  0.10422810986E+02  0.51100000000E-03 0. -1.
        -11    1    3    3    0    0  0.22036104318E+01  0.62608394317E+01  0.64779315520E+01  0.92745677408E+01  0.51100000000E-03 0.  1.
        -12    1    3    3    0    0 -0.19291222486E+02  0.17964179956E+02  0.97045881197E+01  0.28089892436E+02  0.00000000000E+00 0.  1.
</event>
<event>
 7    1  0.2339217E-009  0.4778727E+02  0.7816164E-02  0.1312668E+00
        -11   -1    0    0    0    0  0.00000000000E+00  0.00000000000E+00  0.45593999997E+02  0.45594000000E+02  0.51100000000E-03 0.  1.
         11   -1    0    0    0    0 -0.00000000000E+00 -0.00000000000E+00 -0.45593999997E+02  0.45594000000E+02  0.51100000000E-03 0. -1.
    9900012    2    1    2    0    0 -0.70042366688E+01  0.11534975187E+02  0.41249345457E+02  0.47787268618E+02  0.19999988938E+02 0.  0.
         12    1    1    2    0    0  0.70042366688E+01 -0.11534975187E+02 -0.41249345457E+02  0.43400731382E+02  0.00000000000E+00 0. -1.
         11    1    3    3    0    0 -0.19971508480E+01 -0.29928309750E+01  0.11254339733E+02  0.11815490334E+02  0.51100000000E-03 0. -1.
        -11    1    3    3    0    0 -0.45754341181E+01  0.90426172012E+00  0.25191724627E+01  0.53008034094E+01  0.51100000000E-03 0.  1.
        -12    1    3    3    0    0 -0.43165170264E+00  0.13623544442E+02  0.27475833261E+02  0.30670974875E+02  0.00000000000E+00 0.  1.
</event>
<event>
 7    1  0.2339217E-009  0.4778727E+02  0.7816164E-02  0.1312668E+00
        -11   -1    0    0    0    0  0.00000000000E+00  0.00000000000E+00  0.45593999997E+02  0.45594000000E+02  0.51100000000E-03 0.  1.
         11   -1    0    0    0    0 -0.00000000000E+00 -0.00000000000E+00 -0.45593999997E+02  0.45594000000E+02  0.51100000000E-03 0. -1.
    9900012    2    1    2    0    0 -0.10949995625E+02  0.32335301272E+02  0.26798311052E+02  0.47787267428E+02  0.19999983512E+02 0.  0.
         12    1    1    2    0    0  0.10949995625E+02 -0.32335301272E+02 -0.26798311052E+02  0.43400732572E+02  0.00000000000E+00 0. -1.
         11    1    3    3    0    0 -0.10232322522E+02  0.65462454847E+01  0.11798514897E+02  0.16933951346E+02  0.51100000000E-03 0.  1.
        -11    1    3    3    0    0  0.11306390202E+01  0.35933431381E+01  0.54373803597E+01  0.66147989342E+01  0.51100000000E-03 0. -1.
         12    1    3    3    0    0 -0.18483121233E+01  0.22195712649E+02  0.95624157955E+01  0.24238517148E+02  0.00000000000E+00 0. -1.
</event>
<event>
 7    1  0.2339217E-009  0.4778727E+02  0.7816164E-02  0.1312668E+00
        -11   -1    0    0    0    0  0.00000000000E+00  0.00000000000E+00  0.45593999997E+02  0.45594000000E+02  0.51100000000E-03 0.  1.
         11   -1    0    0    0    0 -0.00000000000E+00 -0.00000000000E+00 -0.45593999997E+02  0.45594000000E+02  0.51100000000E-03 0. -1.
    9900012    2    1    2    0    0 -0.75968907460E+01 -0.13897953606E+02  0.40407392254E+02  0.47787271755E+02  0.20000003241E+02 0.  0.
         12    1    1    2    0    0  0.75968907460E+01  0.13897953606E+02 -0.40407392254E+02  0.43400728245E+02  0.00000000000E+00 0. -1.
         11    1    3    3    0    0  0.31034963038E+01 -0.45599393570E+01  0.21902948298E+01  0.59348233293E+01  0.51100000000E-03 0. -1.
        -11    1    3    3    0    0 -0.71974197255E+00  0.78068219152E+00  0.11860826907E+02  0.11908262189E+02  0.51100000000E-03 0.  1.
        -12    1    3    3    0    0 -0.99806450773E+01 -0.10118696441E+02  0.26356270517E+02  0.29944186237E+02  0.00000000000E+00 0.  1.
</event>
<event>
 7    1  0.2339217E-009  0.4778727E+02  0.7816164E-02  0.1312668E+00
        -11   -1    0    0    0    0  0.00000000000E+00  0.00000000000E+00  0.45593999997E+02  0.45594000000E+02  0.51100000000E-03 0.  1.
         11   -1    0    0    0    0 -0.00000000000E+00 -0.00000000000E+00 -0.45593999997E+02  0.45594000000E+02  0.51100000000E-03 0. -1.
    9900012    2    1    2    0    0 -0.24806309371E+02  0.12664122918E+02  0.33284980736E+02  0.47787274931E+02  0.20000017721E+02 0.  0.
         12    1    1    2    0    0  0.24806309371E+02 -0.12664122918E+02 -0.33284980736E+02  0.43400725069E+02  0.00000000000E+00 0. -1.
         11    1    3    3    0    0 -0.73502220482E+01  0.19983282541E+01  0.21865765929E+02  0.23154498481E+02  0.51100000000E-03 0.  1.
        -11    1    3    3    0    0 -0.46198231518E+01  0.71535694915E+01  0.42825935809E+01  0.95318901832E+01  0.51100000000E-03 0. -1.
        -12    1    3    3    0    0 -0.12836264171E+02  0.35122251729E+01  0.71366212264E+01  0.15100886267E+02  0.00000000000E+00 0.  1.
</event>
<event>
 7    1  0.2339217E-009  0.4778727E+02  0.7816164E-02  0.1312668E+00
        -11   -1    0    0    0    0  0.00000000000E+00  0.00000000000E+00  0.45593999997E+02  0.45594000000E+02  0.51100000000E-03 0.  1.
         11   -1    0    0    0    0 -0.00000000000E+00 -0.00000000000E+00 -0.45593999997E+02  0.45594000000E+02  0.51100000000E-03 0. -1.
    9900012    2    1    2    0    0  0.43291877842E+02 -0.53179527197E+00  0.30255217281E+01  0.47787271032E+02  0.19999999941E+02 0.  0.
         12    1    1    2    0    0 -0.43291877842E+02  0.53179527197E+00 -0.30255217281E+01  0.43400728968E+02  0.00000000000E+00 0. -1.
         11    1    3    3    0    0  0.13528175150E+02  0.17919508798E+01 -0.17071494660E+01  0.13752707748E+02  0.51100000000E-03 0. -1.
        -11    1    3    3    0    0  0.29629566377E+02 -0.12292355630E+01  0.78929149164E+01  0.30687462096E+02  0.51100000000E-03 0.  1.
         12    1    3    3    0    0  0.13413631543E+00 -0.10945105888E+01 -0.31602437222E+01  0.33471011882E+01  0.00000000000E+00 0. -1.
</event>
<event>
 7    1  0.2339217E-009  0.4778727E+02  0.7816164E-02  0.1312668E+00
        -11   -1    0    0    0    0  0.00000000000E+00  0.00000000000E+00  0.45593999997E+02  0.45594000000E+02  0.51100000000E-03 0. -1.
         11   -1    0    0    0    0 -0.00000000000E+00 -0.00000000000E+00 -0.45593999997E+02  0.45594000000E+02  0.51100000000E-03 0.  1.
    9900012    2    1    2    0    0  0.12674697587E+02 -0.20190920638E+02  0.36267098539E+02  0.47787266463E+02  0.19999979111E+02 0.  0.
         12    1    1    2    0    0 -0.12674697587E+02  0.20190920638E+02 -0.36267098539E+02  0.43400733537E+02  0.00000000000E+00 0. -1.
         11    1    3    3    0    0 -0.10504731237E+00 -0.10240073309E+02  0.11000012136E+02  0.15028985447E+02  0.51100000000E-03 0.  1.
        -11    1    3    3    0    0  0.10505211655E+02 -0.11965551473E+02  0.14379651437E+02  0.21454795960E+02  0.51100000000E-03 0. -1.
        -12    1    3    3    0    0  0.22745332439E+01  0.20147041445E+01  0.10887434966E+02  0.11303485056E+02  0.00000000000E+00 0.  1.
</event>
<event>
 7    1  0.2339217E-009  0.4778727E+02  0.7816164E-02  0.1312668E+00
        -11   -1    0    0    0    0  0.00000000000E+00  0.00000000000E+00  0.45593999997E+02  0.45594000000E+02  0.51100000000E-03 0.  1.
         11   -1    0    0    0    0 -0.00000000000E+00 -0.00000000000E+00 -0.45593999997E+02  0.45594000000E+02  0.51100000000E-03 0. -1.
    9900012    2    1    2    0    0  0.20279189105E+02 -0.34617090047E+02  0.16553992529E+02  0.47787273016E+02  0.20000008990E+02 0.  0.
         12    1    1    2    0    0 -0.20279189105E+02  0.34617090047E+02 -0.16553992529E+02  0.43400726984E+02  0.00000000000E+00 0. -1.
         11    1    3    3    0    0  0.17170917958E+02 -0.19110005543E+02  0.45170089203E+01  0.26085170216E+02  0.51100000000E-03 0.  1.
        -11    1    3    3    0    0 -0.39705039082E-02 -0.52341664844E+00 -0.13007180213E+01  0.14020871530E+01  0.51100000000E-03 0. -1.
        -12    1    3    3    0    0  0.31122416512E+01 -0.14983667856E+02  0.13337701630E+02  0.20300015647E+02  0.00000000000E+00 0.  1.
</event>
<event>
 7    1  0.2339217E-009  0.4778727E+02  0.7816164E-02  0.1312668E+00
        -11   -1    0    0    0    0  0.00000000000E+00  0.00000000000E+00  0.45593999997E+02  0.45594000000E+02  0.51100000000E-03 0. -1.
         11   -1    0    0    0    0 -0.00000000000E+00 -0.00000000000E+00 -0.45593999997E+02  0.45594000000E+02  0.51100000000E-03 0.  1.
    9900012    2    1    2    0    0 -0.27324776787E+02  0.11846839223E+02 -0.31569484893E+02  0.47787269563E+02  0.19999993246E+02 0.  0.
         12    1    1    2    0    0  0.27324776787E+02 -0.11846839223E+02  0.31569484893E+02  0.43400730437E+02  0.00000000000E+00 0. -1.
         11    1    3    3    0    0 -0.12041329898E+02  0.66268496691E+01 -0.17535028905E+02  0.22279721749E+02  0.51100000000E-03 0.  1.
        -11    1    3    3    0    0 -0.16295029880E+02  0.73972099801E+01 -0.92274017338E+01  0.20134340250E+02  0.51100000000E-03 0. -1.
         12    1    3    3    0    0  0.10115829906E+01 -0.21772204258E+01 -0.48070542535E+01  0.53732075640E+01  0.00000000000E+00 0. -1.
</event>
<event>
 7    1  0.2339217E-009  0.4778727E+02  0.7816164E-02  0.1312668E+00
        -11   -1    0    0    0    0  0.00000000000E+00  0.00000000000E+00  0.45593999997E+02  0.45594000000E+02  0.51100000000E-03 0.  1.
         11   -1    0    0    0    0 -0.00000000000E+00 -0.00000000000E+00 -0.45593999997E+02  0.45594000000E+02  0.51100000000E-03 0. -1.
    9900012    2    1    2    0    0 -0.12828843033E+01  0.18647928775E+02  0.39169277685E+02  0.47787270120E+02  0.19999995784E+02 0.  0.
         12    1    1    2    0    0  0.12828843033E+01 -0.18647928775E+02 -0.39169277685E+02  0.43400729880E+02  0.00000000000E+00 0. -1.
         11    1    3    3    0    0 -0.66287950687E+01  0.41287673545E+01  0.60766693349E+01  0.98951278110E+01  0.51100000000E-03 0. -1.
        -11    1    3    3    0    0  0.15454207097E+01  0.77229520624E+01  0.65902339366E+01  0.10269542216E+02  0.51100000000E-03 0.  1.
        -12    1    3    3    0    0  0.38004900557E+01  0.67962093582E+01  0.26502374414E+02  0.27622600093E+02  0.00000000000E+00 0.  1.
</event>
<event>
 7    1  0.2339217E-009  0.4778727E+02  0.7816164E-02  0.1312668E+00
        -11   -1    0    0    0    0  0.00000000000E+00  0.00000000000E+00  0.45593999997E+02  0.45594000000E+02  0.51100000000E-03 0. -1.
         11   -1    0    0    0    0 -0.00000000000E+00 -0.00000000000E+00 -0.45593999997E+02  0.45594000000E+02  0.51100000000E-03 0.  1.
    9900012    2    1    2    0    0 -0.76187742772E+00  0.38238490663E+02 -0.20514881340E+02  0.47787274409E+02  0.20000015341E+02 0.  0.
         12    1    1    2    0    0  0.76187742772E+00 -0.38238490663E+02  0.20514881340E+02  0.43400725591E+02  0.00000000000E+00 0. -1.
         11    1    3    3    0    0  0.47242352360E+01  0.30183322827E+01 -0.27676369534E+01  0.62520830849E+01  0.51100000000E-03 0. -1.
        -11    1    3    3    0    0 -0.37978137562E+01  0.73802462244E+01 -0.91398421159E+01  0.12346179078E+02  0.51100000000E-03 0.  1.
        -12    1    3    3    0    0 -0.16882989075E+01  0.27839912156E+02 -0.86074022711E+01  0.29189012246E+02  0.00000000000E+00 0.  1.
</event>
<event>
 7    1  0.2339217E-009  0.4778727E+02  0.7816164E-02  0.1312668E+00
        -11   -1    0    0    0    0  0.00000000000E+00  0.00000000000E+00  0.45593999997E+02  0.45594000000E+02  0.51100000000E-03 0.  1.
         11   -1    0    0    0    0 -0.00000000000E+00 -0.00000000000E+00 -0.45593999997E+02  0.45594000000E+02  0.51100000000E-03 0. -1.
    9900012    2    1    2    0    0 -0.13281604570E+02 -0.31764260843E+02  0.26424492021E+02  0.47787273446E+02  0.20000010948E+02 0.  0.
         12    1    1    2    0    0  0.13281604570E+02  0.31764260843E+02 -0.26424492021E+02  0.43400726554E+02  0.00000000000E+00 0. -1.
         11    1    3    3    0    0 -0.50269813293E+00 -0.31840527315E+01 -0.19097047279E+01  0.37467145099E+01  0.51100000000E-03 0. -1.
        -11    1    3    3    0    0 -0.62443005851E+01 -0.38668007330E+01  0.26626612643E+01  0.78123749894E+01  0.51100000000E-03 0.  1.
        -12    1    3    3    0    0 -0.65346058524E+01 -0.24713407379E+02  0.25671535484E+02  0.36228183946E+02  0.00000000000E+00 0.  1.
</event>
<event>
 7    1  0.2339217E-009  0.4778727E+02  0.7816164E-02  0.1312668E+00
        -11   -1    0    0    0    0  0.00000000000E+00  0.00000000000E+00  0.45593999997E+02  0.45594000000E+02  0.51100000000E-03 0. -1.
         11   -1    0    0    0    0 -0.00000000000E+00 -0.00000000000E+00 -0.45593999997E+02  0.45594000000E+02  0.51100000000E-03 0.  1.
    9900012    2    1    2    0    0  0.15582791527E+02  0.39885592220E+02  0.70667783344E+01  0.47787271728E+02  0.20000003118E+02 0.  0.
         12    1    1    2    0    0 -0.15582791527E+02 -0.39885592220E+02 -0.70667783344E+01  0.43400728272E+02  0.00000000000E+00 0. -1.
         11    1    3    3    0    0  0.29175095126E+00 -0.50257021043E+00  0.15062685435E+01  0.16144784359E+01  0.51100000000E-03 0. -1.
        -11    1    3    3    0    0  0.94140687001E+01  0.13769714542E+02 -0.42303609068E+01  0.17208302697E+02  0.51100000000E-03 0.  1.
        -12    1    3    3    0    0  0.58769718756E+01  0.26618447888E+02  0.97908706978E+01  0.28964490595E+02  0.00000000000E+00 0.  1.
</event>
<event>
 7    1  0.2339217E-009  0.4778727E+02  0.7816164E-02  0.1312668E+00
        -11   -1    0    0    0    0  0.00000000000E+00  0.00000000000E+00  0.45593999997E+02  0.45594000000E+02  0.51100000000E-03 0. -1.
         11   -1    0    0    0    0 -0.00000000000E+00 -0.00000000000E+00 -0.45593999997E+02  0.45594000000E+02  0.51100000000E-03 0.  1.
    9900012    2    1    2    0    0 -0.26952398711E+02 -0.28032344670E+02  0.19271202423E+02  0.47787269743E+02  0.19999994068E+02 0.  0.
         12    1    1    2    0    0  0.26952398711E+02  0.28032344670E+02 -0.19271202423E+02  0.43400730257E+02  0.00000000000E+00 0. -1.
         11    1    3    3    0    0 -0.18557213977E+02 -0.11024983386E+02  0.14117562707E+02  0.25791976006E+02  0.51100000000E-03 0. -1.
        -11    1    3    3    0    0 -0.49201240925E+01 -0.34941499707E+01  0.53149485786E+01  0.80414789534E+01  0.51100000000E-03 0.  1.
        -12    1    3    3    0    0 -0.34750606408E+01 -0.13513211314E+02 -0.16130886284E+00  0.13953814784E+02  0.00000000000E+00 0.  1.
</event>
<event>
 7    1  0.2339217E-009  0.4778728E+02  0.7816164E-02  0.1312668E+00
        -11   -1    0    0    0    0  0.00000000000E+00  0.00000000000E+00  0.45593999997E+02  0.45594000000E+02  0.51100000000E-03 0.  1.
         11   -1    0    0    0    0 -0.00000000000E+00 -0.00000000000E+00 -0.45593999997E+02  0.45594000000E+02  0.51100000000E-03 0. -1.
    9900012    2    1    2    0    0 -0.39630546682E+02 -0.56227221747E+01 -0.16775786197E+02  0.47787282984E+02  0.20000054436E+02 0.  0.
         12    1    1    2    0    0  0.39630546682E+02  0.56227221747E+01  0.16775786197E+02  0.43400717016E+02  0.00000000000E+00 0. -1.
         11    1    3    3    0    0 -0.28467032343E+02 -0.69983022404E+01 -0.12527211357E+02  0.31879134074E+02  0.51100000000E-03 0. -1.
        -11    1    3    3    0    0 -0.31009251685E+01 -0.44161778508E+01 -0.17255672689E+01  0.56653284433E+01  0.51100000000E-03 0.  1.
         12    1    3    3    0    0 -0.80625891709E+01  0.57917579165E+01 -0.25230075716E+01  0.10242820466E+02  0.00000000000E+00 0. -1.
</event>
<event>
 7    1  0.2339217E-009  0.4778727E+02  0.7816164E-02  0.1312668E+00
        -11   -1    0    0    0    0  0.00000000000E+00  0.00000000000E+00  0.45593999997E+02  0.45594000000E+02  0.51100000000E-03 0. -1.
         11   -1    0    0    0    0 -0.00000000000E+00 -0.00000000000E+00 -0.45593999997E+02  0.45594000000E+02  0.51100000000E-03 0.  1.
    9900012    2    1    2    0    0  0.38016440716E+02  0.20321143902E+02 -0.50423248390E+01  0.47787266204E+02  0.19999977932E+02 0.  0.
         12    1    1    2    0    0 -0.38016440716E+02 -0.20321143902E+02  0.50423248390E+01  0.43400733796E+02  0.00000000000E+00 0. -1.
         11    1    3    3    0    0  0.23081405886E+02  0.90233891364E+01 -0.58239975563E+01  0.25457647122E+02  0.51100000000E-03 0. -1.
        -11    1    3    3    0    0  0.32994895147E+01  0.22159166930E+01 -0.50782409689E+01  0.64486781162E+01  0.51100000000E-03 0.  1.
         12    1    3    3    0    0  0.11635545316E+02  0.90818380726E+01  0.58599136861E+01  0.15880940966E+02  0.00000000000E+00 0. -1.
</event>
<event>
 7    1  0.2339217E-009  0.4778727E+02  0.7816164E-02  0.1312668E+00
        -11   -1    0    0    0    0  0.00000000000E+00  0.00000000000E+00  0.45593999997E+02  0.45594000000E+02  0.51100000000E-03 0. -1.
         11   -1    0    0    0    0 -0.00000000000E+00 -0.00000000000E+00 -0.45593999997E+02  0.45594000000E+02  0.51100000000E-03 0.  1.
    9900012    2    1    2    0    0  0.33459512962E+01 -0.25074370338E+01 -0.43198854973E+02  0.47787266117E+02  0.19999977535E+02 0.  0.
         12    1    1    2    0    0 -0.33459512962E+01  0.25074370338E+01  0.43198854973E+02  0.43400733883E+02  0.00000000000E+00 0. -1.
         11    1    3    3    0    0  0.68682961955E+00 -0.52364749099E+01 -0.87427039106E+01  0.10214072466E+02  0.51100000000E-03 0. -1.
        -11    1    3    3    0    0 -0.33571698342E+01 -0.39002642713E+01 -0.69565481135E+01  0.86531042175E+01  0.51100000000E-03 0.  1.
        -12    1    3    3    0    0  0.60162915109E+01  0.66293021474E+01 -0.27499602949E+02  0.28920089434E+02  0.00000000000E+00 0.  1.
</event>
<event>
 7    1 -0.2339217E-009  0.4778727E+02  0.7816164E-02  0.1312668E+00
        -11   -1    0    0    0    0  0.00000000000E+00  0.00000000000E+00  0.45593999997E+02  0.45594000000E+02  0.51100000000E-03 0. -1.
         11   -1    0    0    0    0 -0.00000000000E+00 -0.00000000000E+00 -0.45593999997E+02  0.45594000000E+02  0.51100000000E-03 0.  1.
    9900012    2    1    2    0    0  0.16879030618E+02 -0.16248126393E+02 -0.36533820083E+02  0.47787270793E+02  0.19999998852E+02 0.  0.
         12    1    1    2    0    0 -0.16879030618E+02  0.16248126393E+02  0.36533820083E+02  0.43400729207E+02  0.00000000000E+00 0. -1.
         11    1    3    3    0    0 -0.13843657118E+01 -0.42159568839E+01 -0.41610018306E+01  0.60831486392E+01  0.51100000000E-03 0. -1.
        -11    1    3    3    0    0  0.10427434423E+02 -0.87176750050E+01 -0.29899626173E+02  0.32843825777E+02  0.51100000000E-03 0.  1.
        -12    1    3    3    0    0  0.78359619065E+01 -0.33144945040E+01 -0.24731920794E+01  0.88602963765E+01  0.00000000000E+00 0.  1.
</event>
<event>
 7    1  0.2339217E-009  0.4778725E+02  0.7816164E-02  0.1312668E+00
        -11   -1    0    0    0    0  0.00000000000E+00  0.00000000000E+00  0.45593999997E+02  0.45594000000E+02  0.51100000000E-03 0.  1.
         11   -1    0    0    0    0 -0.00000000000E+00 -0.00000000000E+00 -0.45593999997E+02  0.45594000000E+02  0.51100000000E-03 0. -1.
    9900012    2    1    2    0    0  0.23538404706E+02 -0.19949180957E+01  0.36408632628E+02  0.47787254337E+02  0.19999923822E+02 0.  0.
         12    1    1    2    0    0 -0.23538404706E+02  0.19949180957E+01 -0.36408632628E+02  0.43400745663E+02  0.00000000000E+00 0. -1.
         11    1    3    3    0    0  0.15655404297E+02 -0.33207506695E+01  0.24739154760E+02  0.29464297840E+02  0.51100000000E-03 0.  1.
        -11    1    3    3    0    0  0.10361949041E+02  0.28070724489E+01  0.69457106316E+01  0.12786420144E+02  0.51100000000E-03 0. -1.
        -12    1    3    3    0    0 -0.24789486311E+01 -0.14812398751E+01  0.47237672363E+01  0.55365363528E+01  0.00000000000E+00 0.  1.
</event>
<event>
 7    1  0.2339217E-009  0.4778729E+02  0.7816164E-02  0.1312668E+00
        -11   -1    0    0    0    0  0.00000000000E+00  0.00000000000E+00  0.45593999997E+02  0.45594000000E+02  0.51100000000E-03 0.  1.
         11   -1    0    0    0    0 -0.00000000000E+00 -0.00000000000E+00 -0.45593999997E+02  0.45594000000E+02  0.51100000000E-03 0. -1.
    9900012    2    1    2    0    0 -0.26745174640E+02  0.18896331699E+02  0.28482382530E+02  0.47787287647E+02  0.20000075698E+02 0.  0.
         12    1    1    2    0    0  0.26745174640E+02 -0.18896331699E+02 -0.28482382530E+02  0.43400712353E+02  0.00000000000E+00 0. -1.
         11    1    3    3    0    0 -0.20258310939E+02  0.68703162454E+01  0.11508687557E+02  0.24290950928E+02  0.51100000000E-03 0. -1.
        -11    1    3    3    0    0 -0.69113765228E+01  0.91854871010E+01  0.78208443408E+01  0.13903449399E+02  0.51100000000E-03 0.  1.
         12    1    3    3    0    0  0.42451282250E+00  0.28405283523E+01  0.91528506318E+01  0.95928873206E+01  0.00000000000E+00 0. -1.
</event>
<event>
 7    1  0.2339217E-009  0.4778727E+02  0.7816164E-02  0.1312668E+00
        -11   -1    0    0    0    0  0.00000000000E+00  0.00000000000E+00  0.45593999997E+02  0.45594000000E+02  0.51100000000E-03 0.  1.
         11   -1    0    0    0    0 -0.00000000000E+00 -0.00000000000E+00 -0.45593999997E+02  0.45594000000E+02  0.51100000000E-03 0. -1.
    9900012    2    1    2    0    0  0.73034926409E+01  0.33984816278E+02  0.25986814434E+02  0.47787271128E+02  0.20000000382E+02 0.  0.
         12    1    1    2    0    0 -0.73034926409E+01 -0.33984816278E+02 -0.25986814434E+02  0.43400728872E+02  0.00000000000E+00 0. -1.
         11    1    3    3    0    0  0.47355966428E+01  0.69297037089E+01  0.69280379746E+01  0.10883215494E+02  0.51100000000E-03 0. -1.
        -11    1    3    3    0    0 -0.56287830769E+01  0.14635149888E+02  0.14457161871E+02  0.21327923968E+02  0.51100000000E-03 0.  1.
        -12    1    3    3    0    0  0.81966790750E+01  0.12419962681E+02  0.46016145883E+01  0.15576131666E+02  0.00000000000E+00 0.  1.
</event>
<event>
 7    1  0.2339217E-009  0.4778727E+02  0.7816164E-02  0.1312668E+00
        -11   -1    0    0    0    0  0.00000000000E+00  0.00000000000E+00  0.45593999997E+02  0.45594000000E+02  0.51100000000E-03 0.  1.
         11   -1    0    0    0    0 -0.00000000000E+00 -0.00000000000E+00 -0.45593999997E+02  0.45594000000E+02  0.51100000000E-03 0. -1.
    9900012    2    1    2    0    0 -0.10907374995E+02  0.40925061775E+02 -0.94758547364E+01  0.47787270357E+02  0.19999996866E+02 0.  0.
         12    1    1    2    0    0  0.10907374995E+02 -0.40925061775E+02  0.94758547364E+01  0.43400729643E+02  0.00000000000E+00 0. -1.
         11    1    3    3    0    0  0.29503784256E+01  0.44429229287E+01 -0.45523537266E+01  0.70120055418E+01  0.51100000000E-03 0. -1.
        -11    1    3    3    0    0 -0.37650562096E+01  0.16787418237E+02 -0.69441940884E+01  0.18553029163E+02  0.51100000000E-03 0.  1.
         12    1    3    3    0    0 -0.10092697211E+02  0.19694720609E+02  0.20206930785E+01  0.22222235652E+02  0.00000000000E+00 0. -1.
</event>
<event>
 7    1  0.2339217E-009  0.4778727E+02  0.7816164E-02  0.1312668E+00
        -11   -1    0    0    0    0  0.00000000000E+00  0.00000000000E+00  0.45593999997E+02  0.45594000000E+02  0.51100000000E-03 0.  1.
         11   -1    0    0    0    0 -0.00000000000E+00 -0.00000000000E+00 -0.45593999997E+02  0.45594000000E+02  0.51100000000E-03 0. -1.
    9900012    2    1    2    0    0  0.20849896400E+02  0.37243456391E+02  0.78632118280E+01  0.47787270466E+02  0.19999997364E+02 0.  0.
         12    1    1    2    0    0 -0.20849896400E+02 -0.37243456391E+02 -0.78632118280E+01  0.43400729534E+02  0.00000000000E+00 0. -1.
         11    1    3    3    0    0  0.28040861962E+01  0.36151302351E+01 -0.12824722828E+01  0.47515051751E+01  0.51100000000E-03 0. -1.
        -11    1    3    3    0    0  0.20234148682E+02  0.21469120687E+02  0.45310660951E+01  0.29847520436E+02  0.51100000000E-03 0.  1.
         12    1    3    3    0    0 -0.21883384784E+01  0.12159205469E+02  0.46146180157E+01  0.13188244855E+02  0.00000000000E+00 0. -1.
</event>
<event>
 7    1  0.2339217E-009  0.4778727E+02  0.7816164E-02  0.1312668E+00
        -11   -1    0    0    0    0  0.00000000000E+00  0.00000000000E+00  0.45593999997E+02  0.45594000000E+02  0.51100000000E-03 0. -1.
         11   -1    0    0    0    0 -0.00000000000E+00 -0.00000000000E+00 -0.45593999997E+02  0.45594000000E+02  0.51100000000E-03 0.  1.
    9900012    2    1    2    0    0 -0.24615936092E+02 -0.22640601629E+02 -0.27660125795E+02  0.47787266010E+02  0.19999977048E+02 0.  0.
         12    1    1    2    0    0  0.24615936092E+02  0.22640601629E+02  0.27660125795E+02  0.43400733990E+02  0.00000000000E+00 0. -1.
         11    1    3    3    0    0 -0.19847342101E+01 -0.24643569882E+01  0.73237150777E+00  0.32478598394E+01  0.51100000000E-03 0. -1.
        -11    1    3    3    0    0 -0.14339237555E+02 -0.45152741398E+01 -0.19758119716E+02  0.24827096672E+02  0.51100000000E-03 0.  1.
        -12    1    3    3    0    0 -0.82919643274E+01 -0.15660970502E+02 -0.86343775868E+01  0.19712309499E+02  0.00000000000E+00 0.  1.
</event>
<event>
 7    1  0.2339217E-009  0.4778727E+02  0.7816164E-02  0.1312668E+00
        -11   -1    0    0    0    0  0.00000000000E+00  0.00000000000E+00  0.45593999997E+02  0.45594000000E+02  0.51100000000E-03 0. -1.
         11   -1    0    0    0    0 -0.00000000000E+00 -0.00000000000E+00 -0.45593999997E+02  0.45594000000E+02  0.51100000000E-03 0.  1.
    9900012    2    1    2    0    0  0.33591039709E+01 -0.43258284788E+02 -0.10297711134E+01  0.47787271771E+02  0.20000003311E+02 0.  0.
         12    1    1    2    0    0 -0.33591039709E+01  0.43258284788E+02  0.10297711134E+01  0.43400728229E+02  0.00000000000E+00 0. -1.
         11    1    3    3    0    0  0.98035950685E+00  0.55578677576E-01  0.90251093709E-01  0.98607265103E+00  0.51100000000E-03 0. -1.
        -11    1    3    3    0    0 -0.38108409822E+01 -0.34541421419E+02 -0.55416849236E+01  0.35190091996E+02  0.51100000000E-03 0.  1.
         12    1    3    3    0    0  0.61895854463E+01 -0.87724420469E+01  0.44216627164E+01  0.11611107124E+02  0.00000000000E+00 0. -1.
</event>
<event>
 7    1  0.2339217E-009  0.4778727E+02  0.7816164E-02  0.1312668E+00
        -11   -1    0    0    0    0  0.00000000000E+00  0.00000000000E+00  0.45593999997E+02  0.45594000000E+02  0.51100000000E-03 0. -1.
         11   -1    0    0    0    0 -0.00000000000E+00 -0.00000000000E+00 -0.45593999997E+02  0.45594000000E+02  0.51100000000E-03 0.  1.
    9900012    2    1    2    0    0  0.19806285762E+02 -0.28507056583E+02 -0.26051531959E+02  0.47787267885E+02  0.19999985594E+02 0.  0.
         12    1    1    2    0    0 -0.19806285762E+02  0.28507056583E+02  0.26051531959E+02  0.43400732115E+02  0.00000000000E+00 0. -1.
         11    1    3    3    0    0  0.12958573297E+02 -0.22612177719E+02 -0.17228002959E+02  0.31241627507E+02  0.51100000000E-03 0.  1.
        -11    1    3    3    0    0  0.71349058277E+00 -0.73750272418E+01 -0.63835251746E+01  0.97800557026E+01  0.51100000000E-03 0. -1.
         12    1    3    3    0    0  0.61342218829E+01  0.14801483778E+01 -0.24400038253E+01  0.67655846751E+01  0.00000000000E+00 0. -1.
</event>
<event>
 7    1  0.2339217E-009  0.4778729E+02  0.7816164E-02  0.1312668E+00
        -11   -1    0    0    0    0  0.00000000000E+00  0.00000000000E+00  0.45593999997E+02  0.45594000000E+02  0.51100000000E-03 0.  1.
         11   -1    0    0    0    0 -0.00000000000E+00 -0.00000000000E+00 -0.45593999997E+02  0.45594000000E+02  0.51100000000E-03 0. -1.
    9900012    2    1    2    0    0  0.23166200421E+02 -0.30202553269E+02  0.20850777790E+02  0.47787285715E+02  0.20000066891E+02 0.  0.
         12    1    1    2    0    0 -0.23166200421E+02  0.30202553269E+02 -0.20850777790E+02  0.43400714285E+02  0.00000000000E+00 0. -1.
         11    1    3    3    0    0 -0.11090907989E+00  0.13927870335E+01  0.12170846182E+01  0.18529575747E+01  0.51100000000E-03 0. -1.
        -11    1    3    3    0    0  0.65149704572E+01 -0.14648421407E+02  0.14357446539E+02  0.21521091077E+02  0.51100000000E-03 0.  1.
        -12    1    3    3    0    0  0.16762139044E+02 -0.16946918896E+02  0.52762466334E+01  0.24413237064E+02  0.00000000000E+00 0.  1.
</event>
<event>
 7    1  0.2339217E-009  0.4778728E+02  0.7816164E-02  0.1312668E+00
        -11   -1    0    0    0    0  0.00000000000E+00  0.00000000000E+00  0.45593999997E+02  0.45594000000E+02  0.51100000000E-03 0.  1.
         11   -1    0    0    0    0 -0.00000000000E+00 -0.00000000000E+00 -0.45593999997E+02  0.45594000000E+02  0.51100000000E-03 0. -1.
    9900012    2    1    2    0    0  0.13177815316E+02  0.30176017411E+02  0.28273225441E+02  0.47787284336E+02  0.20000060603E+02 0.  0.
         12    1    1    2    0    0 -0.13177815316E+02 -0.30176017411E+02 -0.28273225441E+02  0.43400715664E+02  0.00000000000E+00 0. -1.
         11    1    3    3    0    0  0.34265717779E+01  0.20404207769E+01  0.17846598430E+01  0.43691786542E+01  0.51100000000E-03 0. -1.
        -11    1    3    3    0    0 -0.41308468816E+01  0.12507648920E+02  0.13203602033E+02  0.18650476787E+02  0.51100000000E-03 0.  1.
        -12    1    3    3    0    0  0.13882090420E+02  0.15627947714E+02  0.13284963565E+02  0.24767628895E+02  0.00000000000E+00 0.  1.
</event>
<event>
 7    1  0.2339217E-009  0.4778727E+02  0.7816164E-02  0.1312668E+00
        -11   -1    0    0    0    0  0.00000000000E+00  0.00000000000E+00  0.45593999997E+02  0.45594000000E+02  0.51100000000E-03 0.  1.
         11   -1    0    0    0    0 -0.00000000000E+00 -0.00000000000E+00 -0.45593999997E+02  0.45594000000E+02  0.51100000000E-03 0. -1.
    9900012    2    1    2    0    0 -0.93923317757E+01 -0.42296459050E+02  0.25331518117E+01  0.47787271867E+02  0.20000003751E+02 0.  0.
         12    1    1    2    0    0  0.93923317757E+01  0.42296459050E+02 -0.25331518117E+01  0.43400728133E+02  0.00000000000E+00 0. -1.
         11    1    3    3    0    0 -0.55503018152E+00 -0.39161873373E+01 -0.13515459135E+01  0.41798634405E+01  0.51100000000E-03 0. -1.
        -11    1    3    3    0    0 -0.77518139216E+01 -0.25713746034E+02  0.11019042616E+02  0.29029410167E+02  0.51100000000E-03 0.  1.
        -12    1    3    3    0    0 -0.10854876726E+01 -0.12666525679E+02 -0.71343448908E+01  0.14577998260E+02  0.00000000000E+00 0.  1.
</event>
<event>
 7    1  0.2339217E-009  0.4778727E+02  0.7816164E-02  0.1312668E+00
        -11   -1    0    0    0    0  0.00000000000E+00  0.00000000000E+00  0.45593999997E+02  0.45594000000E+02  0.51100000000E-03 0. -1.
         11   -1    0    0    0    0 -0.00000000000E+00 -0.00000000000E+00 -0.45593999997E+02  0.45594000000E+02  0.51100000000E-03 0.  1.
    9900012    2    1    2    0    0  0.11807224883E+02 -0.29190036739E+02  0.29868955853E+02  0.47787270420E+02  0.19999997155E+02 0.  0.
         12    1    1    2    0    0 -0.11807224883E+02  0.29190036739E+02 -0.29868955853E+02  0.43400729580E+02  0.00000000000E+00 0. -1.
         11    1    3    3    0    0  0.10749190813E+01 -0.17247383069E+01  0.72109592609E+01  0.74918693916E+01  0.51100000000E-03 0. -1.
        -11    1    3    3    0    0  0.14647790037E+02 -0.19217111955E+02  0.17175503610E+02  0.29645456133E+02  0.51100000000E-03 0.  1.
        -12    1    3    3    0    0 -0.39154842355E+01 -0.82481864780E+01  0.54824929825E+01  0.10649944896E+02  0.00000000000E+00 0.  1.
</event>
<event>
 7    1  0.2339217E-009  0.4778727E+02  0.7816164E-02  0.1312668E+00
        -11   -1    0    0    0    0  0.00000000000E+00  0.00000000000E+00  0.45593999997E+02  0.45594000000E+02  0.51100000000E-03 0.  1.
         11   -1    0    0    0    0 -0.00000000000E+00 -0.00000000000E+00 -0.45593999997E+02  0.45594000000E+02  0.51100000000E-03 0. -1.
    9900012    2    1    2    0    0 -0.12873464485E+02  0.27985488278E+02  0.30573016294E+02  0.47787274576E+02  0.20000016103E+02 0.  0.
         12    1    1    2    0    0  0.12873464485E+02 -0.27985488278E+02 -0.30573016294E+02  0.43400725424E+02  0.00000000000E+00 0. -1.
         11    1    3    3    0    0  0.19832658536E+01  0.62798070316E+01  0.82800937636E+01  0.10579663170E+02  0.51100000000E-03 0.  1.
        -11    1    3    3    0    0  0.16413850035E+01  0.42252373969E+01  0.81315575615E+01  0.93096189196E+01  0.51100000000E-03 0. -1.
        -12    1    3    3    0    0 -0.16498115342E+02  0.17480443849E+02  0.14161364969E+02  0.27897992487E+02  0.00000000000E+00 0.  1.
</event>
<event>
 7    1  0.2339217E-009  0.4778727E+02  0.7816164E-02  0.1312668E+00
        -11   -1    0    0    0    0  0.00000000000E+00  0.00000000000E+00  0.45593999997E+02  0.45594000000E+02  0.51100000000E-03 0. -1.
         11   -1    0    0    0    0 -0.00000000000E+00 -0.00000000000E+00 -0.45593999997E+02  0.45594000000E+02  0.51100000000E-03 0.  1.
    9900012    2    1    2    0    0  0.24358902167E+01  0.41990526928E+02 -0.10699776236E+02  0.47787272767E+02  0.20000007854E+02 0.  0.
         12    1    1    2    0    0 -0.24358902167E+01 -0.41990526928E+02  0.10699776236E+02  0.43400727233E+02  0.00000000000E+00 0. -1.
         11    1    3    3    0    0  0.32871647121E+01  0.61058618571E+01  0.27241235105E+01  0.74503590533E+01  0.51100000000E-03 0. -1.
        -11    1    3    3    0    0  0.25994243860E+00  0.17048467530E+02  0.22000698257E+00  0.17051868476E+02  0.51100000000E-03 0.  1.
        -12    1    3    3    0    0 -0.11112169340E+01  0.18836197541E+02 -0.13643906729E+02  0.23285045238E+02  0.00000000000E+00 0.  1.
</event>
<event>
 7    1  0.2339217E-009  0.4778727E+02  0.7816164E-02  0.1312668E+00
        -11   -1    0    0    0    0  0.00000000000E+00  0.00000000000E+00  0.45593999997E+02  0.45594000000E+02  0.51100000000E-03 0. -1.
         11   -1    0    0    0    0 -0.00000000000E+00 -0.00000000000E+00 -0.45593999997E+02  0.45594000000E+02  0.51100000000E-03 0.  1.
    9900012    2    1    2    0    0 -0.12956952307E+02 -0.41679177377E+01 -0.41211275286E+02  0.47787270028E+02  0.19999995367E+02 0.  0.
         12    1    1    2    0    0  0.12956952307E+02  0.41679177377E+01  0.41211275286E+02  0.43400729972E+02  0.00000000000E+00 0. -1.
         11    1    3    3    0    0  0.31200332516E+01  0.23341707655E+00 -0.54388557146E+01  0.62745711223E+01  0.51100000000E-03 0. -1.
        -11    1    3    3    0    0 -0.11450889028E+02 -0.13512079633E+01 -0.33664178618E+02  0.35584063073E+02  0.51100000000E-03 0.  1.
         12    1    3    3    0    0 -0.46260965312E+01 -0.30501268510E+01 -0.21082409531E+01  0.59286358329E+01  0.00000000000E+00 0. -1.
</event>
<event>
 7    1  0.2339217E-009  0.4778727E+02  0.7816164E-02  0.1312668E+00
        -11   -1    0    0    0    0  0.00000000000E+00  0.00000000000E+00  0.45593999997E+02  0.45594000000E+02  0.51100000000E-03 0.  1.
         11   -1    0    0    0    0 -0.00000000000E+00 -0.00000000000E+00 -0.45593999997E+02  0.45594000000E+02  0.51100000000E-03 0. -1.
    9900012    2    1    2    0    0 -0.85478725863E+01 -0.29078208906E+02  0.31064687728E+02  0.47787272096E+02  0.20000004796E+02 0.  0.
         12    1    1    2    0    0  0.85478725863E+01  0.29078208906E+02 -0.31064687728E+02  0.43400727904E+02  0.00000000000E+00 0. -1.
         11    1    3    3    0    0  0.80847446515E+00 -0.12025350204E+01 -0.12958273815E+01  0.19439368045E+01  0.51100000000E-03 0. -1.
        -11    1    3    3    0    0 -0.83820468420E+01 -0.12042728141E+02  0.78311791331E+01  0.16631697965E+02  0.51100000000E-03 0.  1.
        -12    1    3    3    0    0 -0.97430020946E+00 -0.15832945745E+02  0.24529335976E+02  0.29211637327E+02  0.00000000000E+00 0.  1.
</event>
<event>
 7    1  0.2339217E-009  0.4778727E+02  0.7816164E-02  0.1312668E+00
        -11   -1    0    0    0    0  0.00000000000E+00  0.00000000000E+00  0.45593999997E+02  0.45594000000E+02  0.51100000000E-03 0.  1.
         11   -1    0    0    0    0 -0.00000000000E+00 -0.00000000000E+00 -0.45593999997E+02  0.45594000000E+02  0.51100000000E-03 0. -1.
    9900012    2    1    2    0    0 -0.37855313220E+02  0.76976720372E+01  0.19782427239E+02  0.47787270499E+02  0.19999997514E+02 0.  0.
         12    1    1    2    0    0  0.37855313220E+02 -0.76976720372E+01 -0.19782427239E+02  0.43400729501E+02  0.00000000000E+00 0. -1.
         11    1    3    3    0    0 -0.26840093730E+02  0.45156894846E+01  0.22332156074E+02  0.35206636848E+02  0.51100000000E-03 0.  1.
        -11    1    3    3    0    0 -0.60182935664E+01  0.38810537748E+01 -0.65519602636E+00  0.71910860062E+01  0.51100000000E-03 0. -1.
        -12    1    3    3    0    0 -0.49969259231E+01 -0.69907122225E+00 -0.18945328088E+01  0.53895476451E+01  0.00000000000E+00 0.  1.
</event>
<event>
 7    1  0.2339217E-009  0.4778727E+02  0.7816164E-02  0.1312668E+00
        -11   -1    0    0    0    0  0.00000000000E+00  0.00000000000E+00  0.45593999997E+02  0.45594000000E+02  0.51100000000E-03 0. -1.
         11   -1    0    0    0    0 -0.00000000000E+00 -0.00000000000E+00 -0.45593999997E+02  0.45594000000E+02  0.51100000000E-03 0.  1.
    9900012    2    1    2    0    0 -0.39913913842E+02 -0.32768281169E+00 -0.17040990137E+02  0.47787271445E+02  0.20000001827E+02 0.  0.
         12    1    1    2    0    0  0.39913913842E+02  0.32768281169E+00  0.17040990137E+02  0.43400728555E+02  0.00000000000E+00 0. -1.
         11    1    3    3    0    0  0.62673014683E+00  0.16174388169E+01 -0.18851059133E+01  0.25617422916E+01  0.51100000000E-03 0. -1.
        -11    1    3    3    0    0 -0.37370469747E+01 -0.27924677271E+01  0.13856705998E+01  0.48665675141E+01  0.51100000000E-03 0.  1.
        -12    1    3    3    0    0 -0.36803597015E+02  0.84734609852E+00 -0.16541554824E+02  0.40358961639E+02  0.00000000000E+00 0.  1.
</event>
<event>
 7    1  0.2339217E-009  0.4778727E+02  0.7816164E-02  0.1312668E+00
        -11   -1    0    0    0    0  0.00000000000E+00  0.00000000000E+00  0.45593999997E+02  0.45594000000E+02  0.51100000000E-03 0.  1.
         11   -1    0    0    0    0 -0.00000000000E+00 -0.00000000000E+00 -0.45593999997E+02  0.45594000000E+02  0.51100000000E-03 0. -1.
    9900012    2    1    2    0    0  0.39089411045E+02  0.70034677979E+01  0.17509782396E+02  0.47787273087E+02  0.20000009312E+02 0.  0.
         12    1    1    2    0    0 -0.39089411045E+02 -0.70034677979E+01 -0.17509782396E+02  0.43400726913E+02  0.00000000000E+00 0. -1.
         11    1    3    3    0    0  0.81133581937E+01  0.94607943086E+01  0.70985765307E+01  0.14343047066E+02  0.51100000000E-03 0. -1.
        -11    1    3    3    0    0  0.18175519838E+02  0.18293685397E+01  0.65081660813E+01  0.19392068910E+02  0.51100000000E-03 0.  1.
         12    1    3    3    0    0  0.12800533014E+02 -0.42866950504E+01  0.39030397838E+01  0.14052157110E+02  0.00000000000E+00 0. -1.
</event>
<event>
 7    1  0.2339217E-009  0.4778728E+02  0.7816164E-02  0.1312668E+00
        -11   -1    0    0    0    0  0.00000000000E+00  0.00000000000E+00  0.45593999997E+02  0.45594000000E+02  0.51100000000E-03 0.  1.
         11   -1    0    0    0    0 -0.00000000000E+00 -0.00000000000E+00 -0.45593999997E+02  0.45594000000E+02  0.51100000000E-03 0. -1.
    9900012    2    1    2    0    0 -0.32366252138E+02 -0.27490846292E+02 -0.89611067902E+01  0.47787281778E+02  0.20000048939E+02 0.  0.
         12    1    1    2    0    0  0.32366252138E+02  0.27490846292E+02  0.89611067902E+01  0.43400718222E+02  0.00000000000E+00 0. -1.
         11    1    3    3    0    0 -0.10753081811E+02 -0.23496309279E+01  0.85424693473E+00  0.11039894566E+02  0.51100000000E-03 0. -1.
        -11    1    3    3    0    0  0.16363169751E+01 -0.13516940447E+01 -0.93069799536E+00  0.23175006047E+01  0.51100000000E-03 0.  1.
        -12    1    3    3    0    0 -0.23249487302E+02 -0.23789521319E+02 -0.88846557295E+01  0.34429886608E+02  0.00000000000E+00 0.  1.
</event>
<event>
 7    1  0.2339217E-009  0.4778727E+02  0.7816164E-02  0.1312668E+00
        -11   -1    0    0    0    0  0.00000000000E+00  0.00000000000E+00  0.45593999997E+02  0.45594000000E+02  0.51100000000E-03 0.  1.
         11   -1    0    0    0    0 -0.00000000000E+00 -0.00000000000E+00 -0.45593999997E+02  0.45594000000E+02  0.51100000000E-03 0. -1.
    9900012    2    1    2    0    0  0.25521361985E+01 -0.90201412725E+00  0.43316233214E+02  0.47787273180E+02  0.20000009736E+02 0.  0.
         12    1    1    2    0    0 -0.25521361985E+01  0.90201412725E+00 -0.43316233214E+02  0.43400726820E+02  0.00000000000E+00 0. -1.
         11    1    3    3    0    0 -0.42368152261E+01 -0.26989184849E+01  0.24949510670E+01  0.56088809344E+01  0.51100000000E-03 0. -1.
        -11    1    3    3    0    0  0.29292580064E+01  0.32185449232E+01  0.80595911606E+01  0.91595083835E+01  0.51100000000E-03 0.  1.
         12    1    3    3    0    0  0.38596934182E+01 -0.14216405655E+01  0.32761690987E+02  0.33018883862E+02  0.00000000000E+00 0. -1.
</event>
<event>
 7    1  0.2339217E-009  0.4778728E+02  0.7816164E-02  0.1312668E+00
        -11   -1    0    0    0    0  0.00000000000E+00  0.00000000000E+00  0.45593999997E+02  0.45594000000E+02  0.51100000000E-03 0. -1.
         11   -1    0    0    0    0 -0.00000000000E+00 -0.00000000000E+00 -0.45593999997E+02  0.45594000000E+02  0.51100000000E-03 0.  1.
    9900012    2    1    2    0    0 -0.77370117903E+01  0.42256680024E+02  0.61753046724E+01  0.47787277127E+02  0.20000027733E+02 0.  0.
         12    1    1    2    0    0  0.77370117903E+01 -0.42256680024E+02 -0.61753046724E+01  0.43400722873E+02  0.00000000000E+00 0. -1.
         11    1    3    3    0    0 -0.10465674847E+02  0.14296257613E+02  0.68054315835E+01  0.18979653080E+02  0.51100000000E-03 0. -1.
        -11    1    3    3    0    0  0.12516538312E+01  0.23486717971E+01 -0.16529953765E+01  0.31329364021E+01  0.51100000000E-03 0.  1.
         12    1    3    3    0    0  0.14770092258E+01  0.25611750614E+02  0.10228684654E+01  0.25674687645E+02  0.00000000000E+00 0. -1.
</event>
<event>
 7    1  0.2339217E-009  0.4778727E+02  0.7816164E-02  0.1312668E+00
        -11   -1    0    0    0    0  0.00000000000E+00  0.00000000000E+00  0.45593999997E+02  0.45594000000E+02  0.51100000000E-03 0.  1.
         11   -1    0    0    0    0 -0.00000000000E+00 -0.00000000000E+00 -0.45593999997E+02  0.45594000000E+02  0.51100000000E-03 0. -1.
    9900012    2    1    2    0    0 -0.10999236222E+01  0.25144515640E+02  0.35357696181E+02  0.47787272149E+02  0.20000005037E+02 0.  0.
         12    1    1    2    0    0  0.10999236222E+01 -0.25144515640E+02 -0.35357696181E+02  0.43400727851E+02  0.00000000000E+00 0. -1.
         11    1    3    3    0    0 -0.10274723111E+01 -0.11255538559E+01  0.14924169733E+00  0.15312884045E+01  0.51100000000E-03 0. -1.
        -11    1    3    3    0    0 -0.55701313845E+01  0.35994138896E+01  0.88124455065E+01  0.11029113294E+02  0.51100000000E-03 0.  1.
        -12    1    3    3    0    0  0.54976800734E+01  0.22670655607E+02  0.26396008977E+02  0.35226870451E+02  0.00000000000E+00 0.  1.
</event>
<event>
 7    1  0.2339217E-009  0.4778727E+02  0.7816164E-02  0.1312668E+00
        -11   -1    0    0    0    0  0.00000000000E+00  0.00000000000E+00  0.45593999997E+02  0.45594000000E+02  0.51100000000E-03 0.  1.
         11   -1    0    0    0    0 -0.00000000000E+00 -0.00000000000E+00 -0.45593999997E+02  0.45594000000E+02  0.51100000000E-03 0. -1.
    9900012    2    1    2    0    0  0.36840561075E+02  0.27078115042E+01  0.22782978411E+02  0.47787270873E+02  0.19999999218E+02 0.  0.
         12    1    1    2    0    0 -0.36840561075E+02 -0.27078115042E+01 -0.22782978411E+02  0.43400729127E+02  0.00000000000E+00 0. -1.
         11    1    3    3    0    0  0.84594754367E+01 -0.20059238934E+01  0.12883027628E+02  0.15542163828E+02  0.51100000000E-03 0. -1.
        -11    1    3    3    0    0  0.60638852368E+01  0.33723058157E+01  0.67260197426E+01  0.96634617254E+01  0.51100000000E-03 0.  1.
        -12    1    3    3    0    0  0.22317200402E+02  0.13414295820E+01  0.31739310404E+01  0.22581645320E+02  0.00000000000E+00 0.  1.
</event>
<event>
 7    1  0.2339217E-009  0.4778727E+02  0.7816164E-02  0.1312668E+00
        -11   -1    0    0    0    0  0.00000000000E+00  0.00000000000E+00  0.45593999997E+02  0.45594000000E+02  0.51100000000E-03 0.  1.
         11   -1    0    0    0    0 -0.00000000000E+00 -0.00000000000E+00 -0.45593999997E+02  0.45594000000E+02  0.51100000000E-03 0. -1.
    9900012    2    1    2    0    0  0.21148417016E+02  0.25762788746E+02  0.27796522596E+02  0.47787268501E+02  0.19999988401E+02 0.  0.
         12    1    1    2    0    0 -0.21148417016E+02 -0.25762788746E+02 -0.27796522596E+02  0.43400731499E+02  0.00000000000E+00 0. -1.
         11    1    3    3    0    0  0.28049834975E+01  0.11309487391E+02  0.11079532722E+02  0.16078820948E+02  0.51100000000E-03 0.  1.
        -11    1    3    3    0    0  0.34568105771E+01  0.10941040256E+02  0.53984818794E+01  0.12680674592E+02  0.51100000000E-03 0. -1.
         12    1    3    3    0    0  0.14886622941E+02  0.35122610993E+01  0.11318507995E+02  0.19027772961E+02  0.00000000000E+00 0. -1.
</event>
<event>
 7    1  0.2339217E-009  0.4778727E+02  0.7816164E-02  0.1312668E+00
        -11   -1    0    0    0    0  0.00000000000E+00  0.00000000000E+00  0.45593999997E+02  0.45594000000E+02  0.51100000000E-03 0.  1.
         11   -1    0    0    0    0 -0.00000000000E+00 -0.00000000000E+00 -0.45593999997E+02  0.45594000000E+02  0.51100000000E-03 0. -1.
    9900012    2    1    2    0    0 -0.30399811942E+02  0.61149794239E+00  0.30969352694E+02  0.47787270719E+02  0.19999998516E+02 0.  0.
         12    1    1    2    0    0  0.30399811942E+02 -0.61149794239E+00 -0.30969352694E+02  0.43400729281E+02  0.00000000000E+00 0. -1.
         11    1    3    3    0    0  0.12958228124E+01 -0.17099173207E+01  0.27626648556E+01  0.34978981360E+01  0.51100000000E-03 0. -1.
        -11    1    3    3    0    0 -0.13981945100E+02  0.79935283754E+00  0.20695779210E+02  0.24988978193E+02  0.51100000000E-03 0.  1.
        -12    1    3    3    0    0 -0.17713689654E+02  0.15220624255E+01  0.75109086283E+01  0.19300394390E+02  0.00000000000E+00 0.  1.
</event>
<event>
 7    1  0.2339217E-009  0.4778727E+02  0.7816164E-02  0.1312668E+00
        -11   -1    0    0    0    0  0.00000000000E+00  0.00000000000E+00  0.45593999997E+02  0.45594000000E+02  0.51100000000E-03 0.  1.
         11   -1    0    0    0    0 -0.00000000000E+00 -0.00000000000E+00 -0.45593999997E+02  0.45594000000E+02  0.51100000000E-03 0. -1.
    9900012    2    1    2    0    0  0.41111699491E+02 -0.75686580832E+01  0.11669051211E+02  0.47787272168E+02  0.20000005123E+02 0.  0.
         12    1    1    2    0    0 -0.41111699491E+02  0.75686580832E+01 -0.11669051211E+02  0.43400727832E+02  0.00000000000E+00 0. -1.
         11    1    3    3    0    0  0.24431630915E+01 -0.21577161789E+01  0.41665070402E+01  0.52900440620E+01  0.51100000000E-03 0. -1.
        -11    1    3    3    0    0  0.40534092353E+01 -0.19456300896E+01 -0.38336113346E+01  0.59086528922E+01  0.51100000000E-03 0.  1.
        -12    1    3    3    0    0  0.34615127164E+02 -0.34653118147E+01  0.11336155506E+02  0.36588575214E+02  0.00000000000E+00 0.  1.
</event>
<event>
 7    1  0.2339217E-009  0.4778727E+02  0.7816164E-02  0.1312668E+00
        -11   -1    0    0    0    0  0.00000000000E+00  0.00000000000E+00  0.45593999997E+02  0.45594000000E+02  0.51100000000E-03 0.  1.
         11   -1    0    0    0    0 -0.00000000000E+00 -0.00000000000E+00 -0.45593999997E+02  0.45594000000E+02  0.51100000000E-03 0. -1.
    9900012    2    1    2    0    0 -0.17965387888E+01 -0.32323461327E+02  0.28906569538E+02  0.47787268828E+02  0.19999989895E+02 0.  0.
         12    1    1    2    0    0  0.17965387888E+01  0.32323461327E+02 -0.28906569538E+02  0.43400731172E+02  0.00000000000E+00 0. -1.
         11    1    3    3    0    0  0.70853284585E+00  0.80462245396E+00  0.64318023595E+01  0.65205458315E+01  0.51100000000E-03 0. -1.
        -11    1    3    3    0    0  0.17409544565E+01 -0.73348727529E+01  0.93678278386E+01  0.12024453393E+02  0.51100000000E-03 0.  1.
        -12    1    3    3    0    0 -0.42460260912E+01 -0.25793211028E+02  0.13106939340E+02  0.29242269604E+02  0.00000000000E+00 0.  1.
</event>
<event>
 7    1  0.2339217E-009  0.4778727E+02  0.7816164E-02  0.1312668E+00
        -11   -1    0    0    0    0  0.00000000000E+00  0.00000000000E+00  0.45593999997E+02  0.45594000000E+02  0.51100000000E-03 0. -1.
         11   -1    0    0    0    0 -0.00000000000E+00 -0.00000000000E+00 -0.45593999997E+02  0.45594000000E+02  0.51100000000E-03 0.  1.
    9900012    2    1    2    0    0 -0.18721660288E+02 -0.26542810997E+02 -0.28785447682E+02  0.47787269847E+02  0.19999994540E+02 0.  0.
         12    1    1    2    0    0  0.18721660288E+02  0.26542810997E+02  0.28785447682E+02  0.43400730153E+02  0.00000000000E+00 0. -1.
         11    1    3    3    0    0 -0.13013916582E+01 -0.25372995108E+01  0.25304897026E+01  0.38124647476E+01  0.51100000000E-03 0. -1.
        -11    1    3    3    0    0  0.43302323578E+00 -0.42118221947E+00  0.30383795777E+00  0.67618144785E+00  0.51100000000E-03 0.  1.
        -12    1    3    3    0    0 -0.17853291865E+02 -0.23584329267E+02 -0.31619775342E+02  0.43298623651E+02  0.00000000000E+00 0.  1.
</event>
<event>
 7    1  0.2339217E-009  0.4778727E+02  0.7816164E-02  0.1312668E+00
        -11   -1    0    0    0    0  0.00000000000E+00  0.00000000000E+00  0.45593999997E+02  0.45594000000E+02  0.51100000000E-03 0. -1.
         11   -1    0    0    0    0 -0.00000000000E+00 -0.00000000000E+00 -0.45593999997E+02  0.45594000000E+02  0.51100000000E-03 0.  1.
    9900012    2    1    2    0    0  0.93768334312E+01 -0.39722034874E+02 -0.14760029835E+02  0.47787267974E+02  0.19999985999E+02 0.  0.
         12    1    1    2    0    0 -0.93768334312E+01  0.39722034874E+02  0.14760029835E+02  0.43400732026E+02  0.00000000000E+00 0. -1.
         11    1    3    3    0    0  0.64735923893E+01 -0.13215784997E+02 -0.12022622378E+02  0.19002837173E+02  0.51100000000E-03 0.  1.
        -11    1    3    3    0    0 -0.13488528498E+01 -0.34554080200E+00 -0.17842733458E+01  0.22632794988E+01  0.51100000000E-03 0. -1.
        -12    1    3    3    0    0  0.42520938917E+01 -0.26160709074E+02 -0.95313411088E+00  0.26521151301E+02  0.00000000000E+00 0.  1.
</event>
<event>
 7    1  0.2339217E-009  0.4778727E+02  0.7816164E-02  0.1312668E+00
        -11   -1    0    0    0    0  0.00000000000E+00  0.00000000000E+00  0.45593999997E+02  0.45594000000E+02  0.51100000000E-03 0.  1.
         11   -1    0    0    0    0 -0.00000000000E+00 -0.00000000000E+00 -0.45593999997E+02  0.45594000000E+02  0.51100000000E-03 0. -1.
    9900012    2    1    2    0    0  0.18056998222E+02 -0.18495373233E+02  0.34863873552E+02  0.47787266194E+02  0.19999977885E+02 0.  0.
         12    1    1    2    0    0 -0.18056998222E+02  0.18495373233E+02 -0.34863873552E+02  0.43400733806E+02  0.00000000000E+00 0. -1.
         11    1    3    3    0    0  0.40135251766E+01 -0.19301479800E+01  0.15766219662E+02  0.16383147996E+02  0.51100000000E-03 0. -1.
        -11    1    3    3    0    0 -0.79470585070E+00 -0.71363802643E+01  0.72504167302E+01  0.10204313974E+02  0.51100000000E-03 0.  1.
         12    1    3    3    0    0  0.14838178896E+02 -0.94288449889E+01  0.11847237160E+02  0.21199804223E+02  0.00000000000E+00 0. -1.
</event>
<event>
 7    1  0.2339217E-009  0.4778727E+02  0.7816164E-02  0.1312668E+00
        -11   -1    0    0    0    0  0.00000000000E+00  0.00000000000E+00  0.45593999997E+02  0.45594000000E+02  0.51100000000E-03 0.  1.
         11   -1    0    0    0    0 -0.00000000000E+00 -0.00000000000E+00 -0.45593999997E+02  0.45594000000E+02  0.51100000000E-03 0. -1.
    9900012    2    1    2    0    0  0.34463863864E+01 -0.13782808731E+02  0.41009510547E+02  0.47787270157E+02  0.19999995952E+02 0.  0.
         12    1    1    2    0    0 -0.34463863864E+01  0.13782808731E+02 -0.41009510547E+02  0.43400729843E+02  0.00000000000E+00 0. -1.
         11    1    3    3    0    0  0.98006951010E+01 -0.26706700121E+01  0.19191299610E+02  0.21713868466E+02  0.51100000000E-03 0. -1.
        -11    1    3    3    0    0 -0.21024442972E+01 -0.23712445001E+01  0.11367966870E+02  0.11801429724E+02  0.51100000000E-03 0.  1.
         12    1    3    3    0    0 -0.42518644175E+01 -0.87408942186E+01  0.10450244066E+02  0.14271971967E+02  0.00000000000E+00 0. -1.
</event>
<event>
 7    1  0.2339217E-009  0.4778727E+02  0.7816164E-02  0.1312668E+00
        -11   -1    0    0    0    0  0.00000000000E+00  0.00000000000E+00  0.45593999997E+02  0.45594000000E+02  0.51100000000E-03 0.  1.
         11   -1    0    0    0    0 -0.00000000000E+00 -0.00000000000E+00 -0.45593999997E+02  0.45594000000E+02  0.51100000000E-03 0. -1.
    9900012    2    1    2    0    0 -0.42000081692E+01  0.42629677896E+02  0.69780842942E+01  0.47787272281E+02  0.20000005639E+02 0.  0.
         12    1    1    2    0    0  0.42000081692E+01 -0.42629677896E+02 -0.69780842942E+01  0.43400727719E+02  0.00000000000E+00 0. -1.
         11    1    3    3    0    0 -0.17378341631E+01  0.92844225802E+01 -0.14275851150E+01  0.95529351378E+01  0.51100000000E-03 0. -1.
        -11    1    3    3    0    0 -0.19868422089E+01  0.26432533013E+02 -0.10307978118E+01  0.26527134935E+02  0.51100000000E-03 0.  1.
         12    1    3    3    0    0 -0.47533179717E+00  0.69127223023E+01  0.94364672210E+01  0.11707202209E+02  0.00000000000E+00 0. -1.
</event>
<event>
 7    1  0.2339217E-009  0.4778727E+02  0.7816164E-02  0.1312668E+00
        -11   -1    0    0    0    0  0.00000000000E+00  0.00000000000E+00  0.45593999997E+02  0.45594000000E+02  0.51100000000E-03 0.  1.
         11   -1    0    0    0    0 -0.00000000000E+00 -0.00000000000E+00 -0.45593999997E+02  0.45594000000E+02  0.51100000000E-03 0. -1.
    9900012    2    1    2    0    0 -0.25203975682E+02  0.30145727034E+02 -0.18428732358E+02  0.47787269305E+02  0.19999992067E+02 0.  0.
         12    1    1    2    0    0  0.25203975682E+02 -0.30145727034E+02  0.18428732358E+02  0.43400730695E+02  0.00000000000E+00 0. -1.
         11    1    3    3    0    0 -0.13800676753E+02  0.41577474415E+01 -0.11096433725E+02  0.18190007815E+02  0.51100000000E-03 0. -1.
        -11    1    3    3    0    0 -0.27703249938E+01  0.11063149897E+02 -0.22789133547E+01  0.11630194863E+02  0.51100000000E-03 0.  1.
        -12    1    3    3    0    0 -0.86329739352E+01  0.14924829696E+02 -0.50533852783E+01  0.17967066627E+02  0.00000000000E+00 0.  1.
</event>
<event>
 7    1  0.2339217E-009  0.4778727E+02  0.7816164E-02  0.1312668E+00
        -11   -1    0    0    0    0  0.00000000000E+00  0.00000000000E+00  0.45593999997E+02  0.45594000000E+02  0.51100000000E-03 0.  1.
         11   -1    0    0    0    0 -0.00000000000E+00 -0.00000000000E+00 -0.45593999997E+02  0.45594000000E+02  0.51100000000E-03 0. -1.
    9900012    2    1    2    0    0  0.32597271069E+02 -0.25485928480E+02  0.13096142194E+02  0.47787267609E+02  0.19999984338E+02 0.  0.
         12    1    1    2    0    0 -0.32597271069E+02  0.25485928480E+02 -0.13096142194E+02  0.43400732391E+02  0.00000000000E+00 0. -1.
         11    1    3    3    0    0  0.83346367863E+01 -0.77475691252E+01  0.12578195707E+01  0.11448716437E+02  0.51100000000E-03 0. -1.
        -11    1    3    3    0    0  0.13115732430E+02 -0.10526523737E+02 -0.22648954517E+01  0.16969380979E+02  0.51100000000E-03 0.  1.
         12    1    3    3    0    0  0.11146901853E+02 -0.72118356177E+01  0.14103218075E+02  0.19369170193E+02  0.00000000000E+00 0. -1.
</event>
<event>
 7    1  0.2339217E-009  0.4778727E+02  0.7816164E-02  0.1312668E+00
        -11   -1    0    0    0    0  0.00000000000E+00  0.00000000000E+00  0.45593999997E+02  0.45594000000E+02  0.51100000000E-03 0. -1.
         11   -1    0    0    0    0 -0.00000000000E+00 -0.00000000000E+00 -0.45593999997E+02  0.45594000000E+02  0.51100000000E-03 0.  1.
    9900012    2    1    2    0    0  0.30318042967E+02 -0.23785910919E+02 -0.19966721380E+02  0.47787271316E+02  0.20000001239E+02 0.  0.
         12    1    1    2    0    0 -0.30318042967E+02  0.23785910919E+02  0.19966721380E+02  0.43400728684E+02  0.00000000000E+00 0. -1.
         11    1    3    3    0    0  0.10057490038E+02 -0.48426937725E+01 -0.65480132763E+01  0.12941455365E+02  0.51100000000E-03 0. -1.
        -11    1    3    3    0    0  0.13162047343E+02 -0.20005001761E+02 -0.13835740344E+02  0.27656234322E+02  0.51100000000E-03 0.  1.
         12    1    3    3    0    0  0.70985055854E+01  0.10617846143E+01  0.41703224018E+00  0.71895816291E+01  0.00000000000E+00 0. -1.
</event>
<event>
 7    1  0.2339217E-009  0.4778727E+02  0.7816164E-02  0.1312668E+00
        -11   -1    0    0    0    0  0.00000000000E+00  0.00000000000E+00  0.45593999997E+02  0.45594000000E+02  0.51100000000E-03 0. -1.
         11   -1    0    0    0    0 -0.00000000000E+00 -0.00000000000E+00 -0.45593999997E+02  0.45594000000E+02  0.51100000000E-03 0.  1.
    9900012    2    1    2    0    0  0.34634705807E+02 -0.22156327357E+02  0.13898112752E+02  0.47787271592E+02  0.20000002495E+02 0.  0.
         12    1    1    2    0    0 -0.34634705807E+02  0.22156327357E+02 -0.13898112752E+02  0.43400728408E+02  0.00000000000E+00 0. -1.
         11    1    3    3    0    0  0.99860143414E+01 -0.84664598461E+01 -0.39166974418E+01  0.13665355607E+02  0.51100000000E-03 0. -1.
        -11    1    3    3    0    0  0.20516797086E+02 -0.10197257868E+02  0.10984026677E+02  0.25408106443E+02  0.51100000000E-03 0.  1.
         12    1    3    3    0    0  0.41318943800E+01 -0.34926096421E+01  0.68307835167E+01  0.87138095419E+01  0.00000000000E+00 0. -1.
</event>
<event>
 7    1  0.2339217E-009  0.4778726E+02  0.7816164E-02  0.1312668E+00
        -11   -1    0    0    0    0  0.00000000000E+00  0.00000000000E+00  0.45593999997E+02  0.45594000000E+02  0.51100000000E-03 0.  1.
         11   -1    0    0    0    0 -0.00000000000E+00 -0.00000000000E+00 -0.45593999997E+02  0.45594000000E+02  0.51100000000E-03 0. -1.
    9900012    2    1    2    0    0 -0.25897204640E+02  0.14732087488E+02  0.31558272990E+02  0.47787260329E+02  0.19999951143E+02 0.  0.
         12    1    1    2    0    0  0.25897204640E+02 -0.14732087488E+02 -0.31558272990E+02  0.43400739671E+02  0.00000000000E+00 0. -1.
         11    1    3    3    0    0 -0.12684823712E+02  0.21290900930E+01  0.61888397367E+01  0.14273735137E+02  0.51100000000E-03 0. -1.
        -11    1    3    3    0    0 -0.83336361215E+01 -0.13545152650E-01  0.87236391113E+01  0.12064474878E+02  0.51100000000E-03 0.  1.
        -12    1    3    3    0    0 -0.48787448068E+01  0.12616542548E+02  0.16645794141E+02  0.21449050314E+02  0.00000000000E+00 0.  1.
</event>
<event>
 7    1  0.2339217E-009  0.4778728E+02  0.7816164E-02  0.1312668E+00
        -11   -1    0    0    0    0  0.00000000000E+00  0.00000000000E+00  0.45593999997E+02  0.45594000000E+02  0.51100000000E-03 0. -1.
         11   -1    0    0    0    0 -0.00000000000E+00 -0.00000000000E+00 -0.45593999997E+02  0.45594000000E+02  0.51100000000E-03 0.  1.
    9900012    2    1    2    0    0 -0.26232329936E+01  0.42801528167E+02 -0.66910633038E+01  0.47787280042E+02  0.20000041024E+02 0.  0.
         12    1    1    2    0    0  0.26232329936E+01 -0.42801528167E+02  0.66910633038E+01  0.43400719958E+02  0.00000000000E+00 0. -1.
         11    1    3    3    0    0 -0.24047535394E+01  0.89960617123E+01  0.51724496249E+01  0.10652051507E+02  0.51100000000E-03 0.  1.
        -11    1    3    3    0    0  0.28061022133E+01  0.82997175578E+01  0.18949493211E+00  0.87633001638E+01  0.51100000000E-03 0. -1.
         12    1    3    3    0    0 -0.30245816675E+01  0.25505748896E+02 -0.12053007861E+02  0.28371928372E+02  0.00000000000E+00 0. -1.
</event>
<event>
 7    1  0.2339217E-009  0.4778727E+02  0.7816164E-02  0.1312668E+00
        -11   -1    0    0    0    0  0.00000000000E+00  0.00000000000E+00  0.45593999997E+02  0.45594000000E+02  0.51100000000E-03 0.  1.
         11   -1    0    0    0    0 -0.00000000000E+00 -0.00000000000E+00 -0.45593999997E+02  0.45594000000E+02  0.51100000000E-03 0. -1.
    9900012    2    1    2    0    0 -0.70399531135E+01  0.93676250490E+01  0.41788874244E+02  0.47787270173E+02  0.19999996028E+02 0.  0.
         12    1    1    2    0    0  0.70399531135E+01 -0.93676250490E+01 -0.41788874244E+02  0.43400729827E+02  0.00000000000E+00 0. -1.
         11    1    3    3    0    0  0.64380896769E+01  0.25039150538E+01  0.78014164102E+01  0.10420205735E+02  0.51100000000E-03 0. -1.
        -11    1    3    3    0    0 -0.28283999559E+01  0.31750104838E+01  0.88340539298E+01  0.98041341779E+01  0.51100000000E-03 0.  1.
        -12    1    3    3    0    0 -0.10649642835E+02  0.36886995115E+01  0.25153403904E+02  0.27562930261E+02  0.00000000000E+00 0.  1.
</event>
<event>
 7    1  0.2339217E-009  0.4778727E+02  0.7816164E-02  0.1312668E+00
        -11   -1    0    0    0    0  0.00000000000E+00  0.00000000000E+00  0.45593999997E+02  0.45594000000E+02  0.51100000000E-03 0.  1.
         11   -1    0    0    0    0 -0.00000000000E+00 -0.00000000000E+00 -0.45593999997E+02  0.45594000000E+02  0.51100000000E-03 0. -1.
    9900012    2    1    2    0    0 -0.11356857337E+02  0.19839105690E+01  0.41841477878E+02  0.47787269813E+02  0.19999994385E+02 0.  0.
         12    1    1    2    0    0  0.11356857337E+02 -0.19839105690E+01 -0.41841477878E+02  0.43400730187E+02  0.00000000000E+00 0. -1.
         11    1    3    3    0    0 -0.40410518788E+01  0.54059605649E+01  0.16258191286E+02  0.17603502324E+02  0.51100000000E-03 0.  1.
        -11    1    3    3    0    0 -0.70896853381E+01  0.50528580146E+00  0.25255151820E+02  0.26236265848E+02  0.51100000000E-03 0. -1.
         12    1    3    3    0    0 -0.22612012056E+00 -0.39273357974E+01  0.32813477187E+00  0.39475016407E+01  0.00000000000E+00 0. -1.
</event>
<event>
 7    1  0.2339217E-009  0.4778727E+02  0.7816164E-02  0.1312668E+00
        -11   -1    0    0    0    0  0.00000000000E+00  0.00000000000E+00  0.45593999997E+02  0.45594000000E+02  0.51100000000E-03 0.  1.
         11   -1    0    0    0    0 -0.00000000000E+00 -0.00000000000E+00 -0.45593999997E+02  0.45594000000E+02  0.51100000000E-03 0. -1.
    9900012    2    1    2    0    0  0.32221805649E+02 -0.26143616994E+02 -0.12723594421E+02  0.47787270469E+02  0.19999997378E+02 0.  0.
         12    1    1    2    0    0 -0.32221805649E+02  0.26143616994E+02  0.12723594421E+02  0.43400729531E+02  0.00000000000E+00 0. -1.
         11    1    3    3    0    0  0.19643241533E+02 -0.14084203079E+02 -0.13330552988E+02  0.27602995445E+02  0.51100000000E-03 0. -1.
        -11    1    3    3    0    0  0.11125571308E+02 -0.37641294427E+01  0.64746778053E-01  0.11745262867E+02  0.51100000000E-03 0.  1.
        -12    1    3    3    0    0  0.14529928073E+01 -0.82952844723E+01  0.54221178957E+00  0.84390121578E+01  0.00000000000E+00 0.  1.
</event>
<event>
 7    1  0.2339217E-009  0.4778727E+02  0.7816164E-02  0.1312668E+00
        -11   -1    0    0    0    0  0.00000000000E+00  0.00000000000E+00  0.45593999997E+02  0.45594000000E+02  0.51100000000E-03 0. -1.
         11   -1    0    0    0    0 -0.00000000000E+00 -0.00000000000E+00 -0.45593999997E+02  0.45594000000E+02  0.51100000000E-03 0.  1.
    9900012    2    1    2    0    0 -0.15576734933E+02  0.39861032005E+02 -0.72171217211E+01  0.47787269711E+02  0.19999993920E+02 0.  0.
         12    1    1    2    0    0  0.15576734933E+02 -0.39861032005E+02  0.72171217211E+01  0.43400730289E+02  0.00000000000E+00 0. -1.
         11    1    3    3    0    0  0.11196006693E+01  0.39607361988E+01 -0.22112603947E+01  0.46723237997E+01  0.51100000000E-03 0. -1.
        -11    1    3    3    0    0 -0.15949927871E+02  0.27587617450E+02 -0.99876646141E+01  0.33395063713E+02  0.51100000000E-03 0.  1.
        -12    1    3    3    0    0 -0.74640773101E+00  0.83126783559E+01  0.49818032877E+01  0.97198821982E+01  0.00000000000E+00 0.  1.
</event>
<event>
 7    1  0.2339217E-009  0.4778728E+02  0.7816164E-02  0.1312668E+00
        -11   -1    0    0    0    0  0.00000000000E+00  0.00000000000E+00  0.45593999997E+02  0.45594000000E+02  0.51100000000E-03 0.  1.
         11   -1    0    0    0    0 -0.00000000000E+00 -0.00000000000E+00 -0.45593999997E+02  0.45594000000E+02  0.51100000000E-03 0. -1.
    9900012    2    1    2    0    0  0.90590368269E+01  0.24547041412E+02  0.34626571244E+02  0.47787276199E+02  0.20000023501E+02 0.  0.
         12    1    1    2    0    0 -0.90590368269E+01 -0.24547041412E+02 -0.34626571244E+02  0.43400723801E+02  0.00000000000E+00 0. -1.
         11    1    3    3    0    0  0.14271226902E+01  0.14489516103E+02  0.20731289870E+02  0.25333162771E+02  0.51100000000E-03 0. -1.
        -11    1    3    3    0    0  0.76115230045E+00  0.15857377167E+01  0.11039485134E+02  0.11178736477E+02  0.51100000000E-03 0.  1.
         12    1    3    3    0    0  0.68707618363E+01  0.84717875923E+01  0.28557962408E+01  0.11275376951E+02  0.00000000000E+00 0. -1.
</event>
<event>
 7    1  0.2339217E-009  0.4778727E+02  0.7816164E-02  0.1312668E+00
        -11   -1    0    0    0    0  0.00000000000E+00  0.00000000000E+00  0.45593999997E+02  0.45594000000E+02  0.51100000000E-03 0. -1.
         11   -1    0    0    0    0 -0.00000000000E+00 -0.00000000000E+00 -0.45593999997E+02  0.45594000000E+02  0.51100000000E-03 0.  1.
    9900012    2    1    2    0    0 -0.38572675700E+02  0.40591631419E+01 -0.19475503952E+02  0.47787269934E+02  0.19999994939E+02 0.  0.
         12    1    1    2    0    0  0.38572675700E+02 -0.40591631419E+01  0.19475503952E+02  0.43400730066E+02  0.00000000000E+00 0. -1.
         11    1    3    3    0    0 -0.60001506800E+01  0.18162477901E+01 -0.48335065480E-01  0.62692025615E+01  0.51100000000E-03 0. -1.
        -11    1    3    3    0    0 -0.20287305138E+02  0.91947386454E+01 -0.92598286960E+01  0.24121824066E+02  0.51100000000E-03 0.  1.
         12    1    3    3    0    0 -0.12285219882E+02 -0.69518232936E+01 -0.10167340191E+02  0.17396243307E+02  0.00000000000E+00 0. -1.
</event>
<event>
 7    1  0.2339217E-009  0.4778727E+02  0.7816164E-02  0.1312668E+00
        -11   -1    0    0    0    0  0.00000000000E+00  0.00000000000E+00  0.45593999997E+02  0.45594000000E+02  0.51100000000E-03 0. -1.
         11   -1    0    0    0    0 -0.00000000000E+00 -0.00000000000E+00 -0.45593999997E+02  0.45594000000E+02  0.51100000000E-03 0.  1.
    9900012    2    1    2    0    0  0.36111707083E+02 -0.23700164221E+02 -0.42273201681E+01  0.47787269495E+02  0.19999992934E+02 0.  0.
         12    1    1    2    0    0 -0.36111707083E+02  0.23700164221E+02  0.42273201681E+01  0.43400730505E+02  0.00000000000E+00 0. -1.
         11    1    3    3    0    0  0.50099883747E+01 -0.59849919682E+01 -0.27001254364E+01  0.82589823832E+01  0.51100000000E-03 0. -1.
        -11    1    3    3    0    0  0.46615367035E+01  0.31926599918E+01  0.95066065158E+00  0.57294640410E+01  0.51100000000E-03 0.  1.
        -12    1    3    3    0    0  0.26440182005E+02 -0.20907832245E+02 -0.24778553833E+01  0.33798823070E+02  0.00000000000E+00 0.  1.
</event>
<event>
 7    1  0.2339217E-009  0.4778727E+02  0.7816164E-02  0.1312668E+00
        -11   -1    0    0    0    0  0.00000000000E+00  0.00000000000E+00  0.45593999997E+02  0.45594000000E+02  0.51100000000E-03 0.  1.
         11   -1    0    0    0    0 -0.00000000000E+00 -0.00000000000E+00 -0.45593999997E+02  0.45594000000E+02  0.51100000000E-03 0. -1.
    9900012    2    1    2    0    0  0.16808801157E+02  0.33881205764E+02  0.21287346207E+02  0.47787274097E+02  0.20000013919E+02 0.  0.
         12    1    1    2    0    0 -0.16808801157E+02 -0.33881205764E+02 -0.21287346207E+02  0.43400725903E+02  0.00000000000E+00 0. -1.
         11    1    3    3    0    0  0.93340917848E+01  0.18229004713E+02  0.36699360105E+01  0.20806016266E+02  0.51100000000E-03 0. -1.
        -11    1    3    3    0    0  0.32433531529E+01  0.12804355319E+02  0.64398415057E+01  0.14694979200E+02  0.51100000000E-03 0.  1.
         12    1    3    3    0    0  0.42313562189E+01  0.28478457321E+01  0.11177568691E+02  0.12286278631E+02  0.00000000000E+00 0. -1.
</event>
<event>
 7    1  0.2339217E-009  0.4778726E+02  0.7816164E-02  0.1312668E+00
        -11   -1    0    0    0    0  0.00000000000E+00  0.00000000000E+00  0.45593999997E+02  0.45594000000E+02  0.51100000000E-03 0.  1.
         11   -1    0    0    0    0 -0.00000000000E+00 -0.00000000000E+00 -0.45593999997E+02  0.45594000000E+02  0.51100000000E-03 0. -1.
    9900012    2    1    2    0    0 -0.24611234941E+02  0.10396801306E+02  0.34202594232E+02  0.47787264811E+02  0.19999971581E+02 0.  0.
         12    1    1    2    0    0  0.24611234941E+02 -0.10396801306E+02 -0.34202594232E+02  0.43400735189E+02  0.00000000000E+00 0. -1.
         11    1    3    3    0    0 -0.82027908864E-01  0.62666222865E+00  0.51239657768E+01  0.51627957222E+01  0.51100000000E-03 0.  1.
        -11    1    3    3    0    0 -0.20417141512E+01  0.36045633747E+00  0.13581087644E+02  0.13738430307E+02  0.51100000000E-03 0. -1.
         12    1    3    3    0    0 -0.22487492881E+02  0.94096827396E+01  0.15497540811E+02  0.28886038782E+02  0.00000000000E+00 0. -1.
</event>
<event>
 7    1  0.2339217E-009  0.4778727E+02  0.7816164E-02  0.1312668E+00
        -11   -1    0    0    0    0  0.00000000000E+00  0.00000000000E+00  0.45593999997E+02  0.45594000000E+02  0.51100000000E-03 0.  1.
         11   -1    0    0    0    0 -0.00000000000E+00 -0.00000000000E+00 -0.45593999997E+02  0.45594000000E+02  0.51100000000E-03 0. -1.
    9900012    2    1    2    0    0  0.80027251320E+01 -0.41748705459E+02  0.87535852678E+01  0.47787271065E+02  0.20000000094E+02 0.  0.
         12    1    1    2    0    0 -0.80027251320E+01  0.41748705459E+02 -0.87535852678E+01  0.43400728935E+02  0.00000000000E+00 0. -1.
         11    1    3    3    0    0  0.55367600448E+01 -0.22615653945E+02  0.13227617851E+02  0.26778599468E+02  0.51100000000E-03 0. -1.
        -11    1    3    3    0    0  0.29845035911E+01 -0.75890017327E+01  0.10111605484E+01  0.82172169802E+01  0.51100000000E-03 0.  1.
         12    1    3    3    0    0 -0.51853850398E+00 -0.11544049781E+02 -0.54851931319E+01  0.12791454617E+02  0.00000000000E+00 0. -1.
</event>
<event>
 7    1  0.2339217E-009  0.4778727E+02  0.7816164E-02  0.1312668E+00
        -11   -1    0    0    0    0  0.00000000000E+00  0.00000000000E+00  0.45593999997E+02  0.45594000000E+02  0.51100000000E-03 0.  1.
         11   -1    0    0    0    0 -0.00000000000E+00 -0.00000000000E+00 -0.45593999997E+02  0.45594000000E+02  0.51100000000E-03 0. -1.
    9900012    2    1    2    0    0  0.42160209120E+02  0.89613489651E+01 -0.50827296783E+01  0.47787272479E+02  0.20000006543E+02 0.  0.
         12    1    1    2    0    0 -0.42160209120E+02 -0.89613489651E+01  0.50827296783E+01  0.43400727521E+02  0.00000000000E+00 0. -1.
         11    1    3    3    0    0  0.12418429490E+02  0.92814780259E+01 -0.23308886598E+01  0.15677891043E+02  0.51100000000E-03 0. -1.
        -11    1    3    3    0    0  0.12959140805E+02  0.18870164166E+00 -0.70826040843E+01  0.14769503024E+02  0.51100000000E-03 0.  1.
         12    1    3    3    0    0  0.16782638826E+02 -0.50883070239E+00  0.43307630658E+01  0.17339878413E+02  0.00000000000E+00 0. -1.
</event>
<event>
 7    1  0.2339217E-009  0.4778727E+02  0.7816164E-02  0.1312668E+00
        -11   -1    0    0    0    0  0.00000000000E+00  0.00000000000E+00  0.45593999997E+02  0.45594000000E+02  0.51100000000E-03 0.  1.
         11   -1    0    0    0    0 -0.00000000000E+00 -0.00000000000E+00 -0.45593999997E+02  0.45594000000E+02  0.51100000000E-03 0. -1.
    9900012    2    1    2    0    0  0.36743301577E+02 -0.29349789463E+01  0.22911546801E+02  0.47787270870E+02  0.19999999206E+02 0.  0.
         12    1    1    2    0    0 -0.36743301577E+02  0.29349789463E+01 -0.22911546801E+02  0.43400729130E+02  0.00000000000E+00 0. -1.
         11    1    3    3    0    0  0.17790659537E+02 -0.55904805307E+01  0.31593538941E+01  0.18914083552E+02  0.51100000000E-03 0.  1.
        -11    1    3    3    0    0 -0.33920589677E+00 -0.61190290754E+00 -0.38241909625E+00  0.79732705645E+00  0.51100000000E-03 0. -1.
        -12    1    3    3    0    0  0.19291847937E+02  0.32674044920E+01  0.20134612003E+02  0.28075860262E+02  0.00000000000E+00 0.  1.
</event>
<event>
 7    1  0.2339217E-009  0.4778727E+02  0.7816164E-02  0.1312668E+00
        -11   -1    0    0    0    0  0.00000000000E+00  0.00000000000E+00  0.45593999997E+02  0.45594000000E+02  0.51100000000E-03 0.  1.
         11   -1    0    0    0    0 -0.00000000000E+00 -0.00000000000E+00 -0.45593999997E+02  0.45594000000E+02  0.51100000000E-03 0. -1.
    9900012    2    1    2    0    0 -0.15052123133E+02  0.38733092748E+02  0.12522160591E+02  0.47787269701E+02  0.19999993873E+02 0.  0.
         12    1    1    2    0    0  0.15052123133E+02 -0.38733092748E+02 -0.12522160591E+02  0.43400730299E+02  0.00000000000E+00 0. -1.
         11    1    3    3    0    0 -0.11614747074E+02  0.19990647577E+02  0.97773309261E+01  0.25102281578E+02  0.51100000000E-03 0. -1.
        -11    1    3    3    0    0 -0.67241438919E+01  0.11182263472E+02 -0.19577055104E+01  0.13194307051E+02  0.51100000000E-03 0.  1.
         12    1    3    3    0    0  0.32867678329E+01  0.75601816998E+01  0.47025351755E+01  0.94906810714E+01  0.00000000000E+00 0. -1.
</event>
<event>
 7    1  0.2339217E-009  0.4778727E+02  0.7816164E-02  0.1312668E+00
        -11   -1    0    0    0    0  0.00000000000E+00  0.00000000000E+00  0.45593999997E+02  0.45594000000E+02  0.51100000000E-03 0.  1.
         11   -1    0    0    0    0 -0.00000000000E+00 -0.00000000000E+00 -0.45593999997E+02  0.45594000000E+02  0.51100000000E-03 0. -1.
    9900012    2    1    2    0    0 -0.41793986682E+02  0.14765438570E+00  0.11698896484E+02  0.47787270703E+02  0.19999998441E+02 0.  0.
         12    1    1    2    0    0  0.41793986682E+02 -0.14765438570E+00 -0.11698896484E+02  0.43400729297E+02  0.00000000000E+00 0. -1.
         11    1    3    3    0    0 -0.29427153081E+02 -0.29110191021E+01  0.59866535169E+01  0.30170704189E+02  0.51100000000E-03 0. -1.
        -11    1    3    3    0    0 -0.12610320024E+02  0.41332081037E+01  0.77009748253E+01  0.15343030791E+02  0.51100000000E-03 0.  1.
        -12    1    3    3    0    0  0.24348642216E+00 -0.10745346159E+01 -0.19887318586E+01  0.22735357231E+01  0.00000000000E+00 0.  1.
</event>
<event>
 7    1  0.2339217E-009  0.4778725E+02  0.7816164E-02  0.1312668E+00
        -11   -1    0    0    0    0  0.00000000000E+00  0.00000000000E+00  0.45593999997E+02  0.45594000000E+02  0.51100000000E-03 0.  1.
         11   -1    0    0    0    0 -0.00000000000E+00 -0.00000000000E+00 -0.45593999997E+02  0.45594000000E+02  0.51100000000E-03 0. -1.
    9900012    2    1    2    0    0 -0.15451359361E+02 -0.11240692600E+02  0.38968282390E+02  0.47787254515E+02  0.19999924635E+02 0.  0.
         12    1    1    2    0    0  0.15451359361E+02  0.11240692600E+02 -0.38968282390E+02  0.43400745485E+02  0.00000000000E+00 0. -1.
         11    1    3    3    0    0  0.10763934704E+01 -0.26730583301E+01 -0.13793065244E+00  0.28849417438E+01  0.51100000000E-03 0. -1.
        -11    1    3    3    0    0 -0.22559168883E+00 -0.11020922256E+01  0.14030909395E+02  0.14075933987E+02  0.51100000000E-03 0.  1.
         12    1    3    3    0    0 -0.16302161143E+02 -0.74655420444E+01  0.25075303647E+02  0.30826378784E+02  0.00000000000E+00 0. -1.
</event>
<event>
 7    1  0.2339217E-009  0.4778727E+02  0.7816164E-02  0.1312668E+00
        -11   -1    0    0    0    0  0.00000000000E+00  0.00000000000E+00  0.45593999997E+02  0.45594000000E+02  0.51100000000E-03 0.  1.
         11   -1    0    0    0    0 -0.00000000000E+00 -0.00000000000E+00 -0.45593999997E+02  0.45594000000E+02  0.51100000000E-03 0. -1.
    9900012    2    1    2    0    0 -0.16511479121E+02 -0.19111350240E+02  0.35295191985E+02  0.47787271573E+02  0.20000002410E+02 0.  0.
         12    1    1    2    0    0  0.16511479121E+02  0.19111350240E+02 -0.35295191985E+02  0.43400728427E+02  0.00000000000E+00 0. -1.
         11    1    3    3    0    0 -0.10594806140E+02 -0.98309131294E+01  0.45836419985E+01  0.15162669433E+02  0.51100000000E-03 0. -1.
        -11    1    3    3    0    0 -0.11074702321E+01 -0.16829594896E+01  0.58091180371E+01  0.61485523165E+01  0.51100000000E-03 0.  1.
         12    1    3    3    0    0 -0.48092027492E+01 -0.75974776209E+01  0.24902431949E+02  0.26476049824E+02  0.00000000000E+00 0. -1.
</event>
<event>
 7    1  0.2339217E-009  0.4778727E+02  0.7816164E-02  0.1312668E+00
        -11   -1    0    0    0    0  0.00000000000E+00  0.00000000000E+00  0.45593999997E+02  0.45594000000E+02  0.51100000000E-03 0.  1.
         11   -1    0    0    0    0 -0.00000000000E+00 -0.00000000000E+00 -0.45593999997E+02  0.45594000000E+02  0.51100000000E-03 0. -1.
    9900012    2    1    2    0    0 -0.20149043804E+02 -0.33469812060E+02 -0.18905327864E+02  0.47787266052E+02  0.19999977238E+02 0.  0.
         12    1    1    2    0    0  0.20149043804E+02  0.33469812060E+02  0.18905327864E+02  0.43400733948E+02  0.00000000000E+00 0. -1.
         11    1    3    3    0    0 -0.11284773523E+02 -0.44509211163E+01 -0.68014385380E+01  0.13907421712E+02  0.51100000000E-03 0. -1.
        -11    1    3    3    0    0 -0.58817839877E+01 -0.66069514481E+01 -0.17720107839E+01  0.90214861744E+01  0.51100000000E-03 0.  1.
        -12    1    3    3    0    0 -0.29824862936E+01 -0.22411939496E+02 -0.10331878542E+02  0.24858358165E+02  0.00000000000E+00 0.  1.
</event>
<event>
 7    1  0.2339217E-009  0.4778727E+02  0.7816164E-02  0.1312668E+00
        -11   -1    0    0    0    0  0.00000000000E+00  0.00000000000E+00  0.45593999997E+02  0.45594000000E+02  0.51100000000E-03 0.  1.
         11   -1    0    0    0    0 -0.00000000000E+00 -0.00000000000E+00 -0.45593999997E+02  0.45594000000E+02  0.51100000000E-03 0. -1.
    9900012    2    1    2    0    0 -0.55014966052E+01  0.42981389875E+02  0.24406506402E+01  0.47787272863E+02  0.20000008290E+02 0.  0.
         12    1    1    2    0    0  0.55014966052E+01 -0.42981389875E+02 -0.24406506402E+01  0.43400727137E+02  0.00000000000E+00 0. -1.
         11    1    3    3    0    0  0.37083888009E+01  0.10140666874E+02  0.14894951045E+01  0.10899718715E+02  0.51100000000E-03 0. -1.
        -11    1    3    3    0    0 -0.11805477045E+01  0.21628994736E+02  0.55317681788E+01  0.22356376397E+02  0.51100000000E-03 0.  1.
         12    1    3    3    0    0 -0.80293377015E+01  0.11211728266E+02 -0.45806126432E+01  0.14531177751E+02  0.00000000000E+00 0. -1.
</event>
<event>
 7    1  0.2339217E-009  0.4778729E+02  0.7816164E-02  0.1312668E+00
        -11   -1    0    0    0    0  0.00000000000E+00  0.00000000000E+00  0.45593999997E+02  0.45594000000E+02  0.51100000000E-03 0.  1.
         11   -1    0    0    0    0 -0.00000000000E+00 -0.00000000000E+00 -0.45593999997E+02  0.45594000000E+02  0.51100000000E-03 0. -1.
    9900012    2    1    2    0    0 -0.30104061888E+02  0.12847997383E+02  0.28500801408E+02  0.47787294247E+02  0.20000105791E+02 0.  0.
         12    1    1    2    0    0  0.30104061888E+02 -0.12847997383E+02 -0.28500801408E+02  0.43400705753E+02  0.00000000000E+00 0. -1.
         11    1    3    3    0    0 -0.42837811936E+01 -0.21916408542E+01 -0.25200901724E+00  0.48184623849E+01  0.51100000000E-03 0. -1.
        -11    1    3    3    0    0 -0.12280721402E+02  0.18677386794E+01  0.15645252323E+02  0.19976948877E+02  0.51100000000E-03 0.  1.
         12    1    3    3    0    0 -0.13539559293E+02  0.13171899558E+02  0.13107558103E+02  0.22991882986E+02  0.00000000000E+00 0. -1.
</event>
<event>
 7    1  0.2339217E-009  0.4778726E+02  0.7816164E-02  0.1312668E+00
        -11   -1    0    0    0    0  0.00000000000E+00  0.00000000000E+00  0.45593999997E+02  0.45594000000E+02  0.51100000000E-03 0.  1.
         11   -1    0    0    0    0 -0.00000000000E+00 -0.00000000000E+00 -0.45593999997E+02  0.45594000000E+02  0.51100000000E-03 0. -1.
    9900012    2    1    2    0    0 -0.24053961962E+02  0.24896682265E+02  0.26176062444E+02  0.47787261308E+02  0.19999955609E+02 0.  0.
         12    1    1    2    0    0  0.24053961962E+02 -0.24896682265E+02 -0.26176062444E+02  0.43400738692E+02  0.00000000000E+00 0. -1.
         11    1    3    3    0    0 -0.52111798447E+01  0.10355295182E+02  0.14026802636E+02  0.18197245014E+02  0.51100000000E-03 0.  1.
        -11    1    3    3    0    0 -0.12283468764E+02  0.15898262320E+02  0.10597505571E+02  0.22714433171E+02  0.51100000000E-03 0. -1.
         12    1    3    3    0    0 -0.65593133535E+01 -0.13568752361E+01  0.15517542375E+01  0.68755831236E+01  0.00000000000E+00 0. -1.
</event>
<event>
 7    1  0.2339217E-009  0.4778727E+02  0.7816164E-02  0.1312668E+00
        -11   -1    0    0    0    0  0.00000000000E+00  0.00000000000E+00  0.45593999997E+02  0.45594000000E+02  0.51100000000E-03 0.  1.
         11   -1    0    0    0    0 -0.00000000000E+00 -0.00000000000E+00 -0.45593999997E+02  0.45594000000E+02  0.51100000000E-03 0. -1.
    9900012    2    1    2    0    0 -0.10131539597E+02 -0.18810952192E+02  0.37777283709E+02  0.47787272110E+02  0.20000004858E+02 0.  0.
         12    1    1    2    0    0  0.10131539597E+02  0.18810952192E+02 -0.37777283709E+02  0.43400727890E+02  0.00000000000E+00 0. -1.
         11    1    3    3    0    0 -0.10532725113E+01 -0.19085117267E+00  0.80837794729E+01  0.81543422776E+01  0.51100000000E-03 0. -1.
        -11    1    3    3    0    0 -0.28648504358E+01 -0.14395177894E+02  0.28455496463E+02  0.32017866791E+02  0.51100000000E-03 0.  1.
         12    1    3    3    0    0 -0.62134166497E+01 -0.42249231251E+01  0.12380077728E+01  0.76150630412E+01  0.00000000000E+00 0. -1.
</event>
<event>
 7    1  0.2339217E-009  0.4778727E+02  0.7816164E-02  0.1312668E+00
        -11   -1    0    0    0    0  0.00000000000E+00  0.00000000000E+00  0.45593999997E+02  0.45594000000E+02  0.51100000000E-03 0.  1.
         11   -1    0    0    0    0 -0.00000000000E+00 -0.00000000000E+00 -0.45593999997E+02  0.45594000000E+02  0.51100000000E-03 0. -1.
    9900012    2    1    2    0    0 -0.21526361370E+02 -0.24964706158E+02  0.28231229116E+02  0.47787273223E+02  0.20000009932E+02 0.  0.
         12    1    1    2    0    0  0.21526361370E+02  0.24964706158E+02 -0.28231229116E+02  0.43400726777E+02  0.00000000000E+00 0. -1.
         11    1    3    3    0    0 -0.47180748127E+01 -0.45034362144E+01  0.11723666172E+02  0.13415868084E+02  0.51100000000E-03 0.  1.
        -11    1    3    3    0    0 -0.83866046542E+00  0.22377182587E+01  0.14686605918E+01  0.28049418135E+01  0.51100000000E-03 0. -1.
        -12    1    3    3    0    0 -0.15969626092E+02 -0.22698988202E+02  0.15038902353E+02  0.31566463326E+02  0.00000000000E+00 0.  1.
</event>
<event>
 7    1  0.2339217E-009  0.4778727E+02  0.7816164E-02  0.1312668E+00
        -11   -1    0    0    0    0  0.00000000000E+00  0.00000000000E+00  0.45593999997E+02  0.45594000000E+02  0.51100000000E-03 0.  1.
         11   -1    0    0    0    0 -0.00000000000E+00 -0.00000000000E+00 -0.45593999997E+02  0.45594000000E+02  0.51100000000E-03 0. -1.
    9900012    2    1    2    0    0  0.16820326620E+02 -0.66138288086E+01  0.39458299046E+02  0.47787268639E+02  0.19999989031E+02 0.  0.
         12    1    1    2    0    0 -0.16820326620E+02  0.66138288086E+01 -0.39458299046E+02  0.43400731361E+02  0.00000000000E+00 0. -1.
         11    1    3    3    0    0  0.14609229350E+01 -0.26686715479E+00  0.12183999143E+01  0.19209405281E+01  0.51100000000E-03 0. -1.
        -11    1    3    3    0    0  0.16765164709E+02 -0.10347335920E+02  0.24229236602E+02  0.31228096563E+02  0.51100000000E-03 0.  1.
        -12    1    3    3    0    0 -0.14057610239E+01  0.40003742664E+01  0.14010662530E+02  0.14638231548E+02  0.00000000000E+00 0.  1.
</event>
<event>
 7    1  0.2339217E-009  0.4778728E+02  0.7816164E-02  0.1312668E+00
        -11   -1    0    0    0    0  0.00000000000E+00  0.00000000000E+00  0.45593999997E+02  0.45594000000E+02  0.51100000000E-03 0.  1.
         11   -1    0    0    0    0 -0.00000000000E+00 -0.00000000000E+00 -0.45593999997E+02  0.45594000000E+02  0.51100000000E-03 0. -1.
    9900012    2    1    2    0    0 -0.24217828601E+02  0.20479734974E+02  0.29625996588E+02  0.47787280644E+02  0.20000043770E+02 0.  0.
         12    1    1    2    0    0  0.24217828601E+02 -0.20479734974E+02 -0.29625996588E+02  0.43400719356E+02  0.00000000000E+00 0. -1.
         11    1    3    3    0    0 -0.29236151580E+01 -0.55351040542E+00  0.88816465318E+01  0.93668321612E+01  0.51100000000E-03 0.  1.
        -11    1    3    3    0    0 -0.41547003376E+01 -0.82224641425E+00  0.47734254399E+01  0.63814743400E+01  0.51100000000E-03 0. -1.
         12    1    3    3    0    0 -0.17139513105E+02  0.21855491794E+02  0.15970924616E+02  0.32038974143E+02  0.00000000000E+00 0. -1.
</event>
<event>
 7    1  0.2339217E-009  0.4778728E+02  0.7816164E-02  0.1312668E+00
        -11   -1    0    0    0    0  0.00000000000E+00  0.00000000000E+00  0.45593999997E+02  0.45594000000E+02  0.51100000000E-03 0. -1.
         11   -1    0    0    0    0 -0.00000000000E+00 -0.00000000000E+00 -0.45593999997E+02  0.45594000000E+02  0.51100000000E-03 0.  1.
    9900012    2    1    2    0    0  0.35593203471E+02  0.18656410649E+02 -0.16391592767E+02  0.47787284510E+02  0.20000061393E+02 0.  0.
         12    1    1    2    0    0 -0.35593203471E+02 -0.18656410649E+02  0.16391592767E+02  0.43400715490E+02  0.00000000000E+00 0. -1.
         11    1    3    3    0    0 -0.80778199865E+00  0.13437577470E+01 -0.32578713017E+01  0.36155113497E+01  0.51100000000E-03 0. -1.
        -11    1    3    3    0    0  0.24908992315E+02  0.56740929277E+01 -0.55496882791E+01  0.26142920054E+02  0.51100000000E-03 0.  1.
         12    1    3    3    0    0  0.11491993155E+02  0.11638559974E+02 -0.75840331860E+01  0.18028853106E+02  0.00000000000E+00 0. -1.
</event>
<event>
 7    1  0.2339217E-009  0.4778727E+02  0.7816164E-02  0.1312668E+00
        -11   -1    0    0    0    0  0.00000000000E+00  0.00000000000E+00  0.45593999997E+02  0.45594000000E+02  0.51100000000E-03 0. -1.
         11   -1    0    0    0    0 -0.00000000000E+00 -0.00000000000E+00 -0.45593999997E+02  0.45594000000E+02  0.51100000000E-03 0.  1.
    9900012    2    1    2    0    0  0.11113831568E+01  0.36869319162E+02  0.22870094647E+02  0.47787273080E+02  0.20000009281E+02 0.  0.
         12    1    1    2    0    0 -0.11113831568E+01 -0.36869319162E+02 -0.22870094647E+02  0.43400726920E+02  0.00000000000E+00 0. -1.
         11    1    3    3    0    0  0.46742097767E+01  0.96797814121E+01  0.63225734909E+01  0.12470819581E+02  0.51100000000E-03 0. -1.
        -11    1    3    3    0    0  0.10754145904E+01  0.12074065217E+02  0.15209094683E+02  0.19448807900E+02  0.51100000000E-03 0.  1.
         12    1    3    3    0    0 -0.46382412103E+01  0.15115472533E+02  0.13384264738E+01  0.15867645598E+02  0.00000000000E+00 0. -1.
</event>
<event>
 7    1  0.2339217E-009  0.4778728E+02  0.7816164E-02  0.1312668E+00
        -11   -1    0    0    0    0  0.00000000000E+00  0.00000000000E+00  0.45593999997E+02  0.45594000000E+02  0.51100000000E-03 0.  1.
         11   -1    0    0    0    0 -0.00000000000E+00 -0.00000000000E+00 -0.45593999997E+02  0.45594000000E+02  0.51100000000E-03 0. -1.
    9900012    2    1    2    0    0  0.35031501516E+02  0.11621503237E+02  0.22833251688E+02  0.47787276290E+02  0.20000023915E+02 0.  0.
         12    1    1    2    0    0 -0.35031501516E+02 -0.11621503237E+02 -0.22833251688E+02  0.43400723710E+02  0.00000000000E+00 0. -1.
         11    1    3    3    0    0  0.15309220929E+02  0.17954216941E+01  0.89755422801E+01  0.17836932023E+02  0.51100000000E-03 0. -1.
        -11    1    3    3    0    0  0.50669040910E+01 -0.38994772155E+01  0.23803839258E+01  0.68224385315E+01  0.51100000000E-03 0.  1.
         12    1    3    3    0    0  0.14655376496E+02  0.13725558759E+02  0.11477325482E+02  0.23127905735E+02  0.00000000000E+00 0. -1.
</event>
<event>
 7    1  0.2339217E-009  0.4778727E+02  0.7816164E-02  0.1312668E+00
        -11   -1    0    0    0    0  0.00000000000E+00  0.00000000000E+00  0.45593999997E+02  0.45594000000E+02  0.51100000000E-03 0.  1.
         11   -1    0    0    0    0 -0.00000000000E+00 -0.00000000000E+00 -0.45593999997E+02  0.45594000000E+02  0.51100000000E-03 0. -1.
    9900012    2    1    2    0    0 -0.27995914833E+02  0.13168427502E+02  0.30437555430E+02  0.47787268315E+02  0.19999987557E+02 0.  0.
         12    1    1    2    0    0  0.27995914833E+02 -0.13168427502E+02 -0.30437555430E+02  0.43400731685E+02  0.00000000000E+00 0. -1.
         11    1    3    3    0    0 -0.31381628052E+01 -0.65007284852E+00  0.79707329515E+01  0.85908814766E+01  0.51100000000E-03 0. -1.
        -11    1    3    3    0    0 -0.55656163468E+01  0.96554014033E-01 -0.12290524979E+01  0.57005243882E+01  0.51100000000E-03 0.  1.
        -12    1    3    3    0    0 -0.19292135681E+02  0.13721946337E+02  0.23695874976E+02  0.33495862450E+02  0.00000000000E+00 0.  1.
</event>
<event>
 7    1  0.2339217E-009  0.4778727E+02  0.7816164E-02  0.1312668E+00
        -11   -1    0    0    0    0  0.00000000000E+00  0.00000000000E+00  0.45593999997E+02  0.45594000000E+02  0.51100000000E-03 0.  1.
         11   -1    0    0    0    0 -0.00000000000E+00 -0.00000000000E+00 -0.45593999997E+02  0.45594000000E+02  0.51100000000E-03 0. -1.
    9900012    2    1    2    0    0 -0.16793138986E+02  0.17982235197E+02  0.35752662443E+02  0.47787272224E+02  0.20000005379E+02 0.  0.
         12    1    1    2    0    0  0.16793138986E+02 -0.17982235197E+02 -0.35752662443E+02  0.43400727776E+02  0.00000000000E+00 0. -1.
         11    1    3    3    0    0 -0.19978314946E+02  0.15328488786E+02  0.35408498651E+02  0.43449481166E+02  0.51100000000E-03 0.  1.
        -11    1    3    3    0    0  0.16231775155E+01  0.68675607326E+00 -0.18092135185E+00  0.17717426302E+01  0.51100000000E-03 0. -1.
        -12    1    3    3    0    0  0.15619984447E+01  0.19669903374E+01  0.52508514374E+00  0.25660484284E+01  0.00000000000E+00 0.  1.
</event>
<event>
 7    1  0.2339217E-009  0.4778727E+02  0.7816164E-02  0.1312668E+00
        -11   -1    0    0    0    0  0.00000000000E+00  0.00000000000E+00  0.45593999997E+02  0.45594000000E+02  0.51100000000E-03 0.  1.
         11   -1    0    0    0    0 -0.00000000000E+00 -0.00000000000E+00 -0.45593999997E+02  0.45594000000E+02  0.51100000000E-03 0. -1.
    9900012    2    1    2    0    0 -0.10579067566E+02  0.19288257010E+02  0.37412161482E+02  0.47787270100E+02  0.19999995695E+02 0.  0.
         12    1    1    2    0    0  0.10579067566E+02 -0.19288257010E+02 -0.37412161482E+02  0.43400729900E+02  0.00000000000E+00 0. -1.
         11    1    3    3    0    0  0.44544145850E+01  0.48958403917E+01  0.48315150499E+01  0.81947910513E+01  0.51100000000E-03 0. -1.
        -11    1    3    3    0    0 -0.32030134287E+01  0.45717925108E+01  0.16160610756E+02  0.17097541404E+02  0.51100000000E-03 0.  1.
         12    1    3    3    0    0 -0.11830468722E+02  0.98206241078E+01  0.16420035676E+02  0.22494937645E+02  0.00000000000E+00 0. -1.
</event>
<event>
 7    1  0.2339217E-009  0.4778727E+02  0.7816164E-02  0.1312668E+00
        -11   -1    0    0    0    0  0.00000000000E+00  0.00000000000E+00  0.45593999997E+02  0.45594000000E+02  0.51100000000E-03 0.  1.
         11   -1    0    0    0    0 -0.00000000000E+00 -0.00000000000E+00 -0.45593999997E+02  0.45594000000E+02  0.51100000000E-03 0. -1.
    9900012    2    1    2    0    0 -0.32051655157E+02  0.14877723547E+01  0.29225014661E+02  0.47787267900E+02  0.19999985663E+02 0.  0.
         12    1    1    2    0    0  0.32051655157E+02 -0.14877723547E+01 -0.29225014661E+02  0.43400732100E+02  0.00000000000E+00 0. -1.
         11    1    3    3    0    0 -0.41188460297E+01 -0.20767941324E+01 -0.11979648140E+01  0.47658248438E+01  0.51100000000E-03 0. -1.
        -11    1    3    3    0    0 -0.10741755763E+02  0.17710214806E+01  0.43155007081E+01  0.11710908614E+02  0.51100000000E-03 0.  1.
        -12    1    3    3    0    0 -0.17191053365E+02  0.17935450065E+01  0.26107478767E+02  0.31310534442E+02  0.00000000000E+00 0.  1.
</event>
<event>
 7    1  0.2339217E-009  0.4778727E+02  0.7816164E-02  0.1312668E+00
        -11   -1    0    0    0    0  0.00000000000E+00  0.00000000000E+00  0.45593999997E+02  0.45594000000E+02  0.51100000000E-03 0. -1.
         11   -1    0    0    0    0 -0.00000000000E+00 -0.00000000000E+00 -0.45593999997E+02  0.45594000000E+02  0.51100000000E-03 0.  1.
    9900012    2    1    2    0    0  0.38856494626E+02  0.19102025313E+02 -0.29847531335E+01  0.47787270779E+02  0.19999998788E+02 0.  0.
         12    1    1    2    0    0 -0.38856494626E+02 -0.19102025313E+02  0.29847531335E+01  0.43400729221E+02  0.00000000000E+00 0. -1.
         11    1    3    3    0    0  0.33285924676E+00 -0.26187221529E+01  0.50132388525E+00  0.26869735561E+01  0.51100000000E-03 0. -1.
        -11    1    3    3    0    0  0.63670839284E+01  0.54433877106E+00 -0.13932046673E+01  0.65404190963E+01  0.51100000000E-03 0.  1.
        -12    1    3    3    0    0  0.32156551451E+02  0.21176408695E+02 -0.20928723514E+01  0.38559878126E+02  0.00000000000E+00 0.  1.
</event>
<event>
 7    1  0.2339217E-009  0.4778727E+02  0.7816164E-02  0.1312668E+00
        -11   -1    0    0    0    0  0.00000000000E+00  0.00000000000E+00  0.45593999997E+02  0.45594000000E+02  0.51100000000E-03 0.  1.
         11   -1    0    0    0    0 -0.00000000000E+00 -0.00000000000E+00 -0.45593999997E+02  0.45594000000E+02  0.51100000000E-03 0. -1.
    9900012    2    1    2    0    0  0.49580503793E+01  0.33922643246E+02  0.26613817256E+02  0.47787271236E+02  0.20000000872E+02 0.  0.
         12    1    1    2    0    0 -0.49580503793E+01 -0.33922643246E+02 -0.26613817256E+02  0.43400728764E+02  0.00000000000E+00 0. -1.
         11    1    3    3    0    0 -0.75168333103E+00  0.12821653079E+02  0.13145475608E+02  0.18378339009E+02  0.51100000000E-03 0. -1.
        -11    1    3    3    0    0 -0.97919963043E+00  0.17493452287E+02  0.12958208577E+02  0.21792082843E+02  0.51100000000E-03 0.  1.
        -12    1    3    3    0    0  0.66889333407E+01  0.36075378800E+01  0.51013307101E+00  0.76168493843E+01  0.00000000000E+00 0.  1.
</event>
<event>
 7    1  0.2339217E-009  0.4778728E+02  0.7816164E-02  0.1312668E+00
        -11   -1    0    0    0    0  0.00000000000E+00  0.00000000000E+00  0.45593999997E+02  0.45594000000E+02  0.51100000000E-03 0.  1.
         11   -1    0    0    0    0 -0.00000000000E+00 -0.00000000000E+00 -0.45593999997E+02  0.45594000000E+02  0.51100000000E-03 0. -1.
    9900012    2    1    2    0    0 -0.35126206096E+01  0.26128331265E+02  0.34476001791E+02  0.47787275378E+02  0.20000019759E+02 0.  0.
         12    1    1    2    0    0  0.35126206096E+01 -0.26128331265E+02 -0.34476001791E+02  0.43400724622E+02  0.00000000000E+00 0. -1.
         11    1    3    3    0    0 -0.57760886180E+01  0.82667150830E+01  0.11454719019E+02  0.15261466707E+02  0.51100000000E-03 0. -1.
        -11    1    3    3    0    0 -0.40335809793E+01  0.18481013970E+01  0.10022678975E+02  0.10960809659E+02  0.51100000000E-03 0.  1.
        -12    1    3    3    0    0  0.62970489876E+01  0.16013514785E+02  0.12998603797E+02  0.21564999012E+02  0.00000000000E+00 0.  1.
</event>
<event>
 7    1  0.2339217E-009  0.4778732E+02  0.7816164E-02  0.1312668E+00
        -11   -1    0    0    0    0  0.00000000000E+00  0.00000000000E+00  0.45593999997E+02  0.45594000000E+02  0.51100000000E-03 0. -1.
         11   -1    0    0    0    0 -0.00000000000E+00 -0.00000000000E+00 -0.45593999997E+02  0.45594000000E+02  0.51100000000E-03 0.  1.
    9900012    2    1    2    0    0  0.41164834593E+02 -0.11639530731E+02 -0.73209763152E+01  0.47787320547E+02  0.20000225702E+02 0.  0.
         12    1    1    2    0    0 -0.41164834593E+02  0.11639530731E+02  0.73209763152E+01  0.43400679453E+02  0.00000000000E+00 0. -1.
         11    1    3    3    0    0  0.91083852164E+01  0.16429177594E+01  0.19933036344E+01  0.94675825666E+01  0.51100000000E-03 0. -1.
        -11    1    3    3    0    0  0.41666702967E+01  0.25062257702E+01  0.26633024645E+00  0.48696243217E+01  0.51100000000E-03 0.  1.
        -12    1    3    3    0    0  0.27889779080E+02 -0.15788674261E+02 -0.95806101960E+01  0.33450113659E+02  0.00000000000E+00 0.  1.
</event>
<event>
 7    1  0.2339217E-009  0.4778727E+02  0.7816164E-02  0.1312668E+00
        -11   -1    0    0    0    0  0.00000000000E+00  0.00000000000E+00  0.45593999997E+02  0.45594000000E+02  0.51100000000E-03 0.  1.
         11   -1    0    0    0    0 -0.00000000000E+00 -0.00000000000E+00 -0.45593999997E+02  0.45594000000E+02  0.51100000000E-03 0. -1.
    9900012    2    1    2    0    0  0.20555894276E+02  0.26335548742E+02  0.27704102296E+02  0.47787271883E+02  0.20000003824E+02 0.  0.
         12    1    1    2    0    0 -0.20555894276E+02 -0.26335548742E+02 -0.27704102296E+02  0.43400728117E+02  0.00000000000E+00 0. -1.
         11    1    3    3    0    0  0.55075542947E+01  0.13621012177E+02  0.13451921488E+02  0.19920324270E+02  0.51100000000E-03 0. -1.
        -11    1    3    3    0    0  0.94352694603E+01  0.10143052075E+02  0.16272679501E+02  0.21370678828E+02  0.51100000000E-03 0.  1.
         12    1    3    3    0    0  0.56130705213E+01  0.25714844901E+01 -0.20204986929E+01  0.64962687850E+01  0.00000000000E+00 0. -1.
</event>
<event>
 7    1  0.2339217E-009  0.4778727E+02  0.7816164E-02  0.1312668E+00
        -11   -1    0    0    0    0  0.00000000000E+00  0.00000000000E+00  0.45593999997E+02  0.45594000000E+02  0.51100000000E-03 0.  1.
         11   -1    0    0    0    0 -0.00000000000E+00 -0.00000000000E+00 -0.45593999997E+02  0.45594000000E+02  0.51100000000E-03 0. -1.
    9900012    2    1    2    0    0  0.32808644136E+02 -0.28219353407E+02  0.32991189395E+01  0.47787271636E+02  0.20000002697E+02 0.  0.
         12    1    1    2    0    0 -0.32808644136E+02  0.28219353407E+02 -0.32991189395E+01  0.43400728364E+02  0.00000000000E+00 0. -1.
         11    1    3    3    0    0  0.19540770369E+02 -0.83859475791E+01 -0.23540513677E+00  0.21265494098E+02  0.51100000000E-03 0. -1.
        -11    1    3    3    0    0  0.81934117520E+01 -0.74566856381E+01 -0.32193759517E+01  0.11536833995E+02  0.51100000000E-03 0.  1.
         12    1    3    3    0    0  0.50744620156E+01 -0.12376720190E+02  0.67539000279E+01  0.14984943543E+02  0.00000000000E+00 0. -1.
</event>
<event>
 7    1  0.2467266E-009  0.4778730E+02  0.7816164E-02  0.1312668E+00
        -11   -1    0    0    0    0  0.00000000000E+00  0.00000000000E+00  0.45593999997E+02  0.45594000000E+02  0.51100000000E-03 0.  1.
         11   -1    0    0    0    0 -0.00000000000E+00 -0.00000000000E+00 -0.45593999997E+02  0.45594000000E+02  0.51100000000E-03 0. -1.
    9900012    2    1    2    0    0  0.38996447965E+02 -0.12798146620E+02  0.14110468926E+02  0.47787299037E+02  0.20000127629E+02 0.  0.
         12    1    1    2    0    0 -0.38996447965E+02  0.12798146620E+02 -0.14110468926E+02  0.43400700963E+02  0.00000000000E+00 0. -1.
         11    1    3    3    0    0  0.42465251419E+00  0.85317315799E+00  0.32146904234E+01  0.33529791193E+01  0.51100000000E-03 0. -1.
        -11    1    3    3    0    0  0.96968704745E+01 -0.97356974797E+01  0.15243623325E+01  0.13825222718E+02  0.51100000000E-03 0.  1.
        -12    1    3    3    0    0  0.28874924976E+02 -0.39156222985E+01  0.93714161705E+01  0.30609097200E+02  0.00000000000E+00 0.  1.
</event>
<event>
 7    1  0.2339217E-009  0.4778728E+02  0.7816164E-02  0.1312668E+00
        -11   -1    0    0    0    0  0.00000000000E+00  0.00000000000E+00  0.45593999997E+02  0.45594000000E+02  0.51100000000E-03 0. -1.
         11   -1    0    0    0    0 -0.00000000000E+00 -0.00000000000E+00 -0.45593999997E+02  0.45594000000E+02  0.51100000000E-03 0.  1.
    9900012    2    1    2    0    0  0.34751142077E+02  0.25330325855E+02 -0.58613558996E+01  0.47787276774E+02  0.20000026123E+02 0.  0.
         12    1    1    2    0    0 -0.34751142077E+02 -0.25330325855E+02  0.58613558996E+01  0.43400723226E+02  0.00000000000E+00 0. -1.
         11    1    3    3    0    0  0.90525890536E+01  0.74698379835E+01  0.27037175049E+01  0.12044000028E+02  0.51100000000E-03 0. -1.
        -11    1    3    3    0    0  0.14414314348E+02  0.15883183211E+02 -0.15795165825E-01  0.21448734620E+02  0.51100000000E-03 0.  1.
        -12    1    3    3    0    0  0.11284238675E+02  0.19773046608E+01 -0.85492782387E+01  0.14294542126E+02  0.00000000000E+00 0.  1.
</event>
<event>
 7    1  0.2339217E-009  0.4778731E+02  0.7816164E-02  0.1312668E+00
        -11   -1    0    0    0    0  0.00000000000E+00  0.00000000000E+00  0.45593999997E+02  0.45594000000E+02  0.51100000000E-03 0.  1.
         11   -1    0    0    0    0 -0.00000000000E+00 -0.00000000000E+00 -0.45593999997E+02  0.45594000000E+02  0.51100000000E-03 0. -1.
    9900012    2    1    2    0    0 -0.18450174318E+02 -0.13973517877E+02  0.36714467096E+02  0.47787306130E+02  0.20000159969E+02 0.  0.
         12    1    1    2    0    0  0.18450174318E+02  0.13973517877E+02 -0.36714467096E+02  0.43400693870E+02  0.00000000000E+00 0. -1.
         11    1    3    3    0    0 -0.18287809760E+02 -0.10645488827E+02  0.19206400612E+02  0.28577197954E+02  0.51100000000E-03 0. -1.
        -11    1    3    3    0    0  0.14523398245E+01 -0.37263078366E+01  0.42037827253E+01  0.58022797693E+01  0.51100000000E-03 0.  1.
         12    1    3    3    0    0 -0.16147043831E+01  0.39827878716E+00  0.13304283759E+02  0.13407828407E+02  0.00000000000E+00 0. -1.
</event>
<event>
 7    1  0.2339217E-009  0.4778727E+02  0.7816164E-02  0.1312668E+00
        -11   -1    0    0    0    0  0.00000000000E+00  0.00000000000E+00  0.45593999997E+02  0.45594000000E+02  0.51100000000E-03 0. -1.
         11   -1    0    0    0    0 -0.00000000000E+00 -0.00000000000E+00 -0.45593999997E+02  0.45594000000E+02  0.51100000000E-03 0.  1.
    9900012    2    1    2    0    0 -0.17693145250E+02  0.20537441877E+01 -0.39577238529E+02  0.47787273467E+02  0.20000011045E+02 0.  0.
         12    1    1    2    0    0  0.17693145250E+02 -0.20537441877E+01  0.39577238529E+02  0.43400726533E+02  0.00000000000E+00 0. -1.
         11    1    3    3    0    0  0.31887282097E+00  0.56517639547E+01 -0.10385109772E+02  0.11827705649E+02  0.51100000000E-03 0. -1.
        -11    1    3    3    0    0 -0.44912813597E+01  0.34036416044E+01 -0.61518406513E+01  0.83427530278E+01  0.51100000000E-03 0.  1.
         12    1    3    3    0    0 -0.13520736712E+02 -0.70016613715E+01 -0.23040288106E+02  0.27616814791E+02  0.00000000000E+00 0. -1.
</event>
<event>
 7    1  0.2339217E-009  0.4778727E+02  0.7816164E-02  0.1312668E+00
        -11   -1    0    0    0    0  0.00000000000E+00  0.00000000000E+00  0.45593999997E+02  0.45594000000E+02  0.51100000000E-03 0.  1.
         11   -1    0    0    0    0 -0.00000000000E+00 -0.00000000000E+00 -0.45593999997E+02  0.45594000000E+02  0.51100000000E-03 0. -1.
    9900012    2    1    2    0    0  0.86074998487E+01  0.41985601777E+02  0.68369181537E+01  0.47787271204E+02  0.20000000726E+02 0.  0.
         12    1    1    2    0    0 -0.86074998487E+01 -0.41985601777E+02 -0.68369181537E+01  0.43400728796E+02  0.00000000000E+00 0. -1.
         11    1    3    3    0    0 -0.83596422971E+00 -0.48397203185E+00 -0.59116579732E+00  0.11324938772E+01  0.51100000000E-03 0. -1.
        -11    1    3    3    0    0  0.16216904983E+00  0.32104529709E+02  0.42696933781E+01  0.32387611960E+02  0.51100000000E-03 0.  1.
         12    1    3    3    0    0  0.92812950286E+01  0.10365044099E+02  0.31583905729E+01  0.14267165367E+02  0.00000000000E+00 0. -1.
</event>
<event>
 7    1  0.2339217E-009  0.4778727E+02  0.7816164E-02  0.1312668E+00
        -11   -1    0    0    0    0  0.00000000000E+00  0.00000000000E+00  0.45593999997E+02  0.45594000000E+02  0.51100000000E-03 0. -1.
         11   -1    0    0    0    0 -0.00000000000E+00 -0.00000000000E+00 -0.45593999997E+02  0.45594000000E+02  0.51100000000E-03 0.  1.
    9900012    2    1    2    0    0 -0.23639831427E+02 -0.34165995699E+02 -0.12548560655E+02  0.47787271129E+02  0.20000000387E+02 0.  0.
         12    1    1    2    0    0  0.23639831427E+02  0.34165995699E+02  0.12548560655E+02  0.43400728871E+02  0.00000000000E+00 0. -1.
         11    1    3    3    0    0 -0.72245303074E+01 -0.10060887901E+02 -0.12991539404E+02  0.17949802224E+02  0.51100000000E-03 0. -1.
        -11    1    3    3    0    0 -0.11088575930E+02 -0.11181238281E+02 -0.10334328063E+01  0.15781146640E+02  0.51100000000E-03 0.  1.
         12    1    3    3    0    0 -0.53267251889E+01 -0.12923869517E+02  0.14764115559E+01  0.14056322265E+02  0.00000000000E+00 0. -1.
</event>
<event>
 7    1  0.2339217E-009  0.4778724E+02  0.7816164E-02  0.1312668E+00
        -11   -1    0    0    0    0  0.00000000000E+00  0.00000000000E+00  0.45593999997E+02  0.45594000000E+02  0.51100000000E-03 0.  1.
         11   -1    0    0    0    0 -0.00000000000E+00 -0.00000000000E+00 -0.45593999997E+02  0.45594000000E+02  0.51100000000E-03 0. -1.
    9900012    2    1    2    0    0 -0.20747305654E+02  0.84944626920E+01  0.37162067501E+02  0.47787241375E+02  0.19999864724E+02 0.  0.
         12    1    1    2    0    0  0.20747305654E+02 -0.84944626920E+01 -0.37162067501E+02  0.43400758625E+02  0.00000000000E+00 0. -1.
         11    1    3    3    0    0 -0.10502812999E+02  0.23286305666E+01  0.82027669863E+01  0.13528377127E+02  0.51100000000E-03 0.  1.
        -11    1    3    3    0    0 -0.53643760429E+01  0.21933028493E-01  0.13158311997E+01  0.55234430743E+01  0.51100000000E-03 0. -1.
         12    1    3    3    0    0 -0.48801166121E+01  0.61438990969E+01  0.27643469315E+02  0.28735421173E+02  0.00000000000E+00 0. -1.
</event>
<event>
 7    1  0.2339217E-009  0.4778727E+02  0.7816164E-02  0.1312668E+00
        -11   -1    0    0    0    0  0.00000000000E+00  0.00000000000E+00  0.45593999997E+02  0.45594000000E+02  0.51100000000E-03 0. -1.
         11   -1    0    0    0    0 -0.00000000000E+00 -0.00000000000E+00 -0.45593999997E+02  0.45594000000E+02  0.51100000000E-03 0.  1.
    9900012    2    1    2    0    0  0.21233095443E+02  0.77030094348E+01 -0.37059986972E+02  0.47787270389E+02  0.19999997011E+02 0.  0.
         12    1    1    2    0    0 -0.21233095443E+02 -0.77030094348E+01  0.37059986972E+02  0.43400729611E+02  0.00000000000E+00 0. -1.
         11    1    3    3    0    0  0.10277276869E+02 -0.64631582689E+00 -0.66911950784E+01  0.12280563335E+02  0.51100000000E-03 0. -1.
        -11    1    3    3    0    0  0.72531437505E+01  0.21764023293E+01 -0.48512044720E+01  0.89932756244E+01  0.51100000000E-03 0.  1.
        -12    1    3    3    0    0  0.37026748240E+01  0.61729229324E+01 -0.25517587421E+02  0.26513431430E+02  0.00000000000E+00 0.  1.
</event>
<event>
 7    1  0.2339217E-009  0.4778727E+02  0.7816164E-02  0.1312668E+00
        -11   -1    0    0    0    0  0.00000000000E+00  0.00000000000E+00  0.45593999997E+02  0.45594000000E+02  0.51100000000E-03 0.  1.
         11   -1    0    0    0    0 -0.00000000000E+00 -0.00000000000E+00 -0.45593999997E+02  0.45594000000E+02  0.51100000000E-03 0. -1.
    9900012    2    1    2    0    0  0.36417035963E+02 -0.18927475754E+02 -0.14112899131E+02  0.47787265345E+02  0.19999974014E+02 0.  0.
         12    1    1    2    0    0 -0.36417035963E+02  0.18927475754E+02  0.14112899131E+02  0.43400734655E+02  0.00000000000E+00 0. -1.
         11    1    3    3    0    0  0.15082827913E+02 -0.11767701808E+02 -0.50975830977E+01  0.19797875073E+02  0.51100000000E-03 0. -1.
        -11    1    3    3    0    0  0.17450414382E+02 -0.10934657689E+02 -0.48495924507E+01  0.21156612396E+02  0.51100000000E-03 0.  1.
         12    1    3    3    0    0  0.38837936670E+01  0.37748837438E+01 -0.41657235826E+01  0.68327778754E+01  0.00000000000E+00 0. -1.
</event>
<event>
 7    1  0.2339217E-009  0.4778726E+02  0.7816164E-02  0.1312668E+00
        -11   -1    0    0    0    0  0.00000000000E+00  0.00000000000E+00  0.45593999997E+02  0.45594000000E+02  0.51100000000E-03 0. -1.
         11   -1    0    0    0    0 -0.00000000000E+00 -0.00000000000E+00 -0.45593999997E+02  0.45594000000E+02  0.51100000000E-03 0.  1.
    9900012    2    1    2    0    0 -0.39933655273E+02 -0.64913552361E+01 -0.15709550356E+02  0.47787257050E+02  0.19999936193E+02 0.  0.
         12    1    1    2    0    0  0.39933655273E+02  0.64913552361E+01  0.15709550356E+02  0.43400742950E+02  0.00000000000E+00 0. -1.
         11    1    3    3    0    0 -0.12529472378E+02  0.21261338286E+01 -0.47346335258E+01  0.13561890650E+02  0.51100000000E-03 0.  1.
        -11    1    3    3    0    0 -0.27435827724E+02 -0.39179698850E+01 -0.95768640403E+01  0.29322200737E+02  0.51100000000E-03 0. -1.
         12    1    3    3    0    0  0.31644829304E-01 -0.46995191797E+01 -0.13980527898E+01  0.49031656630E+01  0.00000000000E+00 0. -1.
</event>
<event>
 7    1  0.2339217E-009  0.4778728E+02  0.7816164E-02  0.1312668E+00
        -11   -1    0    0    0    0  0.00000000000E+00  0.00000000000E+00  0.45593999997E+02  0.45594000000E+02  0.51100000000E-03 0.  1.
         11   -1    0    0    0    0 -0.00000000000E+00 -0.00000000000E+00 -0.45593999997E+02  0.45594000000E+02  0.51100000000E-03 0. -1.
    9900012    2    1    2    0    0  0.14788357172E+02 -0.28041988814E+02  0.29640753000E+02  0.47787275549E+02  0.20000020539E+02 0.  0.
         12    1    1    2    0    0 -0.14788357172E+02  0.28041988814E+02 -0.29640753000E+02  0.43400724451E+02  0.00000000000E+00 0. -1.
         11    1    3    3    0    0  0.21745908135E+01 -0.94580006582E+01  0.93289856799E+01  0.13461522787E+02  0.51100000000E-03 0. -1.
        -11    1    3    3    0    0  0.40703685207E+01 -0.79395879825E+01  0.18523382617E+02  0.20560171718E+02  0.51100000000E-03 0.  1.
         12    1    3    3    0    0  0.85433978376E+01 -0.10644400173E+02  0.17883847027E+01  0.13765581045E+02  0.00000000000E+00 0. -1.
</event>
<event>
 7    1  0.2339217E-009  0.4778727E+02  0.7816164E-02  0.1312668E+00
        -11   -1    0    0    0    0  0.00000000000E+00  0.00000000000E+00  0.45593999997E+02  0.45594000000E+02  0.51100000000E-03 0. -1.
         11   -1    0    0    0    0 -0.00000000000E+00 -0.00000000000E+00 -0.45593999997E+02  0.45594000000E+02  0.51100000000E-03 0.  1.
    9900012    2    1    2    0    0  0.26933772341E+02  0.11693388532E+02 -0.31960287312E+02  0.47787269673E+02  0.19999993746E+02 0.  0.
         12    1    1    2    0    0 -0.26933772341E+02 -0.11693388532E+02  0.31960287312E+02  0.43400730327E+02  0.00000000000E+00 0. -1.
         11    1    3    3    0    0  0.17801204476E+02  0.21381623578E+01 -0.77747964418E+01  0.19542315089E+02  0.51100000000E-03 0. -1.
        -11    1    3    3    0    0  0.10488903643E+01  0.27525855792E+01 -0.16998854980E+01  0.34009571204E+01  0.51100000000E-03 0.  1.
         12    1    3    3    0    0  0.80836775007E+01  0.68026405945E+01 -0.22485605373E+02  0.24843997464E+02  0.00000000000E+00 0. -1.
</event>
<event>
 7    1  0.2339217E-009  0.4778727E+02  0.7816164E-02  0.1312668E+00
        -11   -1    0    0    0    0  0.00000000000E+00  0.00000000000E+00  0.45593999997E+02  0.45594000000E+02  0.51100000000E-03 0.  1.
         11   -1    0    0    0    0 -0.00000000000E+00 -0.00000000000E+00 -0.45593999997E+02  0.45594000000E+02  0.51100000000E-03 0. -1.
    9900012    2    1    2    0    0  0.20105225021E+02  0.22917169845E+02  0.30890230696E+02  0.47787273055E+02  0.20000009168E+02 0.  0.
         12    1    1    2    0    0 -0.20105225021E+02 -0.22917169845E+02 -0.30890230696E+02  0.43400726945E+02  0.00000000000E+00 0. -1.
         11    1    3    3    0    0  0.48575402083E+01  0.66215700418E+01  0.18986309746E+01  0.84288603341E+01  0.51100000000E-03 0.  1.
        -11    1    3    3    0    0 -0.20555319690E+01  0.63115346183E+01  0.75328665254E+01  0.10040157333E+02  0.51100000000E-03 0. -1.
        -12    1    3    3    0    0  0.17303216782E+02  0.99840651851E+01  0.21458733196E+02  0.29318255388E+02  0.00000000000E+00 0.  1.
</event>
<event>
 7    1  0.2339217E-009  0.4778727E+02  0.7816164E-02  0.1312668E+00
        -11   -1    0    0    0    0  0.00000000000E+00  0.00000000000E+00  0.45593999997E+02  0.45594000000E+02  0.51100000000E-03 0. -1.
         11   -1    0    0    0    0 -0.00000000000E+00 -0.00000000000E+00 -0.45593999997E+02  0.45594000000E+02  0.51100000000E-03 0.  1.
    9900012    2    1    2    0    0  0.20314914395E+01 -0.26304426907E+02 -0.34461188202E+02  0.47787270459E+02  0.19999997331E+02 0.  0.
         12    1    1    2    0    0 -0.20314914395E+01  0.26304426907E+02  0.34461188202E+02  0.43400729541E+02  0.00000000000E+00 0. -1.
         11    1    3    3    0    0 -0.24153081311E+01 -0.80523052811E+01 -0.11413953502E+02  0.14175742256E+02  0.51100000000E-03 0. -1.
        -11    1    3    3    0    0 -0.17800631881E+01 -0.15834508151E+02 -0.21489548341E+02  0.26752587941E+02  0.51100000000E-03 0.  1.
         12    1    3    3    0    0  0.62268627587E+01 -0.24176134750E+01 -0.15576863586E+01  0.68589402623E+01  0.00000000000E+00 0. -1.
</event>
<event>
 7    1  0.2339217E-009  0.4778727E+02  0.7816164E-02  0.1312668E+00
        -11   -1    0    0    0    0  0.00000000000E+00  0.00000000000E+00  0.45593999997E+02  0.45594000000E+02  0.51100000000E-03 0. -1.
         11   -1    0    0    0    0 -0.00000000000E+00 -0.00000000000E+00 -0.45593999997E+02  0.45594000000E+02  0.51100000000E-03 0.  1.
    9900012    2    1    2    0    0 -0.42008361865E+02 -0.65678034178E+01  0.87054315526E+01  0.47787273660E+02  0.20000011924E+02 0.  0.
         12    1    1    2    0    0  0.42008361865E+02  0.65678034178E+01 -0.87054315526E+01  0.43400726340E+02  0.00000000000E+00 0. -1.
         11    1    3    3    0    0 -0.23086932496E+02 -0.56690076563E+01  0.91480818706E+01  0.25472171129E+02  0.51100000000E-03 0. -1.
        -11    1    3    3    0    0 -0.13816982927E+02  0.20720463883E+01  0.44315804917E+01  0.14657465652E+02  0.51100000000E-03 0.  1.
        -12    1    3    3    0    0 -0.51044464429E+01 -0.29708421498E+01 -0.48742308097E+01  0.76576368779E+01  0.00000000000E+00 0.  1.
</event>
<event>
 7    1  0.2339217E-009  0.4778727E+02  0.7816164E-02  0.1312668E+00
        -11   -1    0    0    0    0  0.00000000000E+00  0.00000000000E+00  0.45593999997E+02  0.45594000000E+02  0.51100000000E-03 0.  1.
         11   -1    0    0    0    0 -0.00000000000E+00 -0.00000000000E+00 -0.45593999997E+02  0.45594000000E+02  0.51100000000E-03 0. -1.
    9900012    2    1    2    0    0  0.14025147139E+01  0.35677633420E+01  0.43231092865E+02  0.47787269901E+02  0.19999994788E+02 0.  0.
         12    1    1    2    0    0 -0.14025147139E+01 -0.35677633420E+01 -0.43231092865E+02  0.43400730099E+02  0.00000000000E+00 0. -1.
         11    1    3    3    0    0  0.32673183598E+01  0.85166533728E+00  0.26575128127E+01  0.42968683622E+01  0.51100000000E-03 0. -1.
        -11    1    3    3    0    0 -0.49637846670E+01 -0.51159000737E+01  0.16082583710E+02  0.17591506213E+02  0.51100000000E-03 0.  1.
         12    1    3    3    0    0  0.30989810211E+01  0.78319980784E+01  0.24490996343E+02  0.25898895327E+02  0.00000000000E+00 0. -1.
</event>
<event>
 7    1  0.2339217E-009  0.4778727E+02  0.7816164E-02  0.1312668E+00
        -11   -1    0    0    0    0  0.00000000000E+00  0.00000000000E+00  0.45593999997E+02  0.45594000000E+02  0.51100000000E-03 0.  1.
         11   -1    0    0    0    0 -0.00000000000E+00 -0.00000000000E+00 -0.45593999997E+02  0.45594000000E+02  0.51100000000E-03 0. -1.
    9900012    2    1    2    0    0 -0.13136118802E+02  0.38100205187E+02  0.16107141010E+02  0.47787271389E+02  0.20000001571E+02 0.  0.
         12    1    1    2    0    0  0.13136118802E+02 -0.38100205187E+02 -0.16107141010E+02  0.43400728611E+02  0.00000000000E+00 0. -1.
         11    1    3    3    0    0 -0.44777939773E+01  0.74874413331E+01  0.32210345748E+01  0.92998645480E+01  0.51100000000E-03 0. -1.
        -11    1    3    3    0    0 -0.95610390273E+01  0.32229155849E+02  0.10026501916E+02  0.35080802370E+02  0.51100000000E-03 0.  1.
         12    1    3    3    0    0  0.90271420277E+00 -0.16163919950E+01  0.28596045191E+01  0.34066044706E+01  0.00000000000E+00 0. -1.
</event>
<event>
 7    1  0.2339217E-009  0.4778727E+02  0.7816164E-02  0.1312668E+00
        -11   -1    0    0    0    0  0.00000000000E+00  0.00000000000E+00  0.45593999997E+02  0.45594000000E+02  0.51100000000E-03 0.  1.
         11   -1    0    0    0    0 -0.00000000000E+00 -0.00000000000E+00 -0.45593999997E+02  0.45594000000E+02  0.51100000000E-03 0. -1.
    9900012    2    1    2    0    0  0.26431947689E+02 -0.33067282585E+02  0.95671349613E+01  0.47787272961E+02  0.20000008737E+02 0.  0.
         12    1    1    2    0    0 -0.26431947689E+02  0.33067282585E+02 -0.95671349613E+01  0.43400727039E+02  0.00000000000E+00 0. -1.
         11    1    3    3    0    0  0.75600037147E+01 -0.24158347573E+01  0.16079795876E+01  0.80978708533E+01  0.51100000000E-03 0. -1.
        -11    1    3    3    0    0  0.12495295055E+02 -0.73136312115E+01  0.98895825975E+00  0.14512051499E+02  0.51100000000E-03 0.  1.
        -12    1    3    3    0    0  0.63766489189E+01 -0.23337816616E+02  0.69701971140E+01  0.25177350608E+02  0.00000000000E+00 0.  1.
</event>
<event>
 7    1  0.2339217E-009  0.4778727E+02  0.7816164E-02  0.1312668E+00
        -11   -1    0    0    0    0  0.00000000000E+00  0.00000000000E+00  0.45593999997E+02  0.45594000000E+02  0.51100000000E-03 0.  1.
         11   -1    0    0    0    0 -0.00000000000E+00 -0.00000000000E+00 -0.45593999997E+02  0.45594000000E+02  0.51100000000E-03 0. -1.
    9900012    2    1    2    0    0  0.26141644845E+02 -0.25507585267E+02  0.23443568784E+02  0.47787269376E+02  0.19999992393E+02 0.  0.
         12    1    1    2    0    0 -0.26141644845E+02  0.25507585267E+02 -0.23443568784E+02  0.43400730624E+02  0.00000000000E+00 0. -1.
         11    1    3    3    0    0  0.85382417509E+01 -0.11351333876E+01  0.82044603165E+01  0.11895514674E+02  0.51100000000E-03 0. -1.
        -11    1    3    3    0    0  0.70768118490E+01 -0.17953645922E+02  0.13235659160E+02  0.23400797882E+02  0.51100000000E-03 0.  1.
         12    1    3    3    0    0  0.10526591245E+02 -0.64188059574E+01  0.20034493072E+01  0.12490956821E+02  0.00000000000E+00 0. -1.
</event>
<event>
 7    1  0.2339217E-009  0.4778726E+02  0.7816164E-02  0.1312668E+00
        -11   -1    0    0    0    0  0.00000000000E+00  0.00000000000E+00  0.45593999997E+02  0.45594000000E+02  0.51100000000E-03 0. -1.
         11   -1    0    0    0    0 -0.00000000000E+00 -0.00000000000E+00 -0.45593999997E+02  0.45594000000E+02  0.51100000000E-03 0.  1.
    9900012    2    1    2    0    0  0.21340459822E+02  0.36932232136E+02 -0.80137094457E+01  0.47787256515E+02  0.19999933756E+02 0.  0.
         12    1    1    2    0    0 -0.21340459822E+02 -0.36932232136E+02  0.80137094457E+01  0.43400743485E+02  0.00000000000E+00 0. -1.
         11    1    3    3    0    0  0.77624888288E+01  0.15023361615E+02  0.25724895413E+01  0.17104833519E+02  0.51100000000E-03 0. -1.
        -11    1    3    3    0    0  0.75857719333E+01  0.21097138615E+02 -0.63570667604E+01  0.23303336491E+02  0.51100000000E-03 0.  1.
         12    1    3    3    0    0  0.59921990598E+01  0.81173190650E+00 -0.42291322265E+01  0.73790865051E+01  0.00000000000E+00 0. -1.
</event>
<event>
 7    1  0.2339217E-009  0.4778725E+02  0.7816164E-02  0.1312668E+00
        -11   -1    0    0    0    0  0.00000000000E+00  0.00000000000E+00  0.45593999997E+02  0.45594000000E+02  0.51100000000E-03 0.  1.
         11   -1    0    0    0    0 -0.00000000000E+00 -0.00000000000E+00 -0.45593999997E+02  0.45594000000E+02  0.51100000000E-03 0. -1.
    9900012    2    1    2    0    0 -0.20765470451E+02 -0.22978597319E+01  0.38041300734E+02  0.47787245584E+02  0.19999883914E+02 0.  0.
         12    1    1    2    0    0  0.20765470451E+02  0.22978597319E+01 -0.38041300734E+02  0.43400754416E+02  0.00000000000E+00 0. -1.
         11    1    3    3    0    0 -0.12961390434E+02  0.55548330088E+01  0.20970013290E+02  0.25270442604E+02  0.51100000000E-03 0. -1.
        -11    1    3    3    0    0 -0.51317831668E+01 -0.35151137778E+01  0.16193489584E+02  0.17347055327E+02  0.51100000000E-03 0.  1.
         12    1    3    3    0    0 -0.26722968498E+01 -0.43375789629E+01  0.87779785951E+00  0.51697476530E+01  0.00000000000E+00 0. -1.
</event>
<event>
 7    1  0.2339217E-009  0.4778721E+02  0.7816164E-02  0.1312668E+00
        -11   -1    0    0    0    0  0.00000000000E+00  0.00000000000E+00  0.45593999997E+02  0.45594000000E+02  0.51100000000E-03 0.  1.
         11   -1    0    0    0    0 -0.00000000000E+00 -0.00000000000E+00 -0.45593999997E+02  0.45594000000E+02  0.51100000000E-03 0. -1.
    9900012    2    1    2    0    0  0.35974855233E+02  0.72352695828E+01  0.23175180922E+02  0.47787212614E+02  0.19999733590E+02 0.  0.
         12    1    1    2    0    0 -0.35974855233E+02 -0.72352695828E+01 -0.23175180922E+02  0.43400787386E+02  0.00000000000E+00 0. -1.
         11    1    3    3    0    0  0.16196740072E+01  0.14977968039E+01 -0.52903298152E+00  0.22686152852E+01  0.51100000000E-03 0. -1.
        -11    1    3    3    0    0  0.35535175828E+02  0.73649755771E+01  0.20346063556E+02  0.41604733972E+02  0.51100000000E-03 0.  1.
         12    1    3    3    0    0 -0.11799946021E+01 -0.16275027983E+01  0.33581503479E+01  0.39138633571E+01  0.00000000000E+00 0. -1.
</event>
<event>
 7    1  0.2339217E-009  0.4778727E+02  0.7816164E-02  0.1312668E+00
        -11   -1    0    0    0    0  0.00000000000E+00  0.00000000000E+00  0.45593999997E+02  0.45594000000E+02  0.51100000000E-03 0.  1.
         11   -1    0    0    0    0 -0.00000000000E+00 -0.00000000000E+00 -0.45593999997E+02  0.45594000000E+02  0.51100000000E-03 0. -1.
    9900012    2    1    2    0    0  0.38877174526E+02  0.82852089294E+01  0.17422504011E+02  0.47787273830E+02  0.20000012699E+02 0.  0.
         12    1    1    2    0    0 -0.38877174526E+02 -0.82852089294E+01 -0.17422504011E+02  0.43400726170E+02  0.00000000000E+00 0. -1.
         11    1    3    3    0    0  0.19693684161E+02  0.29773689266E+00  0.45023621836E+01  0.20203987443E+02  0.51100000000E-03 0. -1.
        -11    1    3    3    0    0  0.28783545538E+00 -0.64808843041E+00 -0.19234173623E+01  0.20499762129E+01  0.51100000000E-03 0.  1.
        -12    1    3    3    0    0  0.18895654909E+02  0.86355604671E+01  0.14843559190E+02  0.25533310174E+02  0.00000000000E+00 0.  1.
</event>
<event>
 7    1  0.2339217E-009  0.4778727E+02  0.7816164E-02  0.1312668E+00
        -11   -1    0    0    0    0  0.00000000000E+00  0.00000000000E+00  0.45593999997E+02  0.45594000000E+02  0.51100000000E-03 0.  1.
         11   -1    0    0    0    0 -0.00000000000E+00 -0.00000000000E+00 -0.45593999997E+02  0.45594000000E+02  0.51100000000E-03 0. -1.
    9900012    2    1    2    0    0 -0.31122339321E+02 -0.12753424787E+02  0.27429428964E+02  0.47787269339E+02  0.19999992223E+02 0.  0.
         12    1    1    2    0    0  0.31122339321E+02  0.12753424787E+02 -0.27429428964E+02  0.43400730661E+02  0.00000000000E+00 0. -1.
         11    1    3    3    0    0 -0.92282845530E+01 -0.91834317311E+00  0.13420492221E+02  0.16313007132E+02  0.51100000000E-03 0.  1.
        -11    1    3    3    0    0 -0.86896781661E+01  0.11553222475E+01  0.96471628882E+00  0.88190676324E+01  0.51100000000E-03 0. -1.
         12    1    3    3    0    0 -0.13204376602E+02 -0.12990403861E+02  0.13044220455E+02  0.22655194575E+02  0.00000000000E+00 0. -1.
</event>
<event>
 7    1  0.2339217E-009  0.4778728E+02  0.7816164E-02  0.1312668E+00
        -11   -1    0    0    0    0  0.00000000000E+00  0.00000000000E+00  0.45593999997E+02  0.45594000000E+02  0.51100000000E-03 0. -1.
         11   -1    0    0    0    0 -0.00000000000E+00 -0.00000000000E+00 -0.45593999997E+02  0.45594000000E+02  0.51100000000E-03 0.  1.
    9900012    2    1    2    0    0 -0.23575416507E+02 -0.12084123095E+02 -0.34377269142E+02  0.47787275027E+02  0.20000018160E+02 0.  0.
         12    1    1    2    0    0  0.23575416507E+02  0.12084123095E+02  0.34377269142E+02  0.43400724973E+02  0.00000000000E+00 0. -1.
         11    1    3    3    0    0 -0.75966955550E+00 -0.52438815020E+01 -0.11181310811E+01  0.54153124024E+01  0.51100000000E-03 0. -1.
        -11    1    3    3    0    0 -0.33465607057E+01 -0.43679243763E+01 -0.13238323231E+02  0.14336367536E+02  0.51100000000E-03 0.  1.
        -12    1    3    3    0    0 -0.19469186246E+02 -0.24723172166E+01 -0.20020814830E+02  0.28035595089E+02  0.00000000000E+00 0.  1.
</event>
<event>
 7    1  0.2339217E-009  0.4778727E+02  0.7816164E-02  0.1312668E+00
        -11   -1    0    0    0    0  0.00000000000E+00  0.00000000000E+00  0.45593999997E+02  0.45594000000E+02  0.51100000000E-03 0.  1.
         11   -1    0    0    0    0 -0.00000000000E+00 -0.00000000000E+00 -0.45593999997E+02  0.45594000000E+02  0.51100000000E-03 0. -1.
    9900012    2    1    2    0    0  0.88574210717E+01  0.31487611285E+02  0.28525430569E+02  0.47787265425E+02  0.19999974379E+02 0.  0.
         12    1    1    2    0    0 -0.88574210717E+01 -0.31487611285E+02 -0.28525430569E+02  0.43400734575E+02  0.00000000000E+00 0. -1.
         11    1    3    3    0    0  0.97195677009E-01  0.12630611668E+02  0.34181309470E+01  0.13085313047E+02  0.51100000000E-03 0. -1.
        -11    1    3    3    0    0  0.15295665771E+00  0.13748044747E+02  0.16690280786E+02  0.21624005251E+02  0.51100000000E-03 0.  1.
         12    1    3    3    0    0  0.86072687370E+01  0.51089548701E+01  0.84170188360E+01  0.13077947127E+02  0.00000000000E+00 0. -1.
</event>
<event>
 7    1  0.2339217E-009  0.4778727E+02  0.7816164E-02  0.1312668E+00
        -11   -1    0    0    0    0  0.00000000000E+00  0.00000000000E+00  0.45593999997E+02  0.45594000000E+02  0.51100000000E-03 0. -1.
         11   -1    0    0    0    0 -0.00000000000E+00 -0.00000000000E+00 -0.45593999997E+02  0.45594000000E+02  0.51100000000E-03 0.  1.
    9900012    2    1    2    0    0 -0.28616287016E+02 -0.11595652473E+01 -0.32609609859E+02  0.47787272710E+02  0.20000007595E+02 0.  0.
         12    1    1    2    0    0  0.28616287016E+02  0.11595652473E+01  0.32609609859E+02  0.43400727290E+02  0.00000000000E+00 0. -1.
         11    1    3    3    0    0  0.79056458346E+00 -0.19271371422E+00 -0.82380353565E-01  0.81787390229E+00  0.51100000000E-03 0. -1.
        -11    1    3    3    0    0 -0.20365056026E+02 -0.29475698631E+01 -0.31542410046E+02  0.37660952017E+02  0.51100000000E-03 0.  1.
        -12    1    3    3    0    0 -0.90417955735E+01  0.19807183300E+01 -0.98481945926E+00  0.93084467911E+01  0.00000000000E+00 0.  1.
</event>
<event>
 7    1  0.2339217E-009  0.4778727E+02  0.7816164E-02  0.1312668E+00
        -11   -1    0    0    0    0  0.00000000000E+00  0.00000000000E+00  0.45593999997E+02  0.45594000000E+02  0.51100000000E-03 0.  1.
         11   -1    0    0    0    0 -0.00000000000E+00 -0.00000000000E+00 -0.45593999997E+02  0.45594000000E+02  0.51100000000E-03 0. -1.
    9900012    2    1    2    0    0 -0.26955294587E+02 -0.23045111318E+02  0.25019157491E+02  0.47787270703E+02  0.19999998446E+02 0.  0.
         12    1    1    2    0    0  0.26955294587E+02  0.23045111318E+02 -0.25019157491E+02  0.43400729297E+02  0.00000000000E+00 0. -1.
         11    1    3    3    0    0 -0.10536457253E+01 -0.34574332278E+01 -0.12295808149E+00  0.36165083699E+01  0.51100000000E-03 0. -1.
        -11    1    3    3    0    0 -0.20355799052E+02 -0.87805148279E+01  0.88995455136E+01  0.23888447131E+02  0.51100000000E-03 0.  1.
        -12    1    3    3    0    0 -0.55458498094E+01 -0.10807163262E+02  0.16242570059E+02  0.20282315203E+02  0.00000000000E+00 0.  1.
</event>
<event>
 7    1  0.2339217E-009  0.4778727E+02  0.7816164E-02  0.1312668E+00
        -11   -1    0    0    0    0  0.00000000000E+00  0.00000000000E+00  0.45593999997E+02  0.45594000000E+02  0.51100000000E-03 0.  1.
         11   -1    0    0    0    0 -0.00000000000E+00 -0.00000000000E+00 -0.45593999997E+02  0.45594000000E+02  0.51100000000E-03 0. -1.
    9900012    2    1    2    0    0  0.34477073129E+02  0.11006100018E+02  0.23954543800E+02  0.47787274455E+02  0.20000015550E+02 0.  0.
         12    1    1    2    0    0 -0.34477073129E+02 -0.11006100018E+02 -0.23954543800E+02  0.43400725545E+02  0.00000000000E+00 0. -1.
         11    1    3    3    0    0  0.69836600943E+01 -0.53110403540E+01  0.22109373007E+01  0.90480330439E+01  0.51100000000E-03 0. -1.
        -11    1    3    3    0    0  0.67271510676E+01  0.42940207443E+01  0.42340381529E+01  0.90343928949E+01  0.51100000000E-03 0.  1.
        -12    1    3    3    0    0  0.20766261968E+02  0.12023119628E+02  0.17509568346E+02  0.29704848516E+02  0.00000000000E+00 0.  1.
</event>
<event>
 7    1  0.2339217E-009  0.4778727E+02  0.7816164E-02  0.1312668E+00
        -11   -1    0    0    0    0  0.00000000000E+00  0.00000000000E+00  0.45593999997E+02  0.45594000000E+02  0.51100000000E-03 0. -1.
         11   -1    0    0    0    0 -0.00000000000E+00 -0.00000000000E+00 -0.45593999997E+02  0.45594000000E+02  0.51100000000E-03 0.  1.
    9900012    2    1    2    0    0 -0.54972020281E+01  0.21484134937E+01 -0.42997535487E+02  0.47787274561E+02  0.20000016033E+02 0.  0.
         12    1    1    2    0    0  0.54972020281E+01 -0.21484134937E+01  0.42997535487E+02  0.43400725439E+02  0.00000000000E+00 0. -1.
         11    1    3    3    0    0  0.34369957755E+01  0.16427116203E+01 -0.20671052179E+02  0.21019130331E+02  0.51100000000E-03 0. -1.
        -11    1    3    3    0    0 -0.74984885027E+01  0.23522354927E+01 -0.23023249866E+02  0.24327564126E+02  0.51100000000E-03 0.  1.
         12    1    3    3    0    0 -0.14357093008E+01 -0.18465336193E+01  0.69676655853E+00  0.24405801033E+01  0.00000000000E+00 0. -1.
</event>
<event>
 7    1  0.2339217E-009  0.4778727E+02  0.7816164E-02  0.1312668E+00
        -11   -1    0    0    0    0  0.00000000000E+00  0.00000000000E+00  0.45593999997E+02  0.45594000000E+02  0.51100000000E-03 0. -1.
         11   -1    0    0    0    0 -0.00000000000E+00 -0.00000000000E+00 -0.45593999997E+02  0.45594000000E+02  0.51100000000E-03 0.  1.
    9900012    2    1    2    0    0 -0.25804577572E+02  0.32630488754E+02  0.12369239911E+02  0.47787272864E+02  0.20000008296E+02 0.  0.
         12    1    1    2    0    0  0.25804577572E+02 -0.32630488754E+02 -0.12369239911E+02  0.43400727136E+02  0.00000000000E+00 0. -1.
         11    1    3    3    0    0  0.22520911074E+01  0.76127176224E+01  0.63080307520E+00  0.79638744801E+01  0.51100000000E-03 0. -1.
        -11    1    3    3    0    0 -0.21866773102E+01  0.44012338286E+01  0.78418966326E+00  0.49766826865E+01  0.51100000000E-03 0.  1.
        -12    1    3    3    0    0 -0.25869991369E+02  0.20616537303E+02  0.10954247173E+02  0.34846715697E+02  0.00000000000E+00 0.  1.
</event>
<event>
 7    1  0.2339217E-009  0.4778727E+02  0.7816164E-02  0.1312668E+00
        -11   -1    0    0    0    0  0.00000000000E+00  0.00000000000E+00  0.45593999997E+02  0.45594000000E+02  0.51100000000E-03 0. -1.
         11   -1    0    0    0    0 -0.00000000000E+00 -0.00000000000E+00 -0.45593999997E+02  0.45594000000E+02  0.51100000000E-03 0.  1.
    9900012    2    1    2    0    0  0.28073409480E+02 -0.26726371006E+02 -0.19524553877E+02  0.47787269234E+02  0.19999991744E+02 0.  0.
         12    1    1    2    0    0 -0.28073409480E+02  0.26726371006E+02  0.19524553877E+02  0.43400730766E+02  0.00000000000E+00 0. -1.
         11    1    3    3    0    0  0.17361903496E+02 -0.81221778351E+01 -0.30076027116E+01  0.19402348830E+02  0.51100000000E-03 0.  1.
        -11    1    3    3    0    0  0.59002212919E+01 -0.27385136618E+01 -0.47445006567E+01  0.80512331423E+01  0.51100000000E-03 0. -1.
        -12    1    3    3    0    0  0.48112846921E+01 -0.15865679509E+02 -0.11772450509E+02  0.20333687261E+02  0.00000000000E+00 0.  1.
</event>
<event>
 7    1  0.2339217E-009  0.4778727E+02  0.7816164E-02  0.1312668E+00
        -11   -1    0    0    0    0  0.00000000000E+00  0.00000000000E+00  0.45593999997E+02  0.45594000000E+02  0.51100000000E-03 0.  1.
         11   -1    0    0    0    0 -0.00000000000E+00 -0.00000000000E+00 -0.45593999997E+02  0.45594000000E+02  0.51100000000E-03 0. -1.
    9900012    2    1    2    0    0 -0.14155097282E+02  0.40906941079E+02  0.31430382481E+01  0.47787270779E+02  0.19999998788E+02 0.  0.
         12    1    1    2    0    0  0.14155097282E+02 -0.40906941079E+02 -0.31430382481E+01  0.43400729221E+02  0.00000000000E+00 0. -1.
         11    1    3    3    0    0  0.23468413962E+01 -0.46908956385E+00  0.65674700218E+00  0.24817385930E+01  0.51100000000E-03 0. -1.
        -11    1    3    3    0    0 -0.33682026713E+01  0.12158645638E+02 -0.25691582933E+01  0.12875481645E+02  0.51100000000E-03 0.  1.
         12    1    3    3    0    0 -0.13133736007E+02  0.29217385005E+02  0.50554495392E+01  0.32430050541E+02  0.00000000000E+00 0. -1.
</event>
<event>
 7    1  0.2339217E-009  0.4778727E+02  0.7816164E-02  0.1312668E+00
        -11   -1    0    0    0    0  0.00000000000E+00  0.00000000000E+00  0.45593999997E+02  0.45594000000E+02  0.51100000000E-03 0.  1.
         11   -1    0    0    0    0 -0.00000000000E+00 -0.00000000000E+00 -0.45593999997E+02  0.45594000000E+02  0.51100000000E-03 0. -1.
    9900012    2    1    2    0    0 -0.21585072602E+02 -0.15928157204E+02 -0.34117470303E+02  0.47787270386E+02  0.19999996998E+02 0.  0.
         12    1    1    2    0    0  0.21585072602E+02  0.15928157204E+02  0.34117470303E+02  0.43400729614E+02  0.00000000000E+00 0. -1.
         11    1    3    3    0    0 -0.85610350854E+01 -0.28664837410E+01 -0.75664539557E+01  0.11779612748E+02  0.51100000000E-03 0. -1.
        -11    1    3    3    0    0 -0.15142604902E+02 -0.53437221699E+01 -0.20108548175E+02  0.25733393865E+02  0.51100000000E-03 0.  1.
         12    1    3    3    0    0  0.21185673853E+01 -0.77179512926E+01 -0.64424681721E+01  0.10274263773E+02  0.00000000000E+00 0. -1.
</event>
<event>
 7    1  0.2339217E-009  0.4778727E+02  0.7816164E-02  0.1312668E+00
        -11   -1    0    0    0    0  0.00000000000E+00  0.00000000000E+00  0.45593999997E+02  0.45594000000E+02  0.51100000000E-03 0.  1.
         11   -1    0    0    0    0 -0.00000000000E+00 -0.00000000000E+00 -0.45593999997E+02  0.45594000000E+02  0.51100000000E-03 0. -1.
    9900012    2    1    2    0    0 -0.34908991129E+02 -0.98100855471E+01  0.23848439256E+02  0.47787268496E+02  0.19999988382E+02 0.  0.
         12    1    1    2    0    0  0.34908991129E+02  0.98100855471E+01 -0.23848439256E+02  0.43400731504E+02  0.00000000000E+00 0. -1.
         11    1    3    3    0    0  0.98245806937E+00  0.15869186202E+01 -0.10007114556E+01  0.21177720000E+01  0.51100000000E-03 0. -1.
        -11    1    3    3    0    0 -0.10854508805E+02 -0.32530645765E+00  0.57310491274E+01  0.12278888796E+02  0.51100000000E-03 0.  1.
        -12    1    3    3    0    0 -0.25036940393E+02 -0.11071697710E+02  0.19118101584E+02  0.33390607701E+02  0.00000000000E+00 0.  1.
</event>
<event>
 7    1  0.2339217E-009  0.4778727E+02  0.7816164E-02  0.1312668E+00
        -11   -1    0    0    0    0  0.00000000000E+00  0.00000000000E+00  0.45593999997E+02  0.45594000000E+02  0.51100000000E-03 0. -1.
         11   -1    0    0    0    0 -0.00000000000E+00 -0.00000000000E+00 -0.45593999997E+02  0.45594000000E+02  0.51100000000E-03 0.  1.
    9900012    2    1    2    0    0  0.21334687211E+02  0.27927740943E+02 -0.25465577588E+02  0.47787271499E+02  0.20000002071E+02 0.  0.
         12    1    1    2    0    0 -0.21334687211E+02 -0.27927740943E+02  0.25465577588E+02  0.43400728501E+02  0.00000000000E+00 0. -1.
         11    1    3    3    0    0 -0.12229899111E+01  0.21161743114E+00 -0.17951580151E+01  0.21824478963E+01  0.51100000000E-03 0. -1.
        -11    1    3    3    0    0  0.15300535917E+02  0.97223490777E+01 -0.53034336571E+01  0.18888008888E+02  0.51100000000E-03 0.  1.
         12    1    3    3    0    0  0.72571412052E+01  0.17993774434E+02 -0.18366985916E+02  0.26716814715E+02  0.00000000000E+00 0. -1.
</event>
<event>
 7    1  0.2339217E-009  0.4778727E+02  0.7816164E-02  0.1312668E+00
        -11   -1    0    0    0    0  0.00000000000E+00  0.00000000000E+00  0.45593999997E+02  0.45594000000E+02  0.51100000000E-03 0. -1.
         11   -1    0    0    0    0 -0.00000000000E+00 -0.00000000000E+00 -0.45593999997E+02  0.45594000000E+02  0.51100000000E-03 0.  1.
    9900012    2    1    2    0    0 -0.13059233883E+02 -0.39575755214E+02  0.12117745317E+02  0.47787265653E+02  0.19999975416E+02 0.  0.
         12    1    1    2    0    0  0.13059233883E+02  0.39575755214E+02 -0.12117745317E+02  0.43400734347E+02  0.00000000000E+00 0. -1.
         11    1    3    3    0    0 -0.45323644050E+01 -0.11360242919E+02  0.10772188086E+02  0.16298388960E+02  0.51100000000E-03 0. -1.
        -11    1    3    3    0    0  0.72106429832E+00 -0.61207936457E+01  0.40649501733E+01  0.73829444497E+01  0.51100000000E-03 0.  1.
        -12    1    3    3    0    0 -0.92479337762E+01 -0.22094718649E+02 -0.27193929429E+01  0.24105932242E+02  0.00000000000E+00 0.  1.
</event>
<event>
 7    1  0.2339217E-009  0.4778727E+02  0.7816164E-02  0.1312668E+00
        -11   -1    0    0    0    0  0.00000000000E+00  0.00000000000E+00  0.45593999997E+02  0.45594000000E+02  0.51100000000E-03 0.  1.
         11   -1    0    0    0    0 -0.00000000000E+00 -0.00000000000E+00 -0.45593999997E+02  0.45594000000E+02  0.51100000000E-03 0. -1.
    9900012    2    1    2    0    0  0.24792017615E+02 -0.15288269598E+01  0.35589915030E+02  0.47787268426E+02  0.19999988063E+02 0.  0.
         12    1    1    2    0    0 -0.24792017615E+02  0.15288269598E+01 -0.35589915030E+02  0.43400731574E+02  0.00000000000E+00 0. -1.
         11    1    3    3    0    0  0.99243383824E+01 -0.27811886265E+01  0.52114143759E+01  0.11549300523E+02  0.51100000000E-03 0. -1.
        -11    1    3    3    0    0  0.17081449852E+02  0.10013668124E+01  0.23950128963E+02  0.29434458414E+02  0.51100000000E-03 0.  1.
        -12    1    3    3    0    0 -0.22137706195E+01  0.25099485423E+00  0.64283716909E+01  0.68035094891E+01  0.00000000000E+00 0.  1.
</event>
<event>
 7    1  0.2339217E-009  0.4778727E+02  0.7816164E-02  0.1312668E+00
        -11   -1    0    0    0    0  0.00000000000E+00  0.00000000000E+00  0.45593999997E+02  0.45594000000E+02  0.51100000000E-03 0. -1.
         11   -1    0    0    0    0 -0.00000000000E+00 -0.00000000000E+00 -0.45593999997E+02  0.45594000000E+02  0.51100000000E-03 0.  1.
    9900012    2    1    2    0    0 -0.21991949767E+02  0.96923443738E+01 -0.36139120742E+02  0.47787269107E+02  0.19999991168E+02 0.  0.
         12    1    1    2    0    0  0.21991949767E+02 -0.96923443738E+01  0.36139120742E+02  0.43400730893E+02  0.00000000000E+00 0. -1.
         11    1    3    3    0    0 -0.15554488776E+02  0.66314238601E+01 -0.18028065415E+02  0.24716978909E+02  0.51100000000E-03 0. -1.
        -11    1    3    3    0    0 -0.72440543147E+01  0.32136904196E+00 -0.18785074975E+02  0.20136003651E+02  0.51100000000E-03 0.  1.
         12    1    3    3    0    0  0.80659332400E+00  0.27395514717E+01  0.67401964758E+00  0.29342865474E+01  0.00000000000E+00 0. -1.
</event>
<event>
 7    1  0.2339217E-009  0.4778727E+02  0.7816164E-02  0.1312668E+00
        -11   -1    0    0    0    0  0.00000000000E+00  0.00000000000E+00  0.45593999997E+02  0.45594000000E+02  0.51100000000E-03 0. -1.
         11   -1    0    0    0    0 -0.00000000000E+00 -0.00000000000E+00 -0.45593999997E+02  0.45594000000E+02  0.51100000000E-03 0.  1.
    9900012    2    1    2    0    0 -0.17315213427E+02 -0.39139031038E+02 -0.72071290647E+01  0.47787273324E+02  0.20000010395E+02 0.  0.
         12    1    1    2    0    0  0.17315213427E+02  0.39139031038E+02  0.72071290647E+01  0.43400726676E+02  0.00000000000E+00 0. -1.
         11    1    3    3    0    0  0.33553122782E+01 -0.50376716032E+01  0.87635530721E+00  0.61159017775E+01  0.51100000000E-03 0. -1.
        -11    1    3    3    0    0 -0.62182190682E+01 -0.14705393463E+02  0.58486677671E+00  0.15976761708E+02  0.51100000000E-03 0.  1.
        -12    1    3    3    0    0 -0.14452306637E+02 -0.19395965972E+02 -0.86683511486E+01  0.25694609839E+02  0.00000000000E+00 0.  1.
</event>
<event>
 7    1  0.2339217E-009  0.4778727E+02  0.7816164E-02  0.1312668E+00
        -11   -1    0    0    0    0  0.00000000000E+00  0.00000000000E+00  0.45593999997E+02  0.45594000000E+02  0.51100000000E-03 0. -1.
         11   -1    0    0    0    0 -0.00000000000E+00 -0.00000000000E+00 -0.45593999997E+02  0.45594000000E+02  0.51100000000E-03 0.  1.
    9900012    2    1    2    0    0  0.23154635539E+02  0.15951987132E+02 -0.33060860263E+02  0.47787268188E+02  0.19999986978E+02 0.  0.
         12    1    1    2    0    0 -0.23154635539E+02 -0.15951987132E+02  0.33060860263E+02  0.43400731812E+02  0.00000000000E+00 0. -1.
         11    1    3    3    0    0  0.16697397087E+02  0.71854176415E+01 -0.12978636345E+02  0.22335583668E+02  0.51100000000E-03 0. -1.
        -11    1    3    3    0    0  0.62620787856E+01  0.11340975414E+02 -0.17732529089E+02  0.21960736377E+02  0.51100000000E-03 0.  1.
        -12    1    3    3    0    0  0.19515966679E+00 -0.25744059228E+01 -0.23496948288E+01  0.34909481433E+01  0.00000000000E+00 0.  1.
</event>
<event>
 7    1  0.2339217E-009  0.4778727E+02  0.7816164E-02  0.1312668E+00
        -11   -1    0    0    0    0  0.00000000000E+00  0.00000000000E+00  0.45593999997E+02  0.45594000000E+02  0.51100000000E-03 0. -1.
         11   -1    0    0    0    0 -0.00000000000E+00 -0.00000000000E+00 -0.45593999997E+02  0.45594000000E+02  0.51100000000E-03 0.  1.
    9900012    2    1    2    0    0 -0.28463239885E+02  0.10841635313E+02 -0.30918057998E+02  0.47787269691E+02  0.19999993829E+02 0.  0.
         12    1    1    2    0    0  0.28463239885E+02 -0.10841635313E+02  0.30918057998E+02  0.43400730309E+02  0.00000000000E+00 0. -1.
         11    1    3    3    0    0 -0.43304571252E+01 -0.42273746063E+01 -0.86946140588E+01  0.10593387979E+02  0.51100000000E-03 0. -1.
        -11    1    3    3    0    0 -0.30345289893E+01  0.48742406909E+01 -0.15542052281E+01  0.59482890525E+01  0.51100000000E-03 0.  1.
        -12    1    3    3    0    0 -0.21098253770E+02  0.10194769228E+02 -0.20669238711E+02  0.31245592660E+02  0.00000000000E+00 0.  1.
</event>
<event>
 7    1  0.2339217E-009  0.4778727E+02  0.7816164E-02  0.1312668E+00
        -11   -1    0    0    0    0  0.00000000000E+00  0.00000000000E+00  0.45593999997E+02  0.45594000000E+02  0.51100000000E-03 0.  1.
         11   -1    0    0    0    0 -0.00000000000E+00 -0.00000000000E+00 -0.45593999997E+02  0.45594000000E+02  0.51100000000E-03 0. -1.
    9900012    2    1    2    0    0 -0.38898961407E+02 -0.15094987549E+02  0.11943001071E+02  0.47787272792E+02  0.20000007966E+02 0.  0.
         12    1    1    2    0    0  0.38898961407E+02  0.15094987549E+02 -0.11943001071E+02  0.43400727208E+02  0.00000000000E+00 0. -1.
         11    1    3    3    0    0 -0.11031556733E+02 -0.79020837927E+01 -0.40117852942E+01  0.14150356665E+02  0.51100000000E-03 0. -1.
        -11    1    3    3    0    0 -0.98488684955E+01 -0.46263611439E+01  0.91120063019E+01  0.14192677238E+02  0.51100000000E-03 0.  1.
        -12    1    3    3    0    0 -0.18018536178E+02 -0.25665426121E+01  0.68427800631E+01  0.19444238889E+02  0.00000000000E+00 0.  1.
</event>
<event>
 7    1  0.2339217E-009  0.4778727E+02  0.7816164E-02  0.1312668E+00
        -11   -1    0    0    0    0  0.00000000000E+00  0.00000000000E+00  0.45593999997E+02  0.45594000000E+02  0.51100000000E-03 0.  1.
         11   -1    0    0    0    0 -0.00000000000E+00 -0.00000000000E+00 -0.45593999997E+02  0.45594000000E+02  0.51100000000E-03 0. -1.
    9900012    2    1    2    0    0 -0.41249393546E+02  0.13466291377E+02 -0.87753453388E+00  0.47787267999E+02  0.19999986115E+02 0.  0.
         12    1    1    2    0    0  0.41249393546E+02 -0.13466291377E+02  0.87753453388E+00  0.43400732001E+02  0.00000000000E+00 0. -1.
         11    1    3    3    0    0 -0.14418785239E+02 -0.24182052340E+01 -0.59417409157E+01  0.15781424831E+02  0.51100000000E-03 0. -1.
        -11    1    3    3    0    0 -0.89420071150E+00  0.60673863414E+00  0.12676855265E+01  0.16657591476E+01  0.51100000000E-03 0.  1.
        -12    1    3    3    0    0 -0.25936407596E+02  0.15277757977E+02  0.37965208553E+01  0.30340084021E+02  0.00000000000E+00 0.  1.
</event>
<event>
 7    1  0.2339217E-009  0.4778727E+02  0.7816164E-02  0.1312668E+00
        -11   -1    0    0    0    0  0.00000000000E+00  0.00000000000E+00  0.45593999997E+02  0.45594000000E+02  0.51100000000E-03 0.  1.
         11   -1    0    0    0    0 -0.00000000000E+00 -0.00000000000E+00 -0.45593999997E+02  0.45594000000E+02  0.51100000000E-03 0. -1.
    9900012    2    1    2    0    0  0.58055437772E+01  0.27713970910E+02  0.32891561582E+02  0.47787270220E+02  0.19999996241E+02 0.  0.
         12    1    1    2    0    0 -0.58055437772E+01 -0.27713970910E+02 -0.32891561582E+02  0.43400729780E+02  0.00000000000E+00 0. -1.
         11    1    3    3    0    0  0.10078754075E+01  0.65520545817E+01  0.15563283795E+01  0.68093604960E+01  0.51100000000E-03 0. -1.
        -11    1    3    3    0    0  0.84733568315E+01  0.11825522579E+02  0.25534475140E+02  0.29387925772E+02  0.51100000000E-03 0.  1.
        -12    1    3    3    0    0 -0.36756884618E+01  0.93363937492E+01  0.58007580628E+01  0.11589983952E+02  0.00000000000E+00 0.  1.
</event>
<event>
 7    1  0.2339217E-009  0.4778728E+02  0.7816164E-02  0.1312668E+00
        -11   -1    0    0    0    0  0.00000000000E+00  0.00000000000E+00  0.45593999997E+02  0.45594000000E+02  0.51100000000E-03 0.  1.
         11   -1    0    0    0    0 -0.00000000000E+00 -0.00000000000E+00 -0.45593999997E+02  0.45594000000E+02  0.51100000000E-03 0. -1.
    9900012    2    1    2    0    0  0.37003100336E+02 -0.22191931534E+02  0.46809189070E+01  0.47787282708E+02  0.20000053178E+02 0.  0.
         12    1    1    2    0    0 -0.37003100336E+02  0.22191931534E+02 -0.46809189070E+01  0.43400717292E+02  0.00000000000E+00 0. -1.
         11    1    3    3    0    0  0.21983432933E+02 -0.18743284797E+02  0.90267101100E+01  0.30266541661E+02  0.51100000000E-03 0. -1.
        -11    1    3    3    0    0  0.48927337707E+01  0.42033460283E+00  0.15893497993E+01  0.51615460838E+01  0.51100000000E-03 0.  1.
         12    1    3    3    0    0  0.10126933632E+02 -0.38689813399E+01 -0.59351410024E+01  0.12359194963E+02  0.00000000000E+00 0. -1.
</event>
<event>
 7    1  0.3261128E-009  0.4778728E+02  0.7816164E-02  0.1312668E+00
        -11   -1    0    0    0    0  0.00000000000E+00  0.00000000000E+00  0.45593999997E+02  0.45594000000E+02  0.51100000000E-03 0.  1.
         11   -1    0    0    0    0 -0.00000000000E+00 -0.00000000000E+00 -0.45593999997E+02  0.45594000000E+02  0.51100000000E-03 0. -1.
    9900012    2    1    2    0    0  0.83732842021E+00 -0.40366876283E+02  0.15919705464E+02  0.47787276022E+02  0.20000022696E+02 0.  0.
         12    1    1    2    0    0 -0.83732842021E+00  0.40366876283E+02 -0.15919705464E+02  0.43400723978E+02  0.00000000000E+00 0. -1.
         11    1    3    3    0    0  0.25671181657E+01 -0.92133881693E+00  0.35666583287E+01  0.44899902881E+01  0.51100000000E-03 0. -1.
        -11    1    3    3    0    0 -0.58681775775E+01 -0.12299583783E+02  0.70014025996E+01  0.15321060927E+02  0.51100000000E-03 0.  1.
        -12    1    3    3    0    0  0.41383878320E+01 -0.27145953683E+02  0.53516445362E+01  0.27976224807E+02  0.00000000000E+00 0.  1.
</event>
<event>
 7    1  0.2408888E-009  0.4778727E+02  0.7816164E-02  0.1312668E+00
        -11   -1    0    0    0    0  0.00000000000E+00  0.00000000000E+00  0.45593999997E+02  0.45594000000E+02  0.51100000000E-03 0.  1.
         11   -1    0    0    0    0 -0.00000000000E+00 -0.00000000000E+00 -0.45593999997E+02  0.45594000000E+02  0.51100000000E-03 0. -1.
    9900012    2    1    2    0    0 -0.33180003242E+02  0.24917755195E+02  0.12720697565E+02  0.47787270909E+02  0.19999999382E+02 0.  0.
         12    1    1    2    0    0  0.33180003242E+02 -0.24917755195E+02 -0.12720697565E+02  0.43400729091E+02  0.00000000000E+00 0. -1.
         11    1    3    3    0    0 -0.36716511916E+01 -0.23104539387E+01 -0.48639808408E+00  0.43652953202E+01  0.51100000000E-03 0. -1.
        -11    1    3    3    0    0 -0.84237234485E+01  0.69505100621E+01  0.83969963800E+01  0.13776002879E+02  0.51100000000E-03 0.  1.
        -12    1    3    3    0    0 -0.21084628602E+02  0.20277699072E+02  0.48100992690E+01  0.29645972710E+02  0.00000000000E+00 0.  1.
</event>
<event>
 7    1  0.2339217E-009  0.4778727E+02  0.7816164E-02  0.1312668E+00
        -11   -1    0    0    0    0  0.00000000000E+00  0.00000000000E+00  0.45593999997E+02  0.45594000000E+02  0.51100000000E-03 0. -1.
         11   -1    0    0    0    0 -0.00000000000E+00 -0.00000000000E+00 -0.45593999997E+02  0.45594000000E+02  0.51100000000E-03 0.  1.
    9900012    2    1    2    0    0  0.25243022439E+02 -0.35289707820E+02  0.10247013975E+01  0.47787266449E+02  0.19999979046E+02 0.  0.
         12    1    1    2    0    0 -0.25243022439E+02  0.35289707820E+02 -0.10247013975E+01  0.43400733551E+02  0.00000000000E+00 0. -1.
         11    1    3    3    0    0  0.10461766205E+02 -0.70268699873E+01  0.78840669052E+01  0.14865529428E+02  0.51100000000E-03 0. -1.
        -11    1    3    3    0    0  0.12532805867E+01 -0.59044293709E+01 -0.72873126488E+00  0.60798065712E+01  0.51100000000E-03 0.  1.
         12    1    3    3    0    0  0.13527975647E+02 -0.22358408461E+02 -0.61306342428E+01  0.26841930450E+02  0.00000000000E+00 0. -1.
</event>
<event>
 7    1  0.2339217E-009  0.4778727E+02  0.7816164E-02  0.1312668E+00
        -11   -1    0    0    0    0  0.00000000000E+00  0.00000000000E+00  0.45593999997E+02  0.45594000000E+02  0.51100000000E-03 0.  1.
         11   -1    0    0    0    0 -0.00000000000E+00 -0.00000000000E+00 -0.45593999997E+02  0.45594000000E+02  0.51100000000E-03 0. -1.
    9900012    2    1    2    0    0  0.19712934167E+02 -0.97917280354E+01  0.37405152296E+02  0.47787272705E+02  0.20000007571E+02 0.  0.
         12    1    1    2    0    0 -0.19712934167E+02  0.97917280354E+01 -0.37405152296E+02  0.43400727295E+02  0.00000000000E+00 0. -1.
         11    1    3    3    0    0 -0.15746627378E+01  0.20509286592E+01  0.21814035949E+01  0.33829562528E+01  0.51100000000E-03 0. -1.
        -11    1    3    3    0    0  0.65783768864E+01 -0.51652092275E+01  0.40479997633E+01  0.92919713284E+01  0.51100000000E-03 0.  1.
        -12    1    3    3    0    0  0.14709220019E+02 -0.66774474672E+01  0.31175748938E+02  0.35112345124E+02  0.00000000000E+00 0.  1.
</event>
<event>
 7    1  0.2339217E-009  0.4778727E+02  0.7816164E-02  0.1312668E+00
        -11   -1    0    0    0    0  0.00000000000E+00  0.00000000000E+00  0.45593999997E+02  0.45594000000E+02  0.51100000000E-03 0.  1.
         11   -1    0    0    0    0 -0.00000000000E+00 -0.00000000000E+00 -0.45593999997E+02  0.45594000000E+02  0.51100000000E-03 0. -1.
    9900012    2    1    2    0    0 -0.14090699067E+02 -0.39607134319E+02 -0.10786579378E+02  0.47787272082E+02  0.20000004730E+02 0.  0.
         12    1    1    2    0    0  0.14090699067E+02  0.39607134319E+02  0.10786579378E+02  0.43400727918E+02  0.00000000000E+00 0. -1.
         11    1    3    3    0    0  0.11002782705E+01 -0.17227520262E+02 -0.70357105905E+01  0.18641332850E+02  0.51100000000E-03 0. -1.
        -11    1    3    3    0    0  0.14014484023E+01 -0.77189814870E+00 -0.64883192933E+00  0.17265188994E+01  0.51100000000E-03 0.  1.
        -12    1    3    3    0    0 -0.16592425739E+02 -0.21607715909E+02 -0.31020368579E+01  0.27419420333E+02  0.00000000000E+00 0.  1.
</event>
<event>
 7    1  0.2339217E-009  0.4778727E+02  0.7816164E-02  0.1312668E+00
        -11   -1    0    0    0    0  0.00000000000E+00  0.00000000000E+00  0.45593999997E+02  0.45594000000E+02  0.51100000000E-03 0. -1.
         11   -1    0    0    0    0 -0.00000000000E+00 -0.00000000000E+00 -0.45593999997E+02  0.45594000000E+02  0.51100000000E-03 0.  1.
    9900012    2    1    2    0    0  0.38196625534E+02 -0.17540333865E+02 -0.10815634309E+02  0.47787268902E+02  0.19999990233E+02 0.  0.
         12    1    1    2    0    0 -0.38196625534E+02  0.17540333865E+02  0.10815634309E+02  0.43400731098E+02  0.00000000000E+00 0. -1.
         11    1    3    3    0    0  0.16805649114E+02 -0.90628519428E+01  0.76431624935E+00  0.19108880320E+02  0.51100000000E-03 0. -1.
        -11    1    3    3    0    0  0.16723387880E+02 -0.35307792243E+01 -0.24093521008E+01  0.17261027835E+02  0.51100000000E-03 0.  1.
        -12    1    3    3    0    0  0.46675885406E+01 -0.49467026981E+01 -0.91705984579E+01  0.11417360748E+02  0.00000000000E+00 0.  1.
</event>
<event>
 7    1  0.2339217E-009  0.4778727E+02  0.7816164E-02  0.1312668E+00
        -11   -1    0    0    0    0  0.00000000000E+00  0.00000000000E+00  0.45593999997E+02  0.45594000000E+02  0.51100000000E-03 0.  1.
         11   -1    0    0    0    0 -0.00000000000E+00 -0.00000000000E+00 -0.45593999997E+02  0.45594000000E+02  0.51100000000E-03 0. -1.
    9900012    2    1    2    0    0 -0.92179864827E+01  0.26257820372E+02  0.33304337727E+02  0.47787270549E+02  0.19999997740E+02 0.  0.
         12    1    1    2    0    0  0.92179864827E+01 -0.26257820372E+02 -0.33304337727E+02  0.43400729451E+02  0.00000000000E+00 0. -1.
         11    1    3    3    0    0 -0.54341124189E+01  0.13822012260E+02  0.19056449097E+02  0.24160419143E+02  0.51100000000E-03 0.  1.
        -11    1    3    3    0    0 -0.73122479207E+01  0.10246908527E+02  0.51028831045E+01  0.13583354529E+02  0.51100000000E-03 0. -1.
         12    1    3    3    0    0  0.35283738569E+01  0.21888995847E+01  0.91450055254E+01  0.10043496877E+02  0.00000000000E+00 0. -1.
</event>
<event>
 7    1  0.2339217E-009  0.4778726E+02  0.7816164E-02  0.1312668E+00
        -11   -1    0    0    0    0  0.00000000000E+00  0.00000000000E+00  0.45593999997E+02  0.45594000000E+02  0.51100000000E-03 0. -1.
         11   -1    0    0    0    0 -0.00000000000E+00 -0.00000000000E+00 -0.45593999997E+02  0.45594000000E+02  0.51100000000E-03 0.  1.
    9900012    2    1    2    0    0  0.92900169686E+01 -0.41484183184E+02 -0.87396956247E+01  0.47787260959E+02  0.19999954016E+02 0.  0.
         12    1    1    2    0    0 -0.92900169686E+01  0.41484183184E+02  0.87396956247E+01  0.43400739041E+02  0.00000000000E+00 0. -1.
         11    1    3    3    0    0  0.66135008427E+00 -0.10857794991E+02  0.22024920698E+01  0.11098651611E+02  0.51100000000E-03 0. -1.
        -11    1    3    3    0    0  0.36491714813E+01 -0.26107912528E+02 -0.33931087619E+01  0.26579178625E+02  0.51100000000E-03 0.  1.
        -12    1    3    3    0    0  0.49794954031E+01 -0.45184756648E+01 -0.75490789326E+01  0.10109430723E+02  0.00000000000E+00 0.  1.
</event>
<event>
 7    1  0.2339217E-009  0.4778727E+02  0.7816164E-02  0.1312668E+00
        -11   -1    0    0    0    0  0.00000000000E+00  0.00000000000E+00  0.45593999997E+02  0.45594000000E+02  0.51100000000E-03 0.  1.
         11   -1    0    0    0    0 -0.00000000000E+00 -0.00000000000E+00 -0.45593999997E+02  0.45594000000E+02  0.51100000000E-03 0. -1.
    9900012    2    1    2    0    0 -0.21969481557E+02 -0.65127876296E+01  0.36858495041E+02  0.47787272135E+02  0.20000004971E+02 0.  0.
         12    1    1    2    0    0  0.21969481557E+02  0.65127876296E+01 -0.36858495041E+02  0.43400727865E+02  0.00000000000E+00 0. -1.
         11    1    3    3    0    0 -0.17093646975E+02 -0.57139540259E+01  0.20222357725E+02  0.27088480757E+02  0.51100000000E-03 0. -1.
        -11    1    3    3    0    0 -0.78451126386E+01 -0.26097499967E+01  0.14270621837E+02  0.16492641851E+02  0.51100000000E-03 0.  1.
         12    1    3    3    0    0  0.29692780564E+01  0.18109163930E+01  0.23655154787E+01  0.42061495264E+01  0.00000000000E+00 0. -1.
</event>
<event>
 7    1  0.2339217E-009  0.4778727E+02  0.7816164E-02  0.1312668E+00
        -11   -1    0    0    0    0  0.00000000000E+00  0.00000000000E+00  0.45593999997E+02  0.45594000000E+02  0.51100000000E-03 0.  1.
         11   -1    0    0    0    0 -0.00000000000E+00 -0.00000000000E+00 -0.45593999997E+02  0.45594000000E+02  0.51100000000E-03 0. -1.
    9900012    2    1    2    0    0 -0.34915928812E+02  0.25403740977E+02 -0.43762460267E+01  0.47787266484E+02  0.19999979208E+02 0.  0.
         12    1    1    2    0    0  0.34915928812E+02 -0.25403740977E+02  0.43762460267E+01  0.43400733516E+02  0.00000000000E+00 0. -1.
         11    1    3    3    0    0 -0.16679574657E+02  0.15982172769E+02  0.34959982023E+01  0.23363648278E+02  0.51100000000E-03 0.  1.
        -11    1    3    3    0    0 -0.93535075462E+01  0.43117740871E+01  0.16546978416E+01  0.10431563852E+02  0.51100000000E-03 0. -1.
         12    1    3    3    0    0 -0.88828466080E+01  0.51097941209E+01 -0.95269420707E+01  0.13992054354E+02  0.00000000000E+00 0. -1.
</event>
<event>
 7    1  0.2339217E-009  0.4778727E+02  0.7816164E-02  0.1312668E+00
        -11   -1    0    0    0    0  0.00000000000E+00  0.00000000000E+00  0.45593999997E+02  0.45594000000E+02  0.51100000000E-03 0.  1.
         11   -1    0    0    0    0 -0.00000000000E+00 -0.00000000000E+00 -0.45593999997E+02  0.45594000000E+02  0.51100000000E-03 0. -1.
    9900012    2    1    2    0    0 -0.42124006818E+01 -0.21678846802E+02  0.37361832636E+02  0.47787271249E+02  0.20000000934E+02 0.  0.
         12    1    1    2    0    0  0.42124006818E+01  0.21678846802E+02 -0.37361832636E+02  0.43400728751E+02  0.00000000000E+00 0. -1.
         11    1    3    3    0    0 -0.50774517354E+01 -0.47061001079E+01  0.15322575324E+02  0.16813958760E+02  0.51100000000E-03 0. -1.
        -11    1    3    3    0    0 -0.11177939531E+01 -0.77392914080E+01  0.19770394340E+02  0.21260634691E+02  0.51100000000E-03 0.  1.
         12    1    3    3    0    0  0.19828450066E+01 -0.92334552863E+01  0.22688629721E+01  0.97126777991E+01  0.00000000000E+00 0. -1.
</event>
<event>
 7    1  0.2339217E-009  0.4778727E+02  0.7816164E-02  0.1312668E+00
        -11   -1    0    0    0    0  0.00000000000E+00  0.00000000000E+00  0.45593999997E+02  0.45594000000E+02  0.51100000000E-03 0.  1.
         11   -1    0    0    0    0 -0.00000000000E+00 -0.00000000000E+00 -0.45593999997E+02  0.45594000000E+02  0.51100000000E-03 0. -1.
    9900012    2    1    2    0    0  0.15722110741E+02 -0.53690770815E+01  0.40095033224E+02  0.47787269084E+02  0.19999991060E+02 0.  0.
         12    1    1    2    0    0 -0.15722110741E+02  0.53690770815E+01 -0.40095033224E+02  0.43400730916E+02  0.00000000000E+00 0. -1.
         11    1    3    3    0    0  0.28381585435E+01  0.30535252156E+01  0.40786118579E+01  0.58321724176E+01  0.51100000000E-03 0. -1.
        -11    1    3    3    0    0  0.11326875705E+02 -0.12085069316E+02  0.22996566889E+02  0.28340591076E+02  0.51100000000E-03 0.  1.
        -12    1    3    3    0    0  0.15570764926E+01  0.36624670183E+01  0.13019854477E+02  0.13614505590E+02  0.00000000000E+00 0.  1.
</event>
<event>
 7    1  0.2339217E-009  0.4778723E+02  0.7816164E-02  0.1312668E+00
        -11   -1    0    0    0    0  0.00000000000E+00  0.00000000000E+00  0.45593999997E+02  0.45594000000E+02  0.51100000000E-03 0. -1.
         11   -1    0    0    0    0 -0.00000000000E+00 -0.00000000000E+00 -0.45593999997E+02  0.45594000000E+02  0.51100000000E-03 0.  1.
    9900012    2    1    2    0    0  0.32184357701E+02  0.23766877464E+02 -0.16820504449E+02  0.47787231401E+02  0.19999819251E+02 0.  0.
         12    1    1    2    0    0 -0.32184357701E+02 -0.23766877464E+02  0.16820504449E+02  0.43400768599E+02  0.00000000000E+00 0. -1.
         11    1    3    3    0    0  0.81186720070E+01  0.10796667634E+01 -0.46347159263E+01  0.94105848626E+01  0.51100000000E-03 0. -1.
        -11    1    3    3    0    0  0.18231920004E+02  0.12307777135E+02 -0.14364945751E+02  0.26272341954E+02  0.51100000000E-03 0.  1.
         12    1    3    3    0    0  0.58337656895E+01  0.10379433566E+02  0.21791572276E+01  0.12104304585E+02  0.00000000000E+00 0. -1.
</event>
<event>
 7    1  0.2339217E-009  0.4778728E+02  0.7816164E-02  0.1312668E+00
        -11   -1    0    0    0    0  0.00000000000E+00  0.00000000000E+00  0.45593999997E+02  0.45594000000E+02  0.51100000000E-03 0.  1.
         11   -1    0    0    0    0 -0.00000000000E+00 -0.00000000000E+00 -0.45593999997E+02  0.45594000000E+02  0.51100000000E-03 0. -1.
    9900012    2    1    2    0    0  0.23695547656E+02  0.34479144505E+02  0.11546951359E+02  0.47787280303E+02  0.20000042216E+02 0.  0.
         12    1    1    2    0    0 -0.23695547656E+02 -0.34479144505E+02 -0.11546951359E+02  0.43400719697E+02  0.00000000000E+00 0. -1.
         11    1    3    3    0    0  0.10764689330E+02  0.19369700976E+02 -0.12650646279E+00  0.22160321667E+02  0.51100000000E-03 0.  1.
        -11    1    3    3    0    0  0.90979282166E+01  0.74414565606E+01  0.80028871749E+00  0.11780833412E+02  0.51100000000E-03 0. -1.
         12    1    3    3    0    0  0.38329301095E+01  0.76679869684E+01  0.10873169104E+02  0.13846125225E+02  0.00000000000E+00 0. -1.
</event>
<event>
 7    1  0.2339217E-009  0.4778726E+02  0.7816164E-02  0.1312668E+00
        -11   -1    0    0    0    0  0.00000000000E+00  0.00000000000E+00  0.45593999997E+02  0.45594000000E+02  0.51100000000E-03 0.  1.
         11   -1    0    0    0    0 -0.00000000000E+00 -0.00000000000E+00 -0.45593999997E+02  0.45594000000E+02  0.51100000000E-03 0. -1.
    9900012    2    1    2    0    0 -0.57193017789E+01 -0.32858507439E+02  0.27771071403E+02  0.47787258868E+02  0.19999944482E+02 0.  0.
         12    1    1    2    0    0  0.57193017789E+01  0.32858507439E+02 -0.27771071403E+02  0.43400741132E+02  0.00000000000E+00 0. -1.
         11    1    3    3    0    0 -0.19683722300E+01 -0.26500825180E+02  0.17973190512E+02  0.32081206366E+02  0.51100000000E-03 0. -1.
        -11    1    3    3    0    0  0.19804585161E+01 -0.59348990449E+01  0.34562468545E+01  0.71477888320E+01  0.51100000000E-03 0.  1.
        -12    1    3    3    0    0 -0.57313880650E+01 -0.42278321442E+00  0.63416340363E+01  0.85582636702E+01  0.00000000000E+00 0.  1.
</event>
<event>
 7    1  0.2339217E-009  0.4778726E+02  0.7816164E-02  0.1312668E+00
        -11   -1    0    0    0    0  0.00000000000E+00  0.00000000000E+00  0.45593999997E+02  0.45594000000E+02  0.51100000000E-03 0.  1.
         11   -1    0    0    0    0 -0.00000000000E+00 -0.00000000000E+00 -0.45593999997E+02  0.45594000000E+02  0.51100000000E-03 0. -1.
    9900012    2    1    2    0    0 -0.21224165694E+02 -0.34299130601E+02 -0.16022741943E+02  0.47787264652E+02  0.19999970853E+02 0.  0.
         12    1    1    2    0    0  0.21224165694E+02  0.34299130601E+02  0.16022741943E+02  0.43400735348E+02  0.00000000000E+00 0. -1.
         11    1    3    3    0    0  0.92552800849E+00 -0.58838320595E+01  0.21371974613E+01  0.63280087744E+01  0.51100000000E-03 0. -1.
        -11    1    3    3    0    0 -0.11617494661E+01 -0.71259089021E+01 -0.20793168928E+01  0.75134411893E+01  0.51100000000E-03 0.  1.
        -12    1    3    3    0    0 -0.20987944236E+02 -0.21289389640E+02 -0.16080622512E+02  0.33945814688E+02  0.00000000000E+00 0.  1.
</event>
<event>
 7    1  0.2339217E-009  0.4778728E+02  0.7816164E-02  0.1312668E+00
        -11   -1    0    0    0    0  0.00000000000E+00  0.00000000000E+00  0.45593999997E+02  0.45594000000E+02  0.51100000000E-03 0.  1.
         11   -1    0    0    0    0 -0.00000000000E+00 -0.00000000000E+00 -0.45593999997E+02  0.45594000000E+02  0.51100000000E-03 0. -1.
    9900012    2    1    2    0    0  0.80977671787E+01  0.42217144923E+02  0.59801003436E+01  0.47787276978E+02  0.20000027053E+02 0.  0.
         12    1    1    2    0    0 -0.80977671787E+01 -0.42217144923E+02 -0.59801003436E+01  0.43400723022E+02  0.00000000000E+00 0. -1.
         11    1    3    3    0    0  0.12973446233E+02  0.29941721386E+02  0.86957146113E+01  0.33770289302E+02  0.51100000000E-03 0. -1.
        -11    1    3    3    0    0 -0.29417627118E+01  0.11054593940E+02 -0.19441068191E+01  0.11603342907E+02  0.51100000000E-03 0.  1.
        -12    1    3    3    0    0 -0.19339163423E+01  0.12208295967E+01 -0.77150744853E+00  0.24136447681E+01  0.00000000000E+00 0.  1.
</event>
<event>
 7    1  0.2339217E-009  0.4778728E+02  0.7816164E-02  0.1312668E+00
        -11   -1    0    0    0    0  0.00000000000E+00  0.00000000000E+00  0.45593999997E+02  0.45594000000E+02  0.51100000000E-03 0.  1.
         11   -1    0    0    0    0 -0.00000000000E+00 -0.00000000000E+00 -0.45593999997E+02  0.45594000000E+02  0.51100000000E-03 0. -1.
    9900012    2    1    2    0    0  0.35778292095E+02 -0.24173093643E+02  0.43815657884E+01  0.47787276962E+02  0.20000026978E+02 0.  0.
         12    1    1    2    0    0 -0.35778292095E+02  0.24173093643E+02 -0.43815657884E+01  0.43400723038E+02  0.00000000000E+00 0. -1.
         11    1    3    3    0    0  0.26201403598E+02 -0.23819913767E+02 -0.97786958155E+00  0.35423975942E+02  0.51100000000E-03 0. -1.
        -11    1    3    3    0    0  0.38273912632E+01 -0.25988623361E+01  0.81319451312E+00  0.46972646190E+01  0.51100000000E-03 0.  1.
         12    1    3    3    0    0  0.57494972343E+01  0.22456824609E+01  0.45462408568E+01  0.76660364003E+01  0.00000000000E+00 0. -1.
</event>
<event>
 7    1  0.2339217E-009  0.4778728E+02  0.7816164E-02  0.1312668E+00
        -11   -1    0    0    0    0  0.00000000000E+00  0.00000000000E+00  0.45593999997E+02  0.45594000000E+02  0.51100000000E-03 0.  1.
         11   -1    0    0    0    0 -0.00000000000E+00 -0.00000000000E+00 -0.45593999997E+02  0.45594000000E+02  0.51100000000E-03 0. -1.
    9900012    2    1    2    0    0 -0.34189955474E+02 -0.99196106310E+01  0.24824809346E+02  0.47787275473E+02  0.20000020191E+02 0.  0.
         12    1    1    2    0    0  0.34189955474E+02  0.99196106310E+01 -0.24824809346E+02  0.43400724527E+02  0.00000000000E+00 0. -1.
         11    1    3    3    0    0 -0.15944572734E+02 -0.60141407686E+00  0.12668586325E+02  0.20373614758E+02  0.51100000000E-03 0. -1.
        -11    1    3    3    0    0 -0.17243679443E+02 -0.28025306102E+01  0.62248310636E+01  0.18545813020E+02  0.51100000000E-03 0.  1.
         12    1    3    3    0    0 -0.10017032974E+01 -0.65156659440E+01  0.59313919571E+01  0.88678476948E+01  0.00000000000E+00 0. -1.
</event>
<event>
 7    1  0.2339217E-009  0.4778727E+02  0.7816164E-02  0.1312668E+00
        -11   -1    0    0    0    0  0.00000000000E+00  0.00000000000E+00  0.45593999997E+02  0.45594000000E+02  0.51100000000E-03 0.  1.
         11   -1    0    0    0    0 -0.00000000000E+00 -0.00000000000E+00 -0.45593999997E+02  0.45594000000E+02  0.51100000000E-03 0. -1.
    9900012    2    1    2    0    0 -0.36397490490E+02 -0.17128529977E+02  0.16292934156E+02  0.47787267788E+02  0.19999985153E+02 0.  0.
         12    1    1    2    0    0  0.36397490490E+02  0.17128529977E+02 -0.16292934156E+02  0.43400732212E+02  0.00000000000E+00 0. -1.
         11    1    3    3    0    0 -0.48910589877E+01 -0.18477796878E+01 -0.39644342749E+01  0.65615156158E+01  0.51100000000E-03 0. -1.
        -11    1    3    3    0    0 -0.23171436791E+02 -0.10851659945E+02  0.10520817693E+02  0.27665169649E+02  0.51100000000E-03 0.  1.
        -12    1    3    3    0    0 -0.83349947116E+01 -0.44290903444E+01  0.97365507371E+01  0.13560582524E+02  0.00000000000E+00 0.  1.
</event>
<event>
 7    1  0.2339217E-009  0.4778727E+02  0.7816164E-02  0.1312668E+00
        -11   -1    0    0    0    0  0.00000000000E+00  0.00000000000E+00  0.45593999997E+02  0.45594000000E+02  0.51100000000E-03 0. -1.
         11   -1    0    0    0    0 -0.00000000000E+00 -0.00000000000E+00 -0.45593999997E+02  0.45594000000E+02  0.51100000000E-03 0.  1.
    9900012    2    1    2    0    0 -0.32386450393E+02  0.25929012562E+02 -0.12744703913E+02  0.47787270290E+02  0.19999996560E+02 0.  0.
         12    1    1    2    0    0  0.32386450393E+02 -0.25929012562E+02  0.12744703913E+02  0.43400729710E+02  0.00000000000E+00 0. -1.
         11    1    3    3    0    0 -0.11180842717E+02  0.12241371559E+02 -0.14408309951E+02  0.21965013486E+02  0.51100000000E-03 0. -1.
        -11    1    3    3    0    0 -0.74941187853E+01  0.69416523880E+01 -0.11656923457E+01  0.10281400350E+02  0.51100000000E-03 0.  1.
         12    1    3    3    0    0 -0.13711488891E+02  0.67459886148E+01  0.28292983839E+01  0.15540856454E+02  0.00000000000E+00 0. -1.
</event>
<event>
 7    1  0.2339217E-009  0.4778727E+02  0.7816164E-02  0.1312668E+00
        -11   -1    0    0    0    0  0.00000000000E+00  0.00000000000E+00  0.45593999997E+02  0.45594000000E+02  0.51100000000E-03 0.  1.
         11   -1    0    0    0    0 -0.00000000000E+00 -0.00000000000E+00 -0.45593999997E+02  0.45594000000E+02  0.51100000000E-03 0. -1.
    9900012    2    1    2    0    0 -0.69107672987E+01 -0.36549370496E+02  0.22360861617E+02  0.47787270506E+02  0.19999997546E+02 0.  0.
         12    1    1    2    0    0  0.69107672987E+01  0.36549370496E+02 -0.22360861617E+02  0.43400729494E+02  0.00000000000E+00 0. -1.
         11    1    3    3    0    0 -0.55097179889E+01 -0.26363351355E+01  0.17990508143E+00  0.61106154651E+01  0.51100000000E-03 0. -1.
        -11    1    3    3    0    0 -0.73874661254E-01 -0.19466249055E+01  0.49897838506E+01  0.53565613153E+01  0.51100000000E-03 0.  1.
        -12    1    3    3    0    0 -0.13271746486E+01 -0.31966410456E+02  0.17191172685E+02  0.36320093726E+02  0.00000000000E+00 0.  1.
</event>
<event>
 7    1  0.2339217E-009  0.4778727E+02  0.7816164E-02  0.1312668E+00
        -11   -1    0    0    0    0  0.00000000000E+00  0.00000000000E+00  0.45593999997E+02  0.45594000000E+02  0.51100000000E-03 0.  1.
         11   -1    0    0    0    0 -0.00000000000E+00 -0.00000000000E+00 -0.45593999997E+02  0.45594000000E+02  0.51100000000E-03 0. -1.
    9900012    2    1    2    0    0 -0.24415011555E+02 -0.91508952487E+01  0.34695699769E+02  0.47787271255E+02  0.20000000961E+02 0.  0.
         12    1    1    2    0    0  0.24415011555E+02  0.91508952487E+01 -0.34695699769E+02  0.43400728745E+02  0.00000000000E+00 0. -1.
         11    1    3    3    0    0 -0.13402352705E+02 -0.71256579986E+01  0.11797449731E+02  0.19224408453E+02  0.51100000000E-03 0. -1.
        -11    1    3    3    0    0 -0.84605057926E+01 -0.72705107835E+01  0.16353210873E+02  0.19795655873E+02  0.51100000000E-03 0.  1.
        -12    1    3    3    0    0 -0.25521530575E+01  0.52452735335E+01  0.65450391654E+01  0.87672069296E+01  0.00000000000E+00 0.  1.
</event>
<event>
 7    1  0.2339217E-009  0.4778726E+02  0.7816164E-02  0.1312668E+00
        -11   -1    0    0    0    0  0.00000000000E+00  0.00000000000E+00  0.45593999997E+02  0.45594000000E+02  0.51100000000E-03 0.  1.
         11   -1    0    0    0    0 -0.00000000000E+00 -0.00000000000E+00 -0.45593999997E+02  0.45594000000E+02  0.51100000000E-03 0. -1.
    9900012    2    1    2    0    0  0.26690796609E+02 -0.19112746140E+02  0.28388873437E+02  0.47787264710E+02  0.19999971121E+02 0.  0.
         12    1    1    2    0    0 -0.26690796609E+02  0.19112746140E+02 -0.28388873437E+02  0.43400735290E+02  0.00000000000E+00 0. -1.
         11    1    3    3    0    0  0.24927498958E+02 -0.15745808644E+02  0.19582165440E+02  0.35394517905E+02  0.51100000000E-03 0. -1.
        -11    1    3    3    0    0  0.24646017813E+01 -0.57280202698E+01  0.66850892069E+01  0.91419306559E+01  0.51100000000E-03 0.  1.
         12    1    3    3    0    0 -0.70130412998E+00  0.23610827737E+01  0.21216187900E+01  0.32508161494E+01  0.00000000000E+00 0. -1.
</event>
<event>
 7    1  0.2339217E-009  0.4778727E+02  0.7816164E-02  0.1312668E+00
        -11   -1    0    0    0    0  0.00000000000E+00  0.00000000000E+00  0.45593999997E+02  0.45594000000E+02  0.51100000000E-03 0.  1.
         11   -1    0    0    0    0 -0.00000000000E+00 -0.00000000000E+00 -0.45593999997E+02  0.45594000000E+02  0.51100000000E-03 0. -1.
    9900012    2    1    2    0    0  0.11042279796E+02  0.12143035427E+02  0.40177581870E+02  0.47787270313E+02  0.19999996664E+02 0.  0.
         12    1    1    2    0    0 -0.11042279796E+02 -0.12143035427E+02 -0.40177581870E+02  0.43400729687E+02  0.00000000000E+00 0. -1.
         11    1    3    3    0    0  0.64989182064E+01  0.63863888404E+01  0.23501407177E+02  0.25205912795E+02  0.51100000000E-03 0.  1.
        -11    1    3    3    0    0  0.60347310946E+01  0.91012113964E+01  0.92897711579E+01  0.14337010731E+02  0.51100000000E-03 0. -1.
         12    1    3    3    0    0 -0.14913695047E+01 -0.33445648097E+01  0.73864035350E+01  0.82443467872E+01  0.00000000000E+00 0. -1.
</event>
<event>
 7    1  0.2353980E-009  0.4778726E+02  0.7816164E-02  0.1312668E+00
        -11   -1    0    0    0    0  0.00000000000E+00  0.00000000000E+00  0.45593999997E+02  0.45594000000E+02  0.51100000000E-03 0. -1.
         11   -1    0    0    0    0 -0.00000000000E+00 -0.00000000000E+00 -0.45593999997E+02  0.45594000000E+02  0.51100000000E-03 0.  1.
    9900012    2    1    2    0    0  0.11035614832E+02 -0.41690991546E+02 -0.48683164301E+01  0.47787261808E+02  0.19999957886E+02 0.  0.
         12    1    1    2    0    0 -0.11035614832E+02  0.41690991546E+02  0.48683164301E+01  0.43400738192E+02  0.00000000000E+00 0. -1.
         11    1    3    3    0    0 -0.22622553861E+01 -0.31886718629E+01  0.21989969710E+01  0.44856455077E+01  0.51100000000E-03 0. -1.
        -11    1    3    3    0    0  0.95848017514E+00 -0.10901753310E+02 -0.71422559955E+01  0.13068233639E+02  0.51100000000E-03 0.  1.
        -12    1    3    3    0    0  0.12339390043E+02 -0.27600566373E+02  0.74942594338E-01  0.30233382661E+02  0.00000000000E+00 0.  1.
</event>
<event>
 7    1  0.2339217E-009  0.4778727E+02  0.7816164E-02  0.1312668E+00
        -11   -1    0    0    0    0  0.00000000000E+00  0.00000000000E+00  0.45593999997E+02  0.45594000000E+02  0.51100000000E-03 0.  1.
         11   -1    0    0    0    0 -0.00000000000E+00 -0.00000000000E+00 -0.45593999997E+02  0.45594000000E+02  0.51100000000E-03 0. -1.
    9900012    2    1    2    0    0 -0.35917321294E+02  0.20189755395E+02  0.13636087744E+02  0.47787273268E+02  0.20000010139E+02 0.  0.
         12    1    1    2    0    0  0.35917321294E+02 -0.20189755395E+02 -0.13636087744E+02  0.43400726732E+02  0.00000000000E+00 0. -1.
         11    1    3    3    0    0 -0.57662291209E+01 -0.85081818130E+00 -0.71550182589E+00  0.58724128752E+01  0.51100000000E-03 0. -1.
        -11    1    3    3    0    0 -0.15314518191E+02  0.23297370554E+01  0.61388843770E+01  0.16662774193E+02  0.51100000000E-03 0.  1.
        -12    1    3    3    0    0 -0.14836573983E+02  0.18710836521E+02  0.82127051931E+01  0.25252086200E+02  0.00000000000E+00 0.  1.
</event>
<event>
 7    1  0.2339217E-009  0.4778730E+02  0.7816164E-02  0.1312668E+00
        -11   -1    0    0    0    0  0.00000000000E+00  0.00000000000E+00  0.45593999997E+02  0.45594000000E+02  0.51100000000E-03 0. -1.
         11   -1    0    0    0    0 -0.00000000000E+00 -0.00000000000E+00 -0.45593999997E+02  0.45594000000E+02  0.51100000000E-03 0.  1.
    9900012    2    1    2    0    0 -0.11029648643E+02  0.40869501394E+02 -0.95734825755E+01  0.47787298831E+02  0.20000126689E+02 0.  0.
         12    1    1    2    0    0  0.11029648643E+02 -0.40869501394E+02  0.95734825755E+01  0.43400701169E+02  0.00000000000E+00 0. -1.
         11    1    3    3    0    0 -0.62673972219E+01  0.63995477097E+01 -0.72789121892E+01  0.11541968712E+02  0.51100000000E-03 0. -1.
        -11    1    3    3    0    0 -0.19105753332E+01  0.15857597626E+02 -0.59863969563E+01  0.17057275555E+02  0.51100000000E-03 0.  1.
        -12    1    3    3    0    0 -0.28516760882E+01  0.18612356058E+02  0.36918265700E+01  0.19188054564E+02  0.00000000000E+00 0.  1.
</event>
<event>
 7    1  0.2339217E-009  0.4778725E+02  0.7816164E-02  0.1312668E+00
        -11   -1    0    0    0    0  0.00000000000E+00  0.00000000000E+00  0.45593999997E+02  0.45594000000E+02  0.51100000000E-03 0.  1.
         11   -1    0    0    0    0 -0.00000000000E+00 -0.00000000000E+00 -0.45593999997E+02  0.45594000000E+02  0.51100000000E-03 0. -1.
    9900012    2    1    2    0    0 -0.12566906852E+02  0.39876180275E+02 -0.11644245917E+02  0.47787246964E+02  0.19999890206E+02 0.  0.
         12    1    1    2    0    0  0.12566906852E+02 -0.39876180275E+02  0.11644245917E+02  0.43400753036E+02  0.00000000000E+00 0. -1.
         11    1    3    3    0    0 -0.66887410384E+01  0.63291814851E+01 -0.25744462351E+01  0.95616718532E+01  0.51100000000E-03 0. -1.
        -11    1    3    3    0    0 -0.58067668771E+01  0.13860619404E+02  0.27297236356E+01  0.15273725911E+02  0.51100000000E-03 0.  1.
         12    1    3    3    0    0 -0.71398936234E-01  0.19686379386E+02 -0.11799523318E+02  0.22951849199E+02  0.00000000000E+00 0. -1.
</event>
<event>
 7    1  0.2339217E-009  0.4778727E+02  0.7816164E-02  0.1312668E+00
        -11   -1    0    0    0    0  0.00000000000E+00  0.00000000000E+00  0.45593999997E+02  0.45594000000E+02  0.51100000000E-03 0.  1.
         11   -1    0    0    0    0 -0.00000000000E+00 -0.00000000000E+00 -0.45593999997E+02  0.45594000000E+02  0.51100000000E-03 0. -1.
    9900012    2    1    2    0    0 -0.20115908416E+02 -0.23729311668E+02  0.30263728965E+02  0.47787270807E+02  0.19999998920E+02 0.  0.
         12    1    1    2    0    0  0.20115908416E+02  0.23729311668E+02 -0.30263728965E+02  0.43400729193E+02  0.00000000000E+00 0. -1.
         11    1    3    3    0    0 -0.89005017353E+01 -0.32511133854E+01  0.14669547976E+02  0.17463799915E+02  0.51100000000E-03 0. -1.
        -11    1    3    3    0    0 -0.76273980682E+01 -0.55666743761E+01  0.10594866162E+02  0.14192119438E+02  0.51100000000E-03 0.  1.
         12    1    3    3    0    0 -0.35880086120E+01 -0.14911523906E+02  0.49993148263E+01  0.16131351454E+02  0.00000000000E+00 0. -1.
</event>
<event>
 7    1  0.2339217E-009  0.4778727E+02  0.7816164E-02  0.1312668E+00
        -11   -1    0    0    0    0  0.00000000000E+00  0.00000000000E+00  0.45593999997E+02  0.45594000000E+02  0.51100000000E-03 0.  1.
         11   -1    0    0    0    0 -0.00000000000E+00 -0.00000000000E+00 -0.45593999997E+02  0.45594000000E+02  0.51100000000E-03 0. -1.
    9900012    2    1    2    0    0 -0.29800844317E+02  0.16752632131E+02  0.26737277413E+02  0.47787274098E+02  0.20000013924E+02 0.  0.
         12    1    1    2    0    0  0.29800844317E+02 -0.16752632131E+02 -0.26737277413E+02  0.43400725902E+02  0.00000000000E+00 0. -1.
         11    1    3    3    0    0 -0.89631914027E+01  0.52419392483E+01  0.90148476122E+00  0.10422542983E+02  0.51100000000E-03 0. -1.
        -11    1    3    3    0    0 -0.17622175927E+02  0.39680382124E+01  0.13492615566E+02  0.22546332002E+02  0.51100000000E-03 0.  1.
        -12    1    3    3    0    0 -0.32154769880E+01  0.75426546699E+01  0.12343177085E+02  0.14818399113E+02  0.00000000000E+00 0.  1.
</event>
<event>
 7    1  0.2339217E-009  0.4778727E+02  0.7816164E-02  0.1312668E+00
        -11   -1    0    0    0    0  0.00000000000E+00  0.00000000000E+00  0.45593999997E+02  0.45594000000E+02  0.51100000000E-03 0. -1.
         11   -1    0    0    0    0 -0.00000000000E+00 -0.00000000000E+00 -0.45593999997E+02  0.45594000000E+02  0.51100000000E-03 0.  1.
    9900012    2    1    2    0    0 -0.20021181151E+02  0.27093594653E+02 -0.27362623487E+02  0.47787265789E+02  0.19999976040E+02 0.  0.
         12    1    1    2    0    0  0.20021181151E+02 -0.27093594653E+02  0.27362623487E+02  0.43400734211E+02  0.00000000000E+00 0. -1.
         11    1    3    3    0    0 -0.33596996703E+01  0.60848643579E+01 -0.18588143444E+01  0.71950223875E+01  0.51100000000E-03 0. -1.
        -11    1    3    3    0    0 -0.17438158828E+02  0.14075143652E+02 -0.12067241768E+02  0.25452256802E+02  0.51100000000E-03 0.  1.
         12    1    3    3    0    0  0.77667734713E+00  0.69335866432E+01 -0.13436567375E+02  0.15139986600E+02  0.00000000000E+00 0. -1.
</event>
<event>
 7    1  0.2339217E-009  0.4778727E+02  0.7816164E-02  0.1312668E+00
        -11   -1    0    0    0    0  0.00000000000E+00  0.00000000000E+00  0.45593999997E+02  0.45594000000E+02  0.51100000000E-03 0. -1.
         11   -1    0    0    0    0 -0.00000000000E+00 -0.00000000000E+00 -0.45593999997E+02  0.45594000000E+02  0.51100000000E-03 0.  1.
    9900012    2    1    2    0    0 -0.69297386654E+01  0.33258008503E+02 -0.27009386622E+02  0.47787269899E+02  0.19999994779E+02 0.  0.
         12    1    1    2    0    0  0.69297386654E+01 -0.33258008503E+02  0.27009386622E+02  0.43400730101E+02  0.00000000000E+00 0. -1.
         11    1    3    3    0    0  0.25262257290E+01  0.13915568068E+02 -0.15962445022E+02  0.21326614884E+02  0.51100000000E-03 0. -1.
        -11    1    3    3    0    0  0.13682169400E+01  0.22441846416E+01  0.11102264361E+01  0.28532411922E+01  0.51100000000E-03 0.  1.
        -12    1    3    3    0    0 -0.10824181334E+02  0.17098255794E+02 -0.12157168037E+02  0.23607413823E+02  0.00000000000E+00 0.  1.
</event>
<event>
 7    1  0.2339217E-009  0.4778727E+02  0.7816164E-02  0.1312668E+00
        -11   -1    0    0    0    0  0.00000000000E+00  0.00000000000E+00  0.45593999997E+02  0.45594000000E+02  0.51100000000E-03 0.  1.
         11   -1    0    0    0    0 -0.00000000000E+00 -0.00000000000E+00 -0.45593999997E+02  0.45594000000E+02  0.51100000000E-03 0. -1.
    9900012    2    1    2    0    0  0.92680699090E+01  0.41625005271E+02 -0.80675158266E+01  0.47787274254E+02  0.20000014636E+02 0.  0.
         12    1    1    2    0    0 -0.92680699090E+01 -0.41625005271E+02  0.80675158266E+01  0.43400725746E+02  0.00000000000E+00 0. -1.
         11    1    3    3    0    0 -0.39095308619E+01  0.16694625914E+02 -0.43539485843E+01  0.17690444723E+02  0.51100000000E-03 0. -1.
        -11    1    3    3    0    0  0.46154603653E+00  0.10866474545E+02 -0.70218054844E+00  0.10898915156E+02  0.51100000000E-03 0.  1.
        -12    1    3    3    0    0  0.12716054734E+02  0.14063904812E+02 -0.30113866939E+01  0.19197914376E+02  0.00000000000E+00 0.  1.
</event>
<event>
 7    1  0.2339217E-009  0.4778727E+02  0.7816164E-02  0.1312668E+00
        -11   -1    0    0    0    0  0.00000000000E+00  0.00000000000E+00  0.45593999997E+02  0.45594000000E+02  0.51100000000E-03 0.  1.
         11   -1    0    0    0    0 -0.00000000000E+00 -0.00000000000E+00 -0.45593999997E+02  0.45594000000E+02  0.51100000000E-03 0. -1.
    9900012    2    1    2    0    0  0.10872709337E+02  0.41022167040E+02 -0.90878753257E+01  0.47787268729E+02  0.19999989441E+02 0.  0.
         12    1    1    2    0    0 -0.10872709337E+02 -0.41022167040E+02  0.90878753257E+01  0.43400731271E+02  0.00000000000E+00 0. -1.
         11    1    3    3    0    0 -0.20460678295E+01  0.51478172257E+01 -0.59848893985E+00  0.55717685724E+01  0.51100000000E-03 0. -1.
        -11    1    3    3    0    0  0.25944266237E+01  0.26526614249E+02 -0.16627276972E+01  0.26704999095E+02  0.51100000000E-03 0.  1.
        -12    1    3    3    0    0  0.10324350542E+02  0.93477355654E+01 -0.68266586887E+01  0.15510501061E+02  0.00000000000E+00 0.  1.
</event>
<event>
 7    1  0.2339217E-009  0.4778727E+02  0.7816164E-02  0.1312668E+00
        -11   -1    0    0    0    0  0.00000000000E+00  0.00000000000E+00  0.45593999997E+02  0.45594000000E+02  0.51100000000E-03 0. -1.
         11   -1    0    0    0    0 -0.00000000000E+00 -0.00000000000E+00 -0.45593999997E+02  0.45594000000E+02  0.51100000000E-03 0.  1.
    9900012    2    1    2    0    0  0.34102858338E+02 -0.20692033395E+02  0.17101408376E+02  0.47787270037E+02  0.19999995409E+02 0.  0.
         12    1    1    2    0    0 -0.34102858338E+02  0.20692033395E+02 -0.17101408376E+02  0.43400729963E+02  0.00000000000E+00 0. -1.
         11    1    3    3    0    0  0.15900303716E+02 -0.10328066743E+02  0.16931617930E+02  0.25419840811E+02  0.51100000000E-03 0. -1.
        -11    1    3    3    0    0  0.91854550501E+01 -0.86677996715E+01  0.25592381874E+01  0.12886156758E+02  0.51100000000E-03 0.  1.
         12    1    3    3    0    0  0.90170995719E+01 -0.16961669807E+01 -0.23894477407E+01  0.94812724685E+01  0.00000000000E+00 0. -1.
</event>
<event>
 7    1  0.2339217E-009  0.4778726E+02  0.7816164E-02  0.1312668E+00
        -11   -1    0    0    0    0  0.00000000000E+00  0.00000000000E+00  0.45593999997E+02  0.45594000000E+02  0.51100000000E-03 0. -1.
         11   -1    0    0    0    0 -0.00000000000E+00 -0.00000000000E+00 -0.45593999997E+02  0.45594000000E+02  0.51100000000E-03 0.  1.
    9900012    2    1    2    0    0  0.26936337833E+02  0.22580118282E+02 -0.25459689645E+02  0.47787264588E+02  0.19999970562E+02 0.  0.
         12    1    1    2    0    0 -0.26936337833E+02 -0.22580118282E+02  0.25459689645E+02  0.43400735412E+02  0.00000000000E+00 0. -1.
         11    1    3    3    0    0  0.93704386656E+01  0.14641510689E+02 -0.95809832194E+01  0.19848783231E+02  0.51100000000E-03 0. -1.
        -11    1    3    3    0    0  0.14629796691E+02  0.10463629701E+02 -0.91626710996E+01  0.20185961450E+02  0.51100000000E-03 0.  1.
         12    1    3    3    0    0  0.29361024770E+01 -0.25250221083E+01 -0.67160353260E+01  0.77525199066E+01  0.00000000000E+00 0. -1.
</event>
<event>
 7    1  0.2339217E-009  0.4778726E+02  0.7816164E-02  0.1312668E+00
        -11   -1    0    0    0    0  0.00000000000E+00  0.00000000000E+00  0.45593999997E+02  0.45594000000E+02  0.51100000000E-03 0. -1.
         11   -1    0    0    0    0 -0.00000000000E+00 -0.00000000000E+00 -0.45593999997E+02  0.45594000000E+02  0.51100000000E-03 0.  1.
    9900012    2    1    2    0    0  0.58023903737E+01  0.42528118896E+02 -0.64277124851E+01  0.47787261312E+02  0.19999955625E+02 0.  0.
         12    1    1    2    0    0 -0.58023903737E+01 -0.42528118896E+02  0.64277124851E+01  0.43400738688E+02  0.00000000000E+00 0. -1.
         11    1    3    3    0    0  0.23684915709E+00  0.91350402163E+01  0.15545928131E+00  0.91394324291E+01  0.51100000000E-03 0. -1.
        -11    1    3    3    0    0 -0.10572983523E+01  0.26064740225E+02  0.11373576525E+01  0.26110958341E+02  0.51100000000E-03 0.  1.
         12    1    3    3    0    0  0.66228395689E+01  0.73283384545E+01 -0.77205294189E+01  0.12536870541E+02  0.00000000000E+00 0. -1.
</event>
<event>
 7    1  0.2339217E-009  0.4778727E+02  0.7816164E-02  0.1312668E+00
        -11   -1    0    0    0    0  0.00000000000E+00  0.00000000000E+00  0.45593999997E+02  0.45594000000E+02  0.51100000000E-03 0. -1.
         11   -1    0    0    0    0 -0.00000000000E+00 -0.00000000000E+00 -0.45593999997E+02  0.45594000000E+02  0.51100000000E-03 0.  1.
    9900012    2    1    2    0    0 -0.45745255274E+00 -0.43362277929E+02 -0.17683150204E+01  0.47787270190E+02  0.19999996105E+02 0.  0.
         12    1    1    2    0    0  0.45745255274E+00  0.43362277929E+02  0.17683150204E+01  0.43400729810E+02  0.00000000000E+00 0. -1.
         11    1    3    3    0    0 -0.18906759780E+01 -0.14876145564E+02 -0.33381475928E+01  0.15362864059E+02  0.51100000000E-03 0. -1.
        -11    1    3    3    0    0  0.65871462452E+01 -0.25612298579E+02  0.66283042124E+00  0.26454105136E+02  0.51100000000E-03 0.  1.
         12    1    3    3    0    0 -0.51539228199E+01 -0.28738337865E+01  0.90700215110E+00  0.59703009948E+01  0.00000000000E+00 0. -1.
</event>
<event>
 7    1  0.2339217E-009  0.4778727E+02  0.7816164E-02  0.1312668E+00
        -11   -1    0    0    0    0  0.00000000000E+00  0.00000000000E+00  0.45593999997E+02  0.45594000000E+02  0.51100000000E-03 0.  1.
         11   -1    0    0    0    0 -0.00000000000E+00 -0.00000000000E+00 -0.45593999997E+02  0.45594000000E+02  0.51100000000E-03 0. -1.
    9900012    2    1    2    0    0 -0.30722745591E+02 -0.61272272250E+01  0.30036532674E+02  0.47787270684E+02  0.19999998355E+02 0.  0.
         12    1    1    2    0    0  0.30722745591E+02  0.61272272250E+01 -0.30036532674E+02  0.43400729316E+02  0.00000000000E+00 0. -1.
         11    1    3    3    0    0 -0.24059372990E+01  0.11331441596E+01 -0.18875117476E+01  0.32611732293E+01  0.51100000000E-03 0. -1.
        -11    1    3    3    0    0 -0.12594694881E+02  0.18319620782E+01  0.11028439486E+02  0.16840691850E+02  0.51100000000E-03 0.  1.
         12    1    3    3    0    0 -0.15722113411E+02 -0.90923334628E+01  0.20895604935E+02  0.27685405605E+02  0.00000000000E+00 0. -1.
</event>
<event>
 7    1  0.2339217E-009  0.4778727E+02  0.7816164E-02  0.1312668E+00
        -11   -1    0    0    0    0  0.00000000000E+00  0.00000000000E+00  0.45593999997E+02  0.45594000000E+02  0.51100000000E-03 0.  1.
         11   -1    0    0    0    0 -0.00000000000E+00 -0.00000000000E+00 -0.45593999997E+02  0.45594000000E+02  0.51100000000E-03 0. -1.
    9900012    2    1    2    0    0 -0.28033365582E+02  0.23220509671E+02  0.23633907587E+02  0.47787271400E+02  0.20000001619E+02 0.  0.
         12    1    1    2    0    0  0.28033365582E+02 -0.23220509671E+02 -0.23633907587E+02  0.43400728600E+02  0.00000000000E+00 0. -1.
         11    1    3    3    0    0 -0.17412083227E+01  0.39345827322E+01  0.14304844218E+01  0.45342070576E+01  0.51100000000E-03 0. -1.
        -11    1    3    3    0    0 -0.28095907449E+02  0.19384524935E+02  0.23120282557E+02  0.41227263893E+02  0.51100000000E-03 0.  1.
        -12    1    3    3    0    0  0.18037501903E+01 -0.98597995627E-01 -0.91685939205E+00  0.20258004488E+01  0.00000000000E+00 0.  1.
</event>
<event>
 7    1  0.2339217E-009  0.4778727E+02  0.7816164E-02  0.1312668E+00
        -11   -1    0    0    0    0  0.00000000000E+00  0.00000000000E+00  0.45593999997E+02  0.45594000000E+02  0.51100000000E-03 0. -1.
         11   -1    0    0    0    0 -0.00000000000E+00 -0.00000000000E+00 -0.45593999997E+02  0.45594000000E+02  0.51100000000E-03 0.  1.
    9900012    2    1    2    0    0 -0.17545576904E+02  0.38215136026E+02  0.10741473113E+02  0.47787272644E+02  0.20000007292E+02 0.  0.
         12    1    1    2    0    0  0.17545576904E+02 -0.38215136026E+02 -0.10741473113E+02  0.43400727356E+02  0.00000000000E+00 0. -1.
         11    1    3    3    0    0 -0.30565049145E+01  0.74993695745E+01  0.51603675358E+01  0.96027162653E+01  0.51100000000E-03 0. -1.
        -11    1    3    3    0    0 -0.57609995493E+01  0.14062972634E+01 -0.26790109764E+01  0.65072181363E+01  0.51100000000E-03 0.  1.
        -12    1    3    3    0    0 -0.87280724399E+01  0.29309469189E+02  0.82601165540E+01  0.31677338242E+02  0.00000000000E+00 0.  1.
</event>
<event>
 7    1  0.2339217E-009  0.4778727E+02  0.7816164E-02  0.1312668E+00
        -11   -1    0    0    0    0  0.00000000000E+00  0.00000000000E+00  0.45593999997E+02  0.45594000000E+02  0.51100000000E-03 0. -1.
         11   -1    0    0    0    0 -0.00000000000E+00 -0.00000000000E+00 -0.45593999997E+02  0.45594000000E+02  0.51100000000E-03 0.  1.
    9900012    2    1    2    0    0  0.36910453440E+02 -0.85559747456E+01 -0.21166884488E+02  0.47787271021E+02  0.19999999892E+02 0.  0.
         12    1    1    2    0    0 -0.36910453440E+02  0.85559747456E+01  0.21166884488E+02  0.43400728979E+02  0.00000000000E+00 0. -1.
         11    1    3    3    0    0  0.20227950154E+02 -0.57517494215E+01 -0.68243354649E+01  0.22109367780E+02  0.51100000000E-03 0. -1.
        -11    1    3    3    0    0  0.13506504439E+02 -0.13425450197E-01 -0.33723312812E+01  0.13921151566E+02  0.51100000000E-03 0.  1.
         12    1    3    3    0    0  0.31759988469E+01 -0.27907998739E+01 -0.10970217742E+02  0.11756751674E+02  0.00000000000E+00 0. -1.
</event>
<event>
 7    1  0.2339217E-009  0.4778728E+02  0.7816164E-02  0.1312668E+00
        -11   -1    0    0    0    0  0.00000000000E+00  0.00000000000E+00  0.45593999997E+02  0.45594000000E+02  0.51100000000E-03 0.  1.
         11   -1    0    0    0    0 -0.00000000000E+00 -0.00000000000E+00 -0.45593999997E+02  0.45594000000E+02  0.51100000000E-03 0. -1.
    9900012    2    1    2    0    0 -0.30254501438E+02  0.30891780549E+02  0.37396684070E+01  0.47787284769E+02  0.20000062576E+02 0.  0.
         12    1    1    2    0    0  0.30254501438E+02 -0.30891780549E+02 -0.37396684070E+01  0.43400715231E+02  0.00000000000E+00 0. -1.
         11    1    3    3    0    0 -0.10450833662E+01  0.12651635118E+01  0.25140630923E+01  0.30022244165E+01  0.51100000000E-03 0. -1.
        -11    1    3    3    0    0  0.19844386480E+01  0.26174710541E+01  0.12738809231E+01  0.35230561071E+01  0.51100000000E-03 0.  1.
        -12    1    3    3    0    0 -0.31193856720E+02  0.27009145983E+02 -0.48275608416E-01  0.41262004245E+02  0.00000000000E+00 0.  1.
</event>
<event>
 7    1  0.2339217E-009  0.4778727E+02  0.7816164E-02  0.1312668E+00
        -11   -1    0    0    0    0  0.00000000000E+00  0.00000000000E+00  0.45593999997E+02  0.45594000000E+02  0.51100000000E-03 0. -1.
         11   -1    0    0    0    0 -0.00000000000E+00 -0.00000000000E+00 -0.45593999997E+02  0.45594000000E+02  0.51100000000E-03 0.  1.
    9900012    2    1    2    0    0  0.24974547560E+02 -0.35417627465E+02  0.23423559173E+01  0.47787274288E+02  0.20000014789E+02 0.  0.
         12    1    1    2    0    0 -0.24974547560E+02  0.35417627465E+02 -0.23423559173E+01  0.43400725712E+02  0.00000000000E+00 0. -1.
         11    1    3    3    0    0  0.45261317187E+01 -0.13314143803E+02  0.55407684128E+01  0.15114642186E+02  0.51100000000E-03 0. -1.
        -11    1    3    3    0    0  0.22127839322E+02 -0.20027952587E+02 -0.29032994282E+01  0.29986485384E+02  0.51100000000E-03 0.  1.
         12    1    3    3    0    0 -0.16794234801E+01 -0.20755310752E+01 -0.29511306734E+00  0.26861467183E+01  0.00000000000E+00 0. -1.
</event>
<event>
 7    1  0.2339217E-009  0.4778727E+02  0.7816164E-02  0.1312668E+00
        -11   -1    0    0    0    0  0.00000000000E+00  0.00000000000E+00  0.45593999997E+02  0.45594000000E+02  0.51100000000E-03 0.  1.
         11   -1    0    0    0    0 -0.00000000000E+00 -0.00000000000E+00 -0.45593999997E+02  0.45594000000E+02  0.51100000000E-03 0. -1.
    9900012    2    1    2    0    0  0.73150276338E+01 -0.11137842062E+02  0.41304503723E+02  0.47787272092E+02  0.20000004778E+02 0.  0.
         12    1    1    2    0    0 -0.73150276338E+01  0.11137842062E+02 -0.41304503723E+02  0.43400727908E+02  0.00000000000E+00 0. -1.
         11    1    3    3    0    0 -0.23906721710E+00 -0.60990365009E+01  0.52694818425E+01  0.80636740089E+01  0.51100000000E-03 0. -1.
        -11    1    3    3    0    0 -0.34509635580E+01 -0.18853738880E+01  0.17514749785E+02  0.17950772810E+02  0.51100000000E-03 0.  1.
         12    1    3    3    0    0  0.11005058409E+02 -0.31534316735E+01  0.18520272095E+02  0.21772825274E+02  0.00000000000E+00 0. -1.
</event>
<event>
 7    1  0.2339217E-009  0.4778727E+02  0.7816164E-02  0.1312668E+00
        -11   -1    0    0    0    0  0.00000000000E+00  0.00000000000E+00  0.45593999997E+02  0.45594000000E+02  0.51100000000E-03 0. -1.
         11   -1    0    0    0    0 -0.00000000000E+00 -0.00000000000E+00 -0.45593999997E+02  0.45594000000E+02  0.51100000000E-03 0.  1.
    9900012    2    1    2    0    0 -0.20812806265E+02  0.15525457730E+02 -0.34776582010E+02  0.47787269607E+02  0.19999993447E+02 0.  0.
         12    1    1    2    0    0  0.20812806265E+02 -0.15525457730E+02  0.34776582010E+02  0.43400730393E+02  0.00000000000E+00 0. -1.
         11    1    3    3    0    0 -0.38261898065E+01 -0.22614661244E+01 -0.38544539816E+01  0.58830921482E+01  0.51100000000E-03 0. -1.
        -11    1    3    3    0    0 -0.18721370585E+02  0.12290759438E+02 -0.22944883652E+02  0.32062753628E+02  0.51100000000E-03 0.  1.
        -12    1    3    3    0    0  0.17347541271E+01  0.54961644163E+01 -0.79772443770E+01  0.98414238311E+01  0.00000000000E+00 0.  1.
</event>
<event>
 7    1  0.2339217E-009  0.4778727E+02  0.7816164E-02  0.1312668E+00
        -11   -1    0    0    0    0  0.00000000000E+00  0.00000000000E+00  0.45593999997E+02  0.45594000000E+02  0.51100000000E-03 0. -1.
         11   -1    0    0    0    0 -0.00000000000E+00 -0.00000000000E+00 -0.45593999997E+02  0.45594000000E+02  0.51100000000E-03 0.  1.
    9900012    2    1    2    0    0 -0.43211766975E+02  0.40251402457E+01  0.40559647161E+00  0.47787273421E+02  0.20000010836E+02 0.  0.
         12    1    1    2    0    0  0.43211766975E+02 -0.40251402457E+01 -0.40559647161E+00  0.43400726579E+02  0.00000000000E+00 0. -1.
         11    1    3    3    0    0 -0.18145166099E+02  0.13578720297E+01 -0.23386923170E+01  0.18345581245E+02  0.51100000000E-03 0. -1.
        -11    1    3    3    0    0 -0.54493893957E+01 -0.32838700719E+01 -0.43964628220E+01  0.77335976777E+01  0.51100000000E-03 0.  1.
         12    1    3    3    0    0 -0.19617211480E+02  0.59511382879E+01  0.71407516106E+01  0.21708094498E+02  0.00000000000E+00 0. -1.
</event>
<event>
 7    1  0.2339217E-009  0.4778727E+02  0.7816164E-02  0.1312668E+00
        -11   -1    0    0    0    0  0.00000000000E+00  0.00000000000E+00  0.45593999997E+02  0.45594000000E+02  0.51100000000E-03 0.  1.
         11   -1    0    0    0    0 -0.00000000000E+00 -0.00000000000E+00 -0.45593999997E+02  0.45594000000E+02  0.51100000000E-03 0. -1.
    9900012    2    1    2    0    0 -0.21301347426E+02 -0.37798525318E+02  0.10711587264E+01  0.47787270750E+02  0.19999998660E+02 0.  0.
         12    1    1    2    0    0  0.21301347426E+02  0.37798525318E+02 -0.10711587264E+01  0.43400729250E+02  0.00000000000E+00 0. -1.
         11    1    3    3    0    0 -0.25093831388E+00 -0.23255138679E+00  0.58182792015E+00  0.67496235055E+00  0.51100000000E-03 0. -1.
        -11    1    3    3    0    0 -0.15827399742E+02 -0.38658878552E+02  0.38465366764E+00  0.41775153287E+02  0.51100000000E-03 0.  1.
        -12    1    3    3    0    0 -0.52230093704E+01  0.10929046207E+01  0.10467713856E+00  0.53371551126E+01  0.00000000000E+00 0.  1.
</event>
<event>
 7    1  0.2339217E-009  0.4778729E+02  0.7816164E-02  0.1312668E+00
        -11   -1    0    0    0    0  0.00000000000E+00  0.00000000000E+00  0.45593999997E+02  0.45594000000E+02  0.51100000000E-03 0. -1.
         11   -1    0    0    0    0 -0.00000000000E+00 -0.00000000000E+00 -0.45593999997E+02  0.45594000000E+02  0.51100000000E-03 0.  1.
    9900012    2    1    2    0    0  0.11416297059E+01  0.42252856432E+02 -0.98495902525E+01  0.47787290062E+02  0.20000086707E+02 0.  0.
         12    1    1    2    0    0 -0.11416297059E+01 -0.42252856432E+02  0.98495902525E+01  0.43400709938E+02  0.00000000000E+00 0. -1.
         11    1    3    3    0    0 -0.22794816605E+01  0.12190386741E+02  0.17889487741E+01  0.12530040045E+02  0.51100000000E-03 0. -1.
        -11    1    3    3    0    0  0.19065968387E+01  0.39318106251E+01  0.29686084750E+01  0.52826965497E+01  0.51100000000E-03 0.  1.
        -12    1    3    3    0    0  0.15145145277E+01  0.26130659065E+02 -0.14607147502E+02  0.29974553467E+02  0.00000000000E+00 0.  1.
</event>
<event>
 7    1  0.2339217E-009  0.4778727E+02  0.7816164E-02  0.1312668E+00
        -11   -1    0    0    0    0  0.00000000000E+00  0.00000000000E+00  0.45593999997E+02  0.45594000000E+02  0.51100000000E-03 0.  1.
         11   -1    0    0    0    0 -0.00000000000E+00 -0.00000000000E+00 -0.45593999997E+02  0.45594000000E+02  0.51100000000E-03 0. -1.
    9900012    2    1    2    0    0  0.24363829226E+02  0.35053544941E+02  0.78279220500E+01  0.47787267851E+02  0.19999985438E+02 0.  0.
         12    1    1    2    0    0 -0.24363829226E+02 -0.35053544941E+02 -0.78279220500E+01  0.43400732149E+02  0.00000000000E+00 0. -1.
         11    1    3    3    0    0  0.91671251483E+01  0.41755265344E+01  0.43944251633E-01  0.10073387547E+02  0.51100000000E-03 0. -1.
        -11    1    3    3    0    0  0.15572032844E+02  0.22673240565E+02  0.98986826463E+01  0.29232652343E+02  0.51100000000E-03 0.  1.
        -12    1    3    3    0    0 -0.37532876663E+00  0.82047778420E+01 -0.21147048479E+01  0.84812279602E+01  0.00000000000E+00 0.  1.
</event>
<event>
 7    1  0.2339217E-009  0.4778732E+02  0.7816164E-02  0.1312668E+00
        -11   -1    0    0    0    0  0.00000000000E+00  0.00000000000E+00  0.45593999997E+02  0.45594000000E+02  0.51100000000E-03 0.  1.
         11   -1    0    0    0    0 -0.00000000000E+00 -0.00000000000E+00 -0.45593999997E+02  0.45594000000E+02  0.51100000000E-03 0. -1.
    9900012    2    1    2    0    0  0.22550314710E+02  0.25696053287E+00  0.37081476812E+02  0.47787324374E+02  0.20000243150E+02 0.  0.
         12    1    1    2    0    0 -0.22550314710E+02 -0.25696053287E+00 -0.37081476812E+02  0.43400675626E+02  0.00000000000E+00 0. -1.
         11    1    3    3    0    0  0.38657150622E+01  0.77023337210E+00  0.89224733971E+01  0.97543602647E+01  0.51100000000E-03 0.  1.
        -11    1    3    3    0    0  0.40081242612E+01  0.39804268183E+01  0.19728127322E+02  0.20520912885E+02  0.51100000000E-03 0. -1.
         12    1    3    3    0    0  0.14676475387E+02 -0.44936996575E+01  0.84308760926E+01  0.17512051224E+02  0.00000000000E+00 0. -1.
</event>
<event>
 7    1  0.2339217E-009  0.4778727E+02  0.7816164E-02  0.1312668E+00
        -11   -1    0    0    0    0  0.00000000000E+00  0.00000000000E+00  0.45593999997E+02  0.45594000000E+02  0.51100000000E-03 0.  1.
         11   -1    0    0    0    0 -0.00000000000E+00 -0.00000000000E+00 -0.45593999997E+02  0.45594000000E+02  0.51100000000E-03 0. -1.
    9900012    2    1    2    0    0  0.10388130219E+01 -0.29382697181E+02  0.31924936495E+02  0.47787267330E+02  0.19999983062E+02 0.  0.
         12    1    1    2    0    0 -0.10388130219E+01  0.29382697181E+02 -0.31924936495E+02  0.43400732670E+02  0.00000000000E+00 0. -1.
         11    1    3    3    0    0  0.30550555396E+01 -0.12788748876E+02  0.18084956482E+02  0.22359586610E+02  0.51100000000E-03 0. -1.
        -11    1    3    3    0    0  0.23121020773E+01 -0.76832954626E+01  0.13267330595E+02  0.15504867189E+02  0.51100000000E-03 0.  1.
         12    1    3    3    0    0 -0.43283445950E+01 -0.89106528421E+01  0.57264941911E+00  0.99228135306E+01  0.00000000000E+00 0. -1.
</event>
<event>
 7    1  0.2339217E-009  0.4778727E+02  0.7816164E-02  0.1312668E+00
        -11   -1    0    0    0    0  0.00000000000E+00  0.00000000000E+00  0.45593999997E+02  0.45594000000E+02  0.51100000000E-03 0.  1.
         11   -1    0    0    0    0 -0.00000000000E+00 -0.00000000000E+00 -0.45593999997E+02  0.45594000000E+02  0.51100000000E-03 0. -1.
    9900012    2    1    2    0    0  0.32877019150E+02  0.16490341527E+02  0.23038952785E+02  0.47787273078E+02  0.20000009274E+02 0.  0.
         12    1    1    2    0    0 -0.32877019150E+02 -0.16490341527E+02 -0.23038952785E+02  0.43400726922E+02  0.00000000000E+00 0. -1.
         11    1    3    3    0    0  0.12796139997E+02  0.36799671852E+01  0.67801107911E+01  0.14941661886E+02  0.51100000000E-03 0. -1.
        -11    1    3    3    0    0  0.15383083431E+02  0.65648156861E+00  0.73532731044E+01  0.17062849982E+02  0.51100000000E-03 0.  1.
        -12    1    3    3    0    0  0.46977957222E+01  0.12153892773E+02  0.89055688898E+01  0.15782761211E+02  0.00000000000E+00 0.  1.
</event>
<event>
 7    1  0.2339217E-009  0.4778728E+02  0.7816164E-02  0.1312668E+00
        -11   -1    0    0    0    0  0.00000000000E+00  0.00000000000E+00  0.45593999997E+02  0.45594000000E+02  0.51100000000E-03 0.  1.
         11   -1    0    0    0    0 -0.00000000000E+00 -0.00000000000E+00 -0.45593999997E+02  0.45594000000E+02  0.51100000000E-03 0. -1.
    9900012    2    1    2    0    0  0.81395036360E+01 -0.32970335896E+02  0.27024579603E+02  0.47787280291E+02  0.20000042157E+02 0.  0.
         12    1    1    2    0    0 -0.81395036360E+01  0.32970335896E+02 -0.27024579603E+02  0.43400719709E+02  0.00000000000E+00 0. -1.
         11    1    3    3    0    0 -0.21454887479E+01 -0.92508409755E+01  0.61609481404E+01  0.11319826102E+02  0.51100000000E-03 0. -1.
        -11    1    3    3    0    0  0.25823054182E+01 -0.11778663303E+02  0.18469694847E+02  0.22057534733E+02  0.51100000000E-03 0.  1.
         12    1    3    3    0    0  0.77026869658E+01 -0.11940831617E+02  0.23939366158E+01  0.14409919456E+02  0.00000000000E+00 0. -1.
</event>
<event>
 7    1  0.2339217E-009  0.4778730E+02  0.7816164E-02  0.1312668E+00
        -11   -1    0    0    0    0  0.00000000000E+00  0.00000000000E+00  0.45593999997E+02  0.45594000000E+02  0.51100000000E-03 0.  1.
         11   -1    0    0    0    0 -0.00000000000E+00 -0.00000000000E+00 -0.45593999997E+02  0.45594000000E+02  0.51100000000E-03 0. -1.
    9900012    2    1    2    0    0  0.31934971876E+02 -0.25076117106E+02  0.15328616042E+02  0.47787302452E+02  0.20000143201E+02 0.  0.
         12    1    1    2    0    0 -0.31934971876E+02  0.25076117106E+02 -0.15328616042E+02  0.43400697548E+02  0.00000000000E+00 0. -1.
         11    1    3    3    0    0  0.14174765153E+02 -0.12482320068E+02  0.10463017442E+02  0.21591827520E+02  0.51100000000E-03 0. -1.
        -11    1    3    3    0    0  0.76190072531E+01 -0.58381735967E+01  0.91674117522E+01  0.13273092366E+02  0.51100000000E-03 0.  1.
         12    1    3    3    0    0  0.10141199470E+02 -0.67556234416E+01 -0.43018131521E+01  0.12922382566E+02  0.00000000000E+00 0. -1.
</event>
<event>
 7    1  0.2339217E-009  0.4778727E+02  0.7816164E-02  0.1312668E+00
        -11   -1    0    0    0    0  0.00000000000E+00  0.00000000000E+00  0.45593999997E+02  0.45594000000E+02  0.51100000000E-03 0. -1.
         11   -1    0    0    0    0 -0.00000000000E+00 -0.00000000000E+00 -0.45593999997E+02  0.45594000000E+02  0.51100000000E-03 0.  1.
    9900012    2    1    2    0    0  0.43396841776E+02 -0.58008051514E+00  0.23853680072E-01  0.47787274907E+02  0.20000017613E+02 0.  0.
         12    1    1    2    0    0 -0.43396841776E+02  0.58008051514E+00 -0.23853680072E-01  0.43400725093E+02  0.00000000000E+00 0. -1.
         11    1    3    3    0    0  0.10598718084E+02  0.21876145130E+01 -0.54808137808E+01  0.12130861562E+02  0.51100000000E-03 0. -1.
        -11    1    3    3    0    0  0.82775000903E+01 -0.32417904262E+01 -0.34668779386E+01  0.95417742488E+01  0.51100000000E-03 0.  1.
        -12    1    3    3    0    0  0.24520623602E+02  0.47409539803E+00  0.89715453995E+01  0.26114639096E+02  0.00000000000E+00 0.  1.
</event>
<event>
 7    1  0.2339217E-009  0.4778727E+02  0.7816164E-02  0.1312668E+00
        -11   -1    0    0    0    0  0.00000000000E+00  0.00000000000E+00  0.45593999997E+02  0.45594000000E+02  0.51100000000E-03 0.  1.
         11   -1    0    0    0    0 -0.00000000000E+00 -0.00000000000E+00 -0.45593999997E+02  0.45594000000E+02  0.51100000000E-03 0. -1.
    9900012    2    1    2    0    0 -0.12003754739E+02 -0.81088255682E-01  0.41707633917E+02  0.47787269244E+02  0.19999991793E+02 0.  0.
         12    1    1    2    0    0  0.12003754739E+02  0.81088255682E-01 -0.41707633917E+02  0.43400730756E+02  0.00000000000E+00 0. -1.
         11    1    3    3    0    0  0.21126017330E+00 -0.38908086882E+00  0.12374884072E+01  0.13143030862E+01  0.51100000000E-03 0. -1.
        -11    1    3    3    0    0 -0.78849352723E+01 -0.52855477237E+01  0.37699128995E+02  0.38875873575E+02  0.51100000000E-03 0.  1.
         12    1    3    3    0    0 -0.43300796402E+01  0.55935403368E+01  0.27710165154E+01  0.75970925833E+01  0.00000000000E+00 0. -1.
</event>
<event>
 7    1  0.2339217E-009  0.4778724E+02  0.7816164E-02  0.1312668E+00
        -11   -1    0    0    0    0  0.00000000000E+00  0.00000000000E+00  0.45593999997E+02  0.45594000000E+02  0.51100000000E-03 0.  1.
         11   -1    0    0    0    0 -0.00000000000E+00 -0.00000000000E+00 -0.45593999997E+02  0.45594000000E+02  0.51100000000E-03 0. -1.
    9900012    2    1    2    0    0 -0.23478294323E+02 -0.15156598518E+01  0.36470510694E+02  0.47787243331E+02  0.19999873645E+02 0.  0.
         12    1    1    2    0    0  0.23478294323E+02  0.15156598518E+01 -0.36470510694E+02  0.43400756669E+02  0.00000000000E+00 0. -1.
         11    1    3    3    0    0 -0.25126829055E+02  0.24718101963E+00  0.34486372105E+02  0.42669995289E+02  0.51100000000E-03 0.  1.
        -11    1    3    3    0    0 -0.82868523489E+00  0.19990910924E+00 -0.59362412287E+00  0.10387842562E+01  0.51100000000E-03 0. -1.
        -12    1    3    3    0    0  0.24772199666E+01 -0.19627499807E+01  0.25777627127E+01  0.40784637859E+01  0.00000000000E+00 0.  1.
</event>
<event>
 7    1  0.2339217E-009  0.4778727E+02  0.7816164E-02  0.1312668E+00
        -11   -1    0    0    0    0  0.00000000000E+00  0.00000000000E+00  0.45593999997E+02  0.45594000000E+02  0.51100000000E-03 0.  1.
         11   -1    0    0    0    0 -0.00000000000E+00 -0.00000000000E+00 -0.45593999997E+02  0.45594000000E+02  0.51100000000E-03 0. -1.
    9900012    2    1    2    0    0  0.35685955240E+02  0.61923337754E+01  0.23912151559E+02  0.47787269694E+02  0.19999993841E+02 0.  0.
         12    1    1    2    0    0 -0.35685955240E+02 -0.61923337754E+01 -0.23912151559E+02  0.43400730306E+02  0.00000000000E+00 0. -1.
         11    1    3    3    0    0  0.12052824991E+01 -0.24740577157E+01  0.37120715616E+00  0.27769520156E+01  0.51100000000E-03 0. -1.
        -11    1    3    3    0    0  0.26478468051E+01  0.53072831513E+01  0.14138265598E+01  0.60973152251E+01  0.51100000000E-03 0.  1.
        -12    1    3    3    0    0  0.31832825935E+02  0.33591083397E+01  0.22127117843E+02  0.38913002453E+02  0.00000000000E+00 0.  1.
</event>
<event>
 7    1  0.2339217E-009  0.4778727E+02  0.7816164E-02  0.1312668E+00
        -11   -1    0    0    0    0  0.00000000000E+00  0.00000000000E+00  0.45593999997E+02  0.45594000000E+02  0.51100000000E-03 0.  1.
         11   -1    0    0    0    0 -0.00000000000E+00 -0.00000000000E+00 -0.45593999997E+02  0.45594000000E+02  0.51100000000E-03 0. -1.
    9900012    2    1    2    0    0 -0.95646047013E+01  0.10622861045E+02  0.40979218505E+02  0.47787272020E+02  0.20000004449E+02 0.  0.
         12    1    1    2    0    0  0.95646047013E+01 -0.10622861045E+02 -0.40979218505E+02  0.43400727980E+02  0.00000000000E+00 0. -1.
         11    1    3    3    0    0 -0.48519766123E+01 -0.33165744252E+00  0.22294627538E+01  0.53499699193E+01  0.51100000000E-03 0. -1.
        -11    1    3    3    0    0 -0.37053882255E+01 -0.15277216204E+01  0.48101598541E+01  0.62611079957E+01  0.51100000000E-03 0.  1.
        -12    1    3    3    0    0 -0.10072398636E+01  0.12482240108E+02  0.33939595897E+02  0.36176194105E+02  0.00000000000E+00 0.  1.
</event>
<event>
 7    1  0.2339217E-009  0.4778727E+02  0.7816164E-02  0.1312668E+00
        -11   -1    0    0    0    0  0.00000000000E+00  0.00000000000E+00  0.45593999997E+02  0.45594000000E+02  0.51100000000E-03 0.  1.
         11   -1    0    0    0    0 -0.00000000000E+00 -0.00000000000E+00 -0.45593999997E+02  0.45594000000E+02  0.51100000000E-03 0. -1.
    9900012    2    1    2    0    0 -0.34863707471E+02  0.20709014683E+02  0.15468742631E+02  0.47787269749E+02  0.19999994094E+02 0.  0.
         12    1    1    2    0    0  0.34863707471E+02 -0.20709014683E+02 -0.15468742631E+02  0.43400730251E+02  0.00000000000E+00 0. -1.
         11    1    3    3    0    0 -0.21781114430E+02  0.65959686918E+01  0.91855424539E+00  0.22776467921E+02  0.51100000000E-03 0. -1.
        -11    1    3    3    0    0 -0.34562336357E+01  0.93324348774E+00  0.48385117152E+01  0.60189442788E+01  0.51100000000E-03 0.  1.
        -12    1    3    3    0    0 -0.96263594048E+01  0.13179802503E+02  0.97116766705E+01  0.18991857549E+02  0.00000000000E+00 0.  1.
</event>
<event>
 7    1  0.2339217E-009  0.4778729E+02  0.7816164E-02  0.1312668E+00
        -11   -1    0    0    0    0  0.00000000000E+00  0.00000000000E+00  0.45593999997E+02  0.45594000000E+02  0.51100000000E-03 0.  1.
         11   -1    0    0    0    0 -0.00000000000E+00 -0.00000000000E+00 -0.45593999997E+02  0.45594000000E+02  0.51100000000E-03 0. -1.
    9900012    2    1    2    0    0  0.16906074822E+02 -0.14323042534E+02  0.37318318885E+02  0.47787287590E+02  0.20000075439E+02 0.  0.
         12    1    1    2    0    0 -0.16906074822E+02  0.14323042534E+02 -0.37318318885E+02  0.43400712410E+02  0.00000000000E+00 0. -1.
         11    1    3    3    0    0  0.53376533428E+00 -0.93994072168E+01  0.15385729193E+02  0.18037583666E+02  0.51100000000E-03 0. -1.
        -11    1    3    3    0    0  0.11661453175E+01 -0.18084217300E+01  0.98419926771E+01  0.10074477861E+02  0.51100000000E-03 0.  1.
         12    1    3    3    0    0  0.15206164170E+02 -0.31152135874E+01  0.12090597014E+02  0.19675226063E+02  0.00000000000E+00 0. -1.
</event>
<event>
 7    1  0.2339217E-009  0.4778727E+02  0.7816164E-02  0.1312668E+00
        -11   -1    0    0    0    0  0.00000000000E+00  0.00000000000E+00  0.45593999997E+02  0.45594000000E+02  0.51100000000E-03 0.  1.
         11   -1    0    0    0    0 -0.00000000000E+00 -0.00000000000E+00 -0.45593999997E+02  0.45594000000E+02  0.51100000000E-03 0. -1.
    9900012    2    1    2    0    0  0.39955987631E+02 -0.53338867697E+01  0.16083909684E+02  0.47787269057E+02  0.19999990940E+02 0.  0.
         12    1    1    2    0    0 -0.39955987631E+02  0.53338867697E+01 -0.16083909684E+02  0.43400730943E+02  0.00000000000E+00 0. -1.
         11    1    3    3    0    0  0.20055045605E+02  0.16241502989E+01  0.45594926647E+01  0.20630843222E+02  0.51100000000E-03 0. -1.
        -11    1    3    3    0    0  0.19305622489E+02 -0.56103514502E+01  0.53434568319E+01  0.20802298773E+02  0.51100000000E-03 0.  1.
         12    1    3    3    0    0  0.59531953650E+00 -0.13476856184E+01  0.61809601877E+01  0.63541270619E+01  0.00000000000E+00 0. -1.
</event>
<event>
 7    1  0.2339217E-009  0.4778727E+02  0.7816164E-02  0.1312668E+00
        -11   -1    0    0    0    0  0.00000000000E+00  0.00000000000E+00  0.45593999997E+02  0.45594000000E+02  0.51100000000E-03 0.  1.
         11   -1    0    0    0    0 -0.00000000000E+00 -0.00000000000E+00 -0.45593999997E+02  0.45594000000E+02  0.51100000000E-03 0. -1.
    9900012    2    1    2    0    0 -0.11335322037E+01 -0.41012986216E+02  0.14151795684E+02  0.47787271265E+02  0.20000001005E+02 0.  0.
         12    1    1    2    0    0  0.11335322037E+01  0.41012986216E+02 -0.14151795684E+02  0.43400728735E+02  0.00000000000E+00 0. -1.
         11    1    3    3    0    0  0.12356858008E+01 -0.11942314334E+01 -0.35265268021E+01  0.39229452790E+01  0.51100000000E-03 0. -1.
        -11    1    3    3    0    0 -0.31995384654E+00 -0.19267498169E+02  0.62402285932E+01  0.20255352609E+02  0.51100000000E-03 0.  1.
         12    1    3    3    0    0 -0.20492641579E+01 -0.20551256614E+02  0.11438093893E+02  0.23608973377E+02  0.00000000000E+00 0. -1.
</event>
<event>
 7    1  0.2339217E-009  0.4778728E+02  0.7816164E-02  0.1312668E+00
        -11   -1    0    0    0    0  0.00000000000E+00  0.00000000000E+00  0.45593999997E+02  0.45594000000E+02  0.51100000000E-03 0.  1.
         11   -1    0    0    0    0 -0.00000000000E+00 -0.00000000000E+00 -0.45593999997E+02  0.45594000000E+02  0.51100000000E-03 0. -1.
    9900012    2    1    2    0    0  0.75612902525E+01  0.19051772702E+02  0.38255443419E+02  0.47787284516E+02  0.20000061421E+02 0.  0.
         12    1    1    2    0    0 -0.75612902525E+01 -0.19051772702E+02 -0.38255443419E+02  0.43400715484E+02  0.00000000000E+00 0. -1.
         11    1    3    3    0    0  0.71416783405E+00  0.51779164792E+01  0.12398970317E+01  0.53719828436E+01  0.51100000000E-03 0. -1.
        -11    1    3    3    0    0  0.45004379412E+01  0.12065494519E+02  0.13290068710E+02  0.18505567439E+02  0.51100000000E-03 0.  1.
         12    1    3    3    0    0  0.23466844773E+01  0.18083617029E+01  0.23725477678E+02  0.23909734234E+02  0.00000000000E+00 0. -1.
</event>
<event>
 7    1  0.2339217E-009  0.4778727E+02  0.7816164E-02  0.1312668E+00
        -11   -1    0    0    0    0  0.00000000000E+00  0.00000000000E+00  0.45593999997E+02  0.45594000000E+02  0.51100000000E-03 0. -1.
         11   -1    0    0    0    0 -0.00000000000E+00 -0.00000000000E+00 -0.45593999997E+02  0.45594000000E+02  0.51100000000E-03 0.  1.
    9900012    2    1    2    0    0  0.46245874265E+01 -0.71210376095E+00 -0.43147764335E+02  0.47787268811E+02  0.19999989815E+02 0.  0.
         12    1    1    2    0    0 -0.46245874265E+01  0.71210376095E+00  0.43147764335E+02  0.43400731189E+02  0.00000000000E+00 0. -1.
         11    1    3    3    0    0 -0.20476233509E+01  0.21151643030E+00 -0.36578811045E+01  0.41973318934E+01  0.51100000000E-03 0. -1.
        -11    1    3    3    0    0  0.78144788938E+01 -0.50371956289E+01 -0.94809684149E+01  0.13278862245E+02  0.51100000000E-03 0.  1.
         12    1    3    3    0    0 -0.11422681165E+01  0.41135754377E+01 -0.30008914816E+02  0.30311074672E+02  0.00000000000E+00 0. -1.
</event>
<event>
 7    1  0.2339217E-009  0.4778727E+02  0.7816164E-02  0.1312668E+00
        -11   -1    0    0    0    0  0.00000000000E+00  0.00000000000E+00  0.45593999997E+02  0.45594000000E+02  0.51100000000E-03 0.  1.
         11   -1    0    0    0    0 -0.00000000000E+00 -0.00000000000E+00 -0.45593999997E+02  0.45594000000E+02  0.51100000000E-03 0. -1.
    9900012    2    1    2    0    0 -0.32403121310E+02  0.34870931793E+01  0.28661842002E+02  0.47787271015E+02  0.19999999866E+02 0.  0.
         12    1    1    2    0    0  0.32403121310E+02 -0.34870931793E+01 -0.28661842002E+02  0.43400728985E+02  0.00000000000E+00 0. -1.
         11    1    3    3    0    0 -0.21283058056E+01  0.46051659600E+01  0.69691064544E+01  0.86200744866E+01  0.51100000000E-03 0. -1.
        -11    1    3    3    0    0 -0.12307048410E+02  0.15657485270E+01  0.15757235758E+02  0.20055061407E+02  0.51100000000E-03 0.  1.
        -12    1    3    3    0    0 -0.17967767094E+02 -0.26838213076E+01  0.59354997893E+01  0.19112135122E+02  0.00000000000E+00 0.  1.
</event>
<event>
 7    1  0.2339217E-009  0.4778727E+02  0.7816164E-02  0.1312668E+00
        -11   -1    0    0    0    0  0.00000000000E+00  0.00000000000E+00  0.45593999997E+02  0.45594000000E+02  0.51100000000E-03 0.  1.
         11   -1    0    0    0    0 -0.00000000000E+00 -0.00000000000E+00 -0.45593999997E+02  0.45594000000E+02  0.51100000000E-03 0. -1.
    9900012    2    1    2    0    0  0.91163611102E+01  0.39886668453E+02 -0.14476499767E+02  0.47787269526E+02  0.19999993078E+02 0.  0.
         12    1    1    2    0    0 -0.91163611102E+01 -0.39886668453E+02  0.14476499767E+02  0.43400730474E+02  0.00000000000E+00 0. -1.
         11    1    3    3    0    0 -0.33766855565E+01  0.23980498076E+02 -0.10615391335E+02  0.26441498195E+02  0.51100000000E-03 0. -1.
        -11    1    3    3    0    0  0.89425871755E+01  0.12404320875E+02 -0.52521297426E+01  0.16168546900E+02  0.51100000000E-03 0.  1.
         12    1    3    3    0    0  0.35504594911E+01  0.35018495015E+01  0.13910213101E+01  0.51772244315E+01  0.00000000000E+00 0. -1.
</event>
<event>
 7    1  0.2339217E-009  0.4778727E+02  0.7816164E-02  0.1312668E+00
        -11   -1    0    0    0    0  0.00000000000E+00  0.00000000000E+00  0.45593999997E+02  0.45594000000E+02  0.51100000000E-03 0.  1.
         11   -1    0    0    0    0 -0.00000000000E+00 -0.00000000000E+00 -0.45593999997E+02  0.45594000000E+02  0.51100000000E-03 0. -1.
    9900012    2    1    2    0    0 -0.10893542649E+02  0.25479060207E+02  0.33403165019E+02  0.47787271737E+02  0.20000003157E+02 0.  0.
         12    1    1    2    0    0  0.10893542649E+02 -0.25479060207E+02 -0.33403165019E+02  0.43400728263E+02  0.00000000000E+00 0. -1.
         11    1    3    3    0    0 -0.29749781767E+01  0.47696449645E+01  0.26475850868E+00  0.56276198848E+01  0.51100000000E-03 0. -1.
        -11    1    3    3    0    0 -0.77712488303E+01  0.16401983329E+02  0.15089197896E+02  0.23602992584E+02  0.51100000000E-03 0.  1.
        -12    1    3    3    0    0 -0.14731564228E+00  0.43074319137E+01  0.18049208614E+02  0.18556659268E+02  0.00000000000E+00 0.  1.
</event>
<event>
 7    1  0.2339217E-009  0.4778727E+02  0.7816164E-02  0.1312668E+00
        -11   -1    0    0    0    0  0.00000000000E+00  0.00000000000E+00  0.45593999997E+02  0.45594000000E+02  0.51100000000E-03 0.  1.
         11   -1    0    0    0    0 -0.00000000000E+00 -0.00000000000E+00 -0.45593999997E+02  0.45594000000E+02  0.51100000000E-03 0. -1.
    9900012    2    1    2    0    0 -0.32162838124E+02  0.30518400636E+01  0.28980365628E+02  0.47787268717E+02  0.19999989387E+02 0.  0.
         12    1    1    2    0    0  0.32162838124E+02 -0.30518400636E+01 -0.28980365628E+02  0.43400731283E+02  0.00000000000E+00 0. -1.
         11    1    3    3    0    0 -0.29239627547E+01  0.11439275407E+00  0.72739185041E+01  0.78404422425E+01  0.51100000000E-03 0. -1.
        -11    1    3    3    0    0  0.17774467533E+01 -0.11107977819E+01  0.49507688772E+00  0.21536689762E+01  0.51100000000E-03 0.  1.
        -12    1    3    3    0    0 -0.31016322123E+02  0.40482450915E+01  0.21211370237E+02  0.37793157498E+02  0.00000000000E+00 0.  1.
</event>
<event>
 7    1  0.2339217E-009  0.4778727E+02  0.7816164E-02  0.1312668E+00
        -11   -1    0    0    0    0  0.00000000000E+00  0.00000000000E+00  0.45593999997E+02  0.45594000000E+02  0.51100000000E-03 0.  1.
         11   -1    0    0    0    0 -0.00000000000E+00 -0.00000000000E+00 -0.45593999997E+02  0.45594000000E+02  0.51100000000E-03 0. -1.
    9900012    2    1    2    0    0  0.30529974501E+02 -0.26201384181E+02  0.16279798312E+02  0.47787266031E+02  0.19999977140E+02 0.  0.
         12    1    1    2    0    0 -0.30529974501E+02  0.26201384181E+02 -0.16279798312E+02  0.43400733969E+02  0.00000000000E+00 0. -1.
         11    1    3    3    0    0  0.23216138604E+01 -0.15072679308E+00 -0.16508242864E+00  0.23323511640E+01  0.51100000000E-03 0. -1.
        -11    1    3    3    0    0  0.22734395406E+02 -0.12217814697E+02  0.16398293085E+02  0.30578288815E+02  0.51100000000E-03 0.  1.
        -12    1    3    3    0    0  0.54739652337E+01 -0.13832842690E+02  0.46587655605E-01  0.14876626052E+02  0.00000000000E+00 0.  1.
</event>
<event>
 7    1  0.2339217E-009  0.4778727E+02  0.7816164E-02  0.1312668E+00
        -11   -1    0    0    0    0  0.00000000000E+00  0.00000000000E+00  0.45593999997E+02  0.45594000000E+02  0.51100000000E-03 0.  1.
         11   -1    0    0    0    0 -0.00000000000E+00 -0.00000000000E+00 -0.45593999997E+02  0.45594000000E+02  0.51100000000E-03 0. -1.
    9900012    2    1    2    0    0 -0.15672224647E+02 -0.37244330600E+02  0.15838699950E+02  0.47787271857E+02  0.20000003705E+02 0.  0.
         12    1    1    2    0    0  0.15672224647E+02  0.37244330600E+02 -0.15838699950E+02  0.43400728143E+02  0.00000000000E+00 0. -1.
         11    1    3    3    0    0 -0.92633530898E+01 -0.17826947464E+02  0.35392162257E+01  0.20399407297E+02  0.51100000000E-03 0. -1.
        -11    1    3    3    0    0 -0.60798397709E+01 -0.85512011091E+01 -0.61094251329E+00  0.10510030593E+02  0.51100000000E-03 0.  1.
         12    1    3    3    0    0 -0.32903178640E+00 -0.10866182027E+02  0.12910426238E+02  0.16877833967E+02  0.00000000000E+00 0. -1.
</event>
<event>
 7    1  0.2339217E-009  0.4778727E+02  0.7816164E-02  0.1312668E+00
        -11   -1    0    0    0    0  0.00000000000E+00  0.00000000000E+00  0.45593999997E+02  0.45594000000E+02  0.51100000000E-03 0. -1.
         11   -1    0    0    0    0 -0.00000000000E+00 -0.00000000000E+00 -0.45593999997E+02  0.45594000000E+02  0.51100000000E-03 0.  1.
    9900012    2    1    2    0    0 -0.21874575937E+02  0.29103694966E+02 -0.23624163072E+02  0.47787271735E+02  0.20000003149E+02 0.  0.
         12    1    1    2    0    0  0.21874575937E+02 -0.29103694966E+02  0.23624163072E+02  0.43400728265E+02  0.00000000000E+00 0. -1.
         11    1    3    3    0    0 -0.22449754202E+01  0.64014111044E+01 -0.80168068486E+00  0.68308616548E+01  0.51100000000E-03 0. -1.
        -11    1    3    3    0    0 -0.72165693735E+01  0.16056678062E+02 -0.51121245135E+01  0.18331110202E+02  0.51100000000E-03 0.  1.
        -12    1    3    3    0    0 -0.12413031143E+02  0.66456057991E+01 -0.17710357873E+02  0.22625299879E+02  0.00000000000E+00 0.  1.
</event>
<event>
 7    1  0.2339217E-009  0.4778727E+02  0.7816164E-02  0.1312668E+00
        -11   -1    0    0    0    0  0.00000000000E+00  0.00000000000E+00  0.45593999997E+02  0.45594000000E+02  0.51100000000E-03 0. -1.
         11   -1    0    0    0    0 -0.00000000000E+00 -0.00000000000E+00 -0.45593999997E+02  0.45594000000E+02  0.51100000000E-03 0.  1.
    9900012    2    1    2    0    0 -0.16878406393E+02  0.39152951059E+02 -0.81110381678E+01  0.47787272827E+02  0.20000008128E+02 0.  0.
         12    1    1    2    0    0  0.16878406393E+02 -0.39152951059E+02  0.81110381678E+01  0.43400727173E+02  0.00000000000E+00 0. -1.
         11    1    3    3    0    0 -0.47879740245E+01  0.14146448659E+01 -0.18946430462E+00  0.49961797746E+01  0.51100000000E-03 0. -1.
        -11    1    3    3    0    0 -0.12997382516E+02  0.21563142812E+02 -0.85187880050E+01  0.26579518986E+02  0.51100000000E-03 0.  1.
         12    1    3    3    0    0  0.90695014834E+00  0.16175163381E+02  0.59721414175E+00  0.16211574066E+02  0.00000000000E+00 0. -1.
</event>
<event>
 7    1  0.2339217E-009  0.4778728E+02  0.7816164E-02  0.1312668E+00
        -11   -1    0    0    0    0  0.00000000000E+00  0.00000000000E+00  0.45593999997E+02  0.45594000000E+02  0.51100000000E-03 0. -1.
         11   -1    0    0    0    0 -0.00000000000E+00 -0.00000000000E+00 -0.45593999997E+02  0.45594000000E+02  0.51100000000E-03 0.  1.
    9900012    2    1    2    0    0  0.39089031367E+02  0.16996111173E+02  0.81732932004E+01  0.47787275467E+02  0.20000020166E+02 0.  0.
         12    1    1    2    0    0 -0.39089031367E+02 -0.16996111173E+02 -0.81732932004E+01  0.43400724533E+02  0.00000000000E+00 0. -1.
         11    1    3    3    0    0 -0.19368984673E+01  0.56171889053E-01  0.18987656328E+01  0.27129397603E+01  0.51100000000E-03 0. -1.
        -11    1    3    3    0    0  0.83056170621E+01  0.55371258882E+01  0.11840644636E+01  0.10052116533E+02  0.51100000000E-03 0.  1.
        -12    1    3    3    0    0  0.32720312772E+02  0.11402813396E+02  0.50904631040E+01  0.35022219174E+02  0.00000000000E+00 0.  1.
</event>
<event>
 7    1  0.2339217E-009  0.4778724E+02  0.7816164E-02  0.1312668E+00
        -11   -1    0    0    0    0  0.00000000000E+00  0.00000000000E+00  0.45593999997E+02  0.45594000000E+02  0.51100000000E-03 0.  1.
         11   -1    0    0    0    0 -0.00000000000E+00 -0.00000000000E+00 -0.45593999997E+02  0.45594000000E+02  0.51100000000E-03 0. -1.
    9900012    2    1    2    0    0  0.32045272614E+02  0.55303406799E+01  0.28742685666E+02  0.47787237976E+02  0.19999849229E+02 0.  0.
         12    1    1    2    0    0 -0.32045272614E+02 -0.55303406799E+01 -0.28742685666E+02  0.43400762024E+02  0.00000000000E+00 0. -1.
         11    1    3    3    0    0  0.68433810553E+01  0.23748650425E+01  0.85820882536E+01  0.11230498087E+02  0.51100000000E-03 0. -1.
        -11    1    3    3    0    0  0.19692940837E+02  0.54251889350E+01  0.22285862575E+02  0.30230849554E+02  0.51100000000E-03 0.  1.
         12    1    3    3    0    0  0.55089507218E+01 -0.22697132976E+01 -0.21252651632E+01  0.63258903344E+01  0.00000000000E+00 0. -1.
</event>
<event>
 7    1  0.2339217E-009  0.4778727E+02  0.7816164E-02  0.1312668E+00
        -11   -1    0    0    0    0  0.00000000000E+00  0.00000000000E+00  0.45593999997E+02  0.45594000000E+02  0.51100000000E-03 0.  1.
         11   -1    0    0    0    0 -0.00000000000E+00 -0.00000000000E+00 -0.45593999997E+02  0.45594000000E+02  0.51100000000E-03 0. -1.
    9900012    2    1    2    0    0 -0.24069186008E+02  0.25365393024E+02  0.25707871890E+02  0.47787267801E+02  0.19999985211E+02 0.  0.
         12    1    1    2    0    0  0.24069186008E+02 -0.25365393024E+02 -0.25707871890E+02  0.43400732199E+02  0.00000000000E+00 0. -1.
         11    1    3    3    0    0  0.19607530318E+01  0.39304854512E+01 -0.63279252530E-01  0.43928661326E+01  0.51100000000E-03 0. -1.
        -11    1    3    3    0    0 -0.39512367321E+01  0.12810607936E+00  0.13446103984E+01  0.41757227237E+01  0.51100000000E-03 0.  1.
        -12    1    3    3    0    0 -0.22078702307E+02  0.21306801493E+02  0.24426540744E+02  0.39218678945E+02  0.00000000000E+00 0.  1.
</event>
<event>
 7    1  0.2339217E-009  0.4778727E+02  0.7816164E-02  0.1312668E+00
        -11   -1    0    0    0    0  0.00000000000E+00  0.00000000000E+00  0.45593999997E+02  0.45594000000E+02  0.51100000000E-03 0.  1.
         11   -1    0    0    0    0 -0.00000000000E+00 -0.00000000000E+00 -0.45593999997E+02  0.45594000000E+02  0.51100000000E-03 0. -1.
    9900012    2    1    2    0    0 -0.23845040045E+02 -0.35914776858E+02 -0.50166186608E+01  0.47787267353E+02  0.19999983172E+02 0.  0.
         12    1    1    2    0    0  0.23845040045E+02  0.35914776858E+02  0.50166186608E+01  0.43400732647E+02  0.00000000000E+00 0. -1.
         11    1    3    3    0    0 -0.11157804292E+02 -0.12583559649E+02 -0.37123262338E+01  0.17222773772E+02  0.51100000000E-03 0.  1.
        -11    1    3    3    0    0 -0.14767822383E+02 -0.22453527955E+02 -0.38640419092E+01  0.27151064725E+02  0.51100000000E-03 0. -1.
         12    1    3    3    0    0  0.20805866297E+01 -0.87768925279E+00  0.25597494822E+01  0.34134288567E+01  0.00000000000E+00 0. -1.
</event>
<event>
 7    1  0.2339217E-009  0.4778728E+02  0.7816164E-02  0.1312668E+00
        -11   -1    0    0    0    0  0.00000000000E+00  0.00000000000E+00  0.45593999997E+02  0.45594000000E+02  0.51100000000E-03 0. -1.
         11   -1    0    0    0    0 -0.00000000000E+00 -0.00000000000E+00 -0.45593999997E+02  0.45594000000E+02  0.51100000000E-03 0.  1.
    9900012    2    1    2    0    0 -0.39561655603E+02  0.15841505469E+02 -0.82185644439E+01  0.47787277758E+02  0.20000030611E+02 0.  0.
         12    1    1    2    0    0  0.39561655603E+02 -0.15841505469E+02  0.82185644439E+01  0.43400722242E+02  0.00000000000E+00 0. -1.
         11    1    3    3    0    0 -0.16924412894E+02  0.66414722338E+01  0.36504625039E+01  0.18543753180E+02  0.51100000000E-03 0. -1.
        -11    1    3    3    0    0 -0.71044111382E+01  0.76101372637E+01 -0.15447279941E+01  0.10524876799E+02  0.51100000000E-03 0.  1.
         12    1    3    3    0    0 -0.15532831571E+02  0.15898959719E+01 -0.10324298954E+02  0.18718647779E+02  0.00000000000E+00 0. -1.
</event>
<event>
 7    1  0.2339217E-009  0.4778727E+02  0.7816164E-02  0.1312668E+00
        -11   -1    0    0    0    0  0.00000000000E+00  0.00000000000E+00  0.45593999997E+02  0.45594000000E+02  0.51100000000E-03 0.  1.
         11   -1    0    0    0    0 -0.00000000000E+00 -0.00000000000E+00 -0.45593999997E+02  0.45594000000E+02  0.51100000000E-03 0. -1.
    9900012    2    1    2    0    0 -0.10530706584E+02  0.20660093154E+02  0.36686349252E+02  0.47787268995E+02  0.19999990657E+02 0.  0.
         12    1    1    2    0    0  0.10530706584E+02 -0.20660093154E+02 -0.36686349252E+02  0.43400731005E+02  0.00000000000E+00 0. -1.
         11    1    3    3    0    0 -0.26850178091E+01  0.11123061850E+02  0.42429380750E+01  0.12203866163E+02  0.51100000000E-03 0.  1.
        -11    1    3    3    0    0 -0.68039439296E+01  0.25251419035E+01  0.13008248196E+02  0.14895788533E+02  0.51100000000E-03 0. -1.
        -12    1    3    3    0    0 -0.10417448455E+01  0.70118894009E+01  0.19435162981E+02  0.20687614299E+02  0.00000000000E+00 0.  1.
</event>
<event>
 7    1  0.2339217E-009  0.4778726E+02  0.7816164E-02  0.1312668E+00
        -11   -1    0    0    0    0  0.00000000000E+00  0.00000000000E+00  0.45593999997E+02  0.45594000000E+02  0.51100000000E-03 0.  1.
         11   -1    0    0    0    0 -0.00000000000E+00 -0.00000000000E+00 -0.45593999997E+02  0.45594000000E+02  0.51100000000E-03 0. -1.
    9900012    2    1    2    0    0  0.60587113563E+01 -0.15049467067E+02  0.40254561303E+02  0.47787260974E+02  0.19999954084E+02 0.  0.
         12    1    1    2    0    0 -0.60587113563E+01  0.15049467067E+02 -0.40254561303E+02  0.43400739026E+02  0.00000000000E+00 0. -1.
         11    1    3    3    0    0  0.37177164585E+01  0.18309603284E+01  0.24744657178E+01  0.48266771427E+01  0.51100000000E-03 0. -1.
        -11    1    3    3    0    0  0.60743914018E+01 -0.51410165525E+01  0.17637183855E+02  0.19349380783E+02  0.51100000000E-03 0.  1.
        -12    1    3    3    0    0 -0.37333965040E+01 -0.11739410843E+02  0.20142911730E+02  0.23611203048E+02  0.00000000000E+00 0.  1.
</event>
<event>
 7    1  0.2339217E-009  0.4778728E+02  0.7816164E-02  0.1312668E+00
        -11   -1    0    0    0    0  0.00000000000E+00  0.00000000000E+00  0.45593999997E+02  0.45594000000E+02  0.51100000000E-03 0.  1.
         11   -1    0    0    0    0 -0.00000000000E+00 -0.00000000000E+00 -0.45593999997E+02  0.45594000000E+02  0.51100000000E-03 0. -1.
    9900012    2    1    2    0    0  0.11944975977E+02 -0.20078854529E+02  0.36575673821E+02  0.47787276898E+02  0.20000026690E+02 0.  0.
         12    1    1    2    0    0 -0.11944975977E+02  0.20078854529E+02 -0.36575673821E+02  0.43400723102E+02  0.00000000000E+00 0. -1.
         11    1    3    3    0    0  0.35609277609E+00  0.11434662230E+00  0.96148222157E+01  0.96220935204E+01  0.51100000000E-03 0. -1.
        -11    1    3    3    0    0  0.16382384299E+01 -0.11446396317E+02  0.20238487561E+02  0.23308800759E+02  0.51100000000E-03 0.  1.
         12    1    3    3    0    0  0.99506447713E+01 -0.87468048347E+01  0.67223640445E+01  0.14856382619E+02  0.00000000000E+00 0. -1.
</event>
<event>
 7    1  0.2339217E-009  0.4778727E+02  0.7816164E-02  0.1312668E+00
        -11   -1    0    0    0    0  0.00000000000E+00  0.00000000000E+00  0.45593999997E+02  0.45594000000E+02  0.51100000000E-03 0.  1.
         11   -1    0    0    0    0 -0.00000000000E+00 -0.00000000000E+00 -0.45593999997E+02  0.45594000000E+02  0.51100000000E-03 0. -1.
    9900012    2    1    2    0    0  0.60217767031E+01  0.29314154284E+02  0.31433131394E+02  0.47787272065E+02  0.20000004651E+02 0.  0.
         12    1    1    2    0    0 -0.60217767031E+01 -0.29314154284E+02 -0.31433131394E+02  0.43400727935E+02  0.00000000000E+00 0. -1.
         11    1    3    3    0    0  0.58005275104E+01  0.16394551563E+02  0.12708764621E+02  0.21539269690E+02  0.51100000000E-03 0. -1.
        -11    1    3    3    0    0  0.36514276770E+01  0.14238808035E+02  0.14479964840E+02  0.20633612392E+02  0.51100000000E-03 0.  1.
        -12    1    3    3    0    0 -0.34301784844E+01 -0.13192053133E+01  0.42444019337E+01  0.56143899819E+01  0.00000000000E+00 0.  1.
</event>
<event>
 7    1  0.2339217E-009  0.4778727E+02  0.7816164E-02  0.1312668E+00
        -11   -1    0    0    0    0  0.00000000000E+00  0.00000000000E+00  0.45593999997E+02  0.45594000000E+02  0.51100000000E-03 0.  1.
         11   -1    0    0    0    0 -0.00000000000E+00 -0.00000000000E+00 -0.45593999997E+02  0.45594000000E+02  0.51100000000E-03 0. -1.
    9900012    2    1    2    0    0  0.30685960637E+01 -0.35590708297E+02  0.24647686049E+02  0.47787271591E+02  0.20000002492E+02 0.  0.
         12    1    1    2    0    0 -0.30685960637E+01  0.35590708297E+02 -0.24647686049E+02  0.43400728409E+02  0.00000000000E+00 0. -1.
         11    1    3    3    0    0 -0.25096564110E+01 -0.41670637389E+01  0.11121948142E+02  0.12139214400E+02  0.51100000000E-03 0. -1.
        -11    1    3    3    0    0 -0.46687931508E+00 -0.33448315064E+01 -0.91637178773E+00  0.34993730318E+01  0.51100000000E-03 0.  1.
        -12    1    3    3    0    0  0.60451317898E+01 -0.28078813052E+02  0.14442109694E+02  0.32148684159E+02  0.00000000000E+00 0.  1.
</event>
<event>
 7    1  0.2339217E-009  0.4778727E+02  0.7816164E-02  0.1312668E+00
        -11   -1    0    0    0    0  0.00000000000E+00  0.00000000000E+00  0.45593999997E+02  0.45594000000E+02  0.51100000000E-03 0.  1.
         11   -1    0    0    0    0 -0.00000000000E+00 -0.00000000000E+00 -0.45593999997E+02  0.45594000000E+02  0.51100000000E-03 0. -1.
    9900012    2    1    2    0    0 -0.76862318925E+01 -0.21961445628E+02  0.36636594411E+02  0.47787270688E+02  0.19999998374E+02 0.  0.
         12    1    1    2    0    0  0.76862318925E+01  0.21961445628E+02 -0.36636594411E+02  0.43400729312E+02  0.00000000000E+00 0. -1.
         11    1    3    3    0    0 -0.71439284215E+01 -0.37743924268E+01  0.98611621931E+01  0.12748500757E+02  0.51100000000E-03 0. -1.
        -11    1    3    3    0    0 -0.36808252880E+01 -0.12896013945E+02  0.88016528177E+01  0.16041344802E+02  0.51100000000E-03 0.  1.
         12    1    3    3    0    0  0.31385218170E+01 -0.52910392566E+01  0.17973779400E+02  0.18997425129E+02  0.00000000000E+00 0. -1.
</event>
<event>
 7    1  0.2339217E-009  0.4778727E+02  0.7816164E-02  0.1312668E+00
        -11   -1    0    0    0    0  0.00000000000E+00  0.00000000000E+00  0.45593999997E+02  0.45594000000E+02  0.51100000000E-03 0. -1.
         11   -1    0    0    0    0 -0.00000000000E+00 -0.00000000000E+00 -0.45593999997E+02  0.45594000000E+02  0.51100000000E-03 0.  1.
    9900012    2    1    2    0    0  0.12900929557E+02 -0.39431443135E+02 -0.12741691461E+02  0.47787269679E+02  0.19999993774E+02 0.  0.
         12    1    1    2    0    0 -0.12900929557E+02  0.39431443135E+02  0.12741691461E+02  0.43400730321E+02  0.00000000000E+00 0. -1.
         11    1    3    3    0    0  0.69743015987E+01 -0.67314375476E+01  0.52720211193E+00  0.97072692646E+01  0.51100000000E-03 0. -1.
        -11    1    3    3    0    0  0.80018153692E+01 -0.96082016587E+01 -0.49452409258E+01  0.13446263287E+02  0.51100000000E-03 0.  1.
         12    1    3    3    0    0 -0.20751874106E+01 -0.23091803928E+02 -0.83236526467E+01  0.24633737127E+02  0.00000000000E+00 0. -1.
</event>
<event>
 7    1  0.2339217E-009  0.4778727E+02  0.7816164E-02  0.1312668E+00
        -11   -1    0    0    0    0  0.00000000000E+00  0.00000000000E+00  0.45593999997E+02  0.45594000000E+02  0.51100000000E-03 0.  1.
         11   -1    0    0    0    0 -0.00000000000E+00 -0.00000000000E+00 -0.45593999997E+02  0.45594000000E+02  0.51100000000E-03 0. -1.
    9900012    2    1    2    0    0 -0.30732582832E+02 -0.24809215054E+01  0.30544671176E+02  0.47787267791E+02  0.19999985168E+02 0.  0.
         12    1    1    2    0    0  0.30732582832E+02  0.24809215054E+01 -0.30544671176E+02  0.43400732209E+02  0.00000000000E+00 0. -1.
         11    1    3    3    0    0 -0.71744978391E+00  0.21469149273E+01 -0.27727663957E+00  0.22805395181E+01  0.51100000000E-03 0. -1.
        -11    1    3    3    0    0 -0.15081094485E+00  0.26975664283E+01  0.20030470395E+01  0.33633028825E+01  0.51100000000E-03 0.  1.
        -12    1    3    3    0    0 -0.29864322103E+02 -0.73254028610E+01  0.28818900776E+02  0.42143425391E+02  0.00000000000E+00 0.  1.
</event>
<event>
 7    1  0.2339217E-009  0.4778727E+02  0.7816164E-02  0.1312668E+00
        -11   -1    0    0    0    0  0.00000000000E+00  0.00000000000E+00  0.45593999997E+02  0.45594000000E+02  0.51100000000E-03 0. -1.
         11   -1    0    0    0    0 -0.00000000000E+00 -0.00000000000E+00 -0.45593999997E+02  0.45594000000E+02  0.51100000000E-03 0.  1.
    9900012    2    1    2    0    0  0.62433359437E+01  0.32938332957E+02 -0.27562845841E+02  0.47787268525E+02  0.19999988511E+02 0.  0.
         12    1    1    2    0    0 -0.62433359437E+01 -0.32938332957E+02  0.27562845841E+02  0.43400731475E+02  0.00000000000E+00 0. -1.
         11    1    3    3    0    0  0.21551478733E+01  0.11293149327E+02 -0.20416419000E+02  0.23430963469E+02  0.51100000000E-03 0. -1.
        -11    1    3    3    0    0 -0.15593458352E+01  0.10112540336E+02 -0.48020096391E+01  0.11302846027E+02  0.51100000000E-03 0.  1.
         12    1    3    3    0    0  0.56475339056E+01  0.11532643295E+02 -0.23444172025E+01  0.13053459028E+02  0.00000000000E+00 0. -1.
</event>
<event>
 7    1  0.2339217E-009  0.4778727E+02  0.7816164E-02  0.1312668E+00
        -11   -1    0    0    0    0  0.00000000000E+00  0.00000000000E+00  0.45593999997E+02  0.45594000000E+02  0.51100000000E-03 0.  1.
         11   -1    0    0    0    0 -0.00000000000E+00 -0.00000000000E+00 -0.45593999997E+02  0.45594000000E+02  0.51100000000E-03 0. -1.
    9900012    2    1    2    0    0 -0.30306330450E+01 -0.43247700668E+02  0.20186979167E+01  0.47787268543E+02  0.19999988596E+02 0.  0.
         12    1    1    2    0    0  0.30306330450E+01  0.43247700668E+02 -0.20186979167E+01  0.43400731457E+02  0.00000000000E+00 0. -1.
         11    1    3    3    0    0  0.10276069699E+01 -0.71964844384E+00 -0.31136590953E+01  0.33568948733E+01  0.51100000000E-03 0. -1.
        -11    1    3    3    0    0  0.15668263504E+01 -0.45961703073E+01 -0.22951341365E+01  0.53709745179E+01  0.51100000000E-03 0.  1.
        -12    1    3    3    0    0 -0.56250663653E+01 -0.37931881917E+02  0.74274911484E+01  0.39059399152E+02  0.00000000000E+00 0.  1.
</event>
<event>
 7    1  0.2339217E-009  0.4778727E+02  0.7816164E-02  0.1312668E+00
        -11   -1    0    0    0    0  0.00000000000E+00  0.00000000000E+00  0.45593999997E+02  0.45594000000E+02  0.51100000000E-03 0. -1.
         11   -1    0    0    0    0 -0.00000000000E+00 -0.00000000000E+00 -0.45593999997E+02  0.45594000000E+02  0.51100000000E-03 0.  1.
    9900012    2    1    2    0    0 -0.26644339841E+02 -0.31563850609E+02  0.13320122194E+02  0.47787272286E+02  0.20000005661E+02 0.  0.
         12    1    1    2    0    0  0.26644339841E+02  0.31563850609E+02 -0.13320122194E+02  0.43400727714E+02  0.00000000000E+00 0. -1.
         11    1    3    3    0    0  0.47289739044E-01 -0.84175073215E+00 -0.26847073892E+00  0.88479229951E+00  0.51100000000E-03 0. -1.
        -11    1    3    3    0    0 -0.93684064281E+01 -0.20388535324E+02 -0.25227445434E+00  0.22439319382E+02  0.51100000000E-03 0.  1.
         12    1    3    3    0    0 -0.17323223151E+02 -0.10333564553E+02  0.13840867387E+02  0.24463160605E+02  0.00000000000E+00 0. -1.
</event>
<event>
 7    1  0.3223235E-009  0.4778728E+02  0.7816164E-02  0.1312668E+00
        -11   -1    0    0    0    0  0.00000000000E+00  0.00000000000E+00  0.45593999997E+02  0.45594000000E+02  0.51100000000E-03 0. -1.
         11   -1    0    0    0    0 -0.00000000000E+00 -0.00000000000E+00 -0.45593999997E+02  0.45594000000E+02  0.51100000000E-03 0.  1.
    9900012    2    1    2    0    0 -0.17943959711E+02 -0.10409393755E+02 -0.38121926666E+02  0.47787280407E+02  0.20000042689E+02 0.  0.
         12    1    1    2    0    0  0.17943959711E+02  0.10409393755E+02  0.38121926666E+02  0.43400719593E+02  0.00000000000E+00 0. -1.
         11    1    3    3    0    0 -0.96879634532E+01 -0.14868619174E+01 -0.48460923810E+01  0.10933983988E+02  0.51100000000E-03 0. -1.
        -11    1    3    3    0    0 -0.56255439260E+01  0.72937468871E+00 -0.14669451568E+02  0.15728049513E+02  0.51100000000E-03 0.  1.
        -12    1    3    3    0    0 -0.26304523321E+01 -0.96519065260E+01 -0.18606382716E+02  0.21125246906E+02  0.00000000000E+00 0.  1.
</event>
<event>
 7    1  0.2339217E-009  0.4778728E+02  0.7816164E-02  0.1312668E+00
        -11   -1    0    0    0    0  0.00000000000E+00  0.00000000000E+00  0.45593999997E+02  0.45594000000E+02  0.51100000000E-03 0.  1.
         11   -1    0    0    0    0 -0.00000000000E+00 -0.00000000000E+00 -0.45593999997E+02  0.45594000000E+02  0.51100000000E-03 0. -1.
    9900012    2    1    2    0    0  0.34176811186E+02 -0.57718485148E+01  0.26119996474E+02  0.47787275652E+02  0.20000021007E+02 0.  0.
         12    1    1    2    0    0 -0.34176811186E+02  0.57718485148E+01 -0.26119996474E+02  0.43400724348E+02  0.00000000000E+00 0. -1.
         11    1    3    3    0    0  0.27099140031E+02  0.76825817274E+00  0.14764628645E+02  0.30869853746E+02  0.51100000000E-03 0. -1.
        -11    1    3    3    0    0  0.85182715004E+01 -0.57005711159E+01  0.74506620206E+01  0.12671614941E+02  0.51100000000E-03 0.  1.
         12    1    3    3    0    0 -0.14406003450E+01 -0.83953557159E+00  0.39047058086E+01  0.42458069647E+01  0.00000000000E+00 0. -1.
</event>
<event>
 7    1  0.2339217E-009  0.4778727E+02  0.7816164E-02  0.1312668E+00
        -11   -1    0    0    0    0  0.00000000000E+00  0.00000000000E+00  0.45593999997E+02  0.45594000000E+02  0.51100000000E-03 0. -1.
         11   -1    0    0    0    0 -0.00000000000E+00 -0.00000000000E+00 -0.45593999997E+02  0.45594000000E+02  0.51100000000E-03 0.  1.
    9900012    2    1    2    0    0 -0.39575102727E+02  0.17729245025E+02 -0.17631177675E+01  0.47787268793E+02  0.19999989735E+02 0.  0.
         12    1    1    2    0    0  0.39575102727E+02 -0.17729245025E+02  0.17631177675E+01  0.43400731207E+02  0.00000000000E+00 0. -1.
         11    1    3    3    0    0 -0.34248750607E+01  0.51781478875E+01  0.11168319734E+01  0.63079551872E+01  0.51100000000E-03 0. -1.
        -11    1    3    3    0    0 -0.19525644374E+02  0.14820777978E+02 -0.38791431997E+00  0.24516458265E+02  0.51100000000E-03 0.  1.
         12    1    3    3    0    0 -0.16624583293E+02 -0.22696808402E+01 -0.24920354209E+01  0.16962855341E+02  0.00000000000E+00 0. -1.
</event>
<event>
 7    1  0.2339217E-009  0.4778727E+02  0.7816164E-02  0.1312668E+00
        -11   -1    0    0    0    0  0.00000000000E+00  0.00000000000E+00  0.45593999997E+02  0.45594000000E+02  0.51100000000E-03 0.  1.
         11   -1    0    0    0    0 -0.00000000000E+00 -0.00000000000E+00 -0.45593999997E+02  0.45594000000E+02  0.51100000000E-03 0. -1.
    9900012    2    1    2    0    0 -0.28032366128E+02  0.92103186047E+01  0.31827347187E+02  0.47787267881E+02  0.19999985575E+02 0.  0.
         12    1    1    2    0    0  0.28032366128E+02 -0.92103186047E+01 -0.31827347187E+02  0.43400732119E+02  0.00000000000E+00 0. -1.
         11    1    3    3    0    0  0.14167033390E+01 -0.33306445754E+00 -0.12506065338E+01  0.19188531072E+01  0.51100000000E-03 0. -1.
        -11    1    3    3    0    0 -0.83241525035E+01 -0.51960204448E+00  0.96860218196E+01  0.12782038966E+02  0.51100000000E-03 0.  1.
         12    1    3    3    0    0 -0.21124916963E+02  0.10062985107E+02  0.23391931901E+02  0.33086375807E+02  0.00000000000E+00 0. -1.
</event>
<event>
 7    1  0.2339217E-009  0.4778727E+02  0.7816164E-02  0.1312668E+00
        -11   -1    0    0    0    0  0.00000000000E+00  0.00000000000E+00  0.45593999997E+02  0.45594000000E+02  0.51100000000E-03 0.  1.
         11   -1    0    0    0    0 -0.00000000000E+00 -0.00000000000E+00 -0.45593999997E+02  0.45594000000E+02  0.51100000000E-03 0. -1.
    9900012    2    1    2    0    0  0.38801902321E+02 -0.10697808386E+02  0.16235548110E+02  0.47787265555E+02  0.19999974970E+02 0.  0.
         12    1    1    2    0    0 -0.38801902321E+02  0.10697808386E+02 -0.16235548110E+02  0.43400734445E+02  0.00000000000E+00 0. -1.
         11    1    3    3    0    0  0.16602562201E+02 -0.55083653125E+01  0.14509776759E+01  0.17552563816E+02  0.51100000000E-03 0. -1.
        -11    1    3    3    0    0  0.18607743198E+02  0.14327889549E+01  0.89054882324E+01  0.20678701894E+02  0.51100000000E-03 0.  1.
        -12    1    3    3    0    0  0.35915969220E+01 -0.66222320283E+01  0.58790822018E+01  0.95559998442E+01  0.00000000000E+00 0.  1.
</event>
<event>
 7    1  0.2339217E-009  0.4778727E+02  0.7816164E-02  0.1312668E+00
        -11   -1    0    0    0    0  0.00000000000E+00  0.00000000000E+00  0.45593999997E+02  0.45594000000E+02  0.51100000000E-03 0. -1.
         11   -1    0    0    0    0 -0.00000000000E+00 -0.00000000000E+00 -0.45593999997E+02  0.45594000000E+02  0.51100000000E-03 0.  1.
    9900012    2    1    2    0    0 -0.23399897865E+02  0.14492871549E+02 -0.33556293377E+02  0.47787269925E+02  0.19999994896E+02 0.  0.
         12    1    1    2    0    0  0.23399897865E+02 -0.14492871549E+02  0.33556293377E+02  0.43400730075E+02  0.00000000000E+00 0. -1.
         11    1    3    3    0    0 -0.19156345957E+02  0.15082215710E+02 -0.18885734309E+02  0.30840067798E+02  0.51100000000E-03 0.  1.
        -11    1    3    3    0    0 -0.63818943387E+00  0.92862270503E+00  0.53440410970E+00  0.12470821526E+01  0.51100000000E-03 0. -1.
        -12    1    3    3    0    0 -0.36053624745E+01 -0.15179668654E+01 -0.15204963178E+02  0.15700119974E+02  0.00000000000E+00 0.  1.
</event>
<event>
 7    1  0.2339217E-009  0.4778727E+02  0.7816164E-02  0.1312668E+00
        -11   -1    0    0    0    0  0.00000000000E+00  0.00000000000E+00  0.45593999997E+02  0.45594000000E+02  0.51100000000E-03 0.  1.
         11   -1    0    0    0    0 -0.00000000000E+00 -0.00000000000E+00 -0.45593999997E+02  0.45594000000E+02  0.51100000000E-03 0. -1.
    9900012    2    1    2    0    0 -0.39105721951E+02 -0.10215037393E+02  0.15811983021E+02  0.47787270913E+02  0.19999999400E+02 0.  0.
         12    1    1    2    0    0  0.39105721951E+02  0.10215037393E+02 -0.15811983021E+02  0.43400729087E+02  0.00000000000E+00 0. -1.
         11    1    3    3    0    0 -0.72241164624E+01  0.15375805113E+00 -0.34925474116E+01  0.80255459555E+01  0.51100000000E-03 0. -1.
        -11    1    3    3    0    0 -0.57476896909E+01 -0.50921679767E+01  0.18615009094E+01  0.79013478207E+01  0.51100000000E-03 0.  1.
        -12    1    3    3    0    0 -0.26133915797E+02 -0.52766274671E+01  0.17443029524E+02  0.31860377137E+02  0.00000000000E+00 0.  1.
</event>
<event>
 7    1  0.2339217E-009  0.4778727E+02  0.7816164E-02  0.1312668E+00
        -11   -1    0    0    0    0  0.00000000000E+00  0.00000000000E+00  0.45593999997E+02  0.45594000000E+02  0.51100000000E-03 0. -1.
         11   -1    0    0    0    0 -0.00000000000E+00 -0.00000000000E+00 -0.45593999997E+02  0.45594000000E+02  0.51100000000E-03 0.  1.
    9900012    2    1    2    0    0 -0.15091573246E+02  0.29908446865E+02 -0.27592616961E+02  0.47787270885E+02  0.19999999275E+02 0.  0.
         12    1    1    2    0    0  0.15091573246E+02 -0.29908446865E+02  0.27592616961E+02  0.43400729115E+02  0.00000000000E+00 0. -1.
         11    1    3    3    0    0 -0.32124221906E+01  0.22417864880E+00 -0.66084961977E+00  0.32873446546E+01  0.51100000000E-03 0. -1.
        -11    1    3    3    0    0 -0.11006784334E+02  0.19486608485E+02 -0.25874395019E+02  0.34210547051E+02  0.51100000000E-03 0.  1.
         12    1    3    3    0    0 -0.87236672083E+00  0.10197659731E+02 -0.10573723225E+01  0.10289379180E+02  0.00000000000E+00 0. -1.
</event>
<event>
 7    1  0.2339217E-009  0.4778727E+02  0.7816164E-02  0.1312668E+00
        -11   -1    0    0    0    0  0.00000000000E+00  0.00000000000E+00  0.45593999997E+02  0.45594000000E+02  0.51100000000E-03 0.  1.
         11   -1    0    0    0    0 -0.00000000000E+00 -0.00000000000E+00 -0.45593999997E+02  0.45594000000E+02  0.51100000000E-03 0. -1.
    9900012    2    1    2    0    0 -0.17194631827E+02 -0.27228840386E+02  0.29095679812E+02  0.47787266180E+02  0.19999977820E+02 0.  0.
         12    1    1    2    0    0  0.17194631827E+02  0.27228840386E+02 -0.29095679812E+02  0.43400733820E+02  0.00000000000E+00 0. -1.
         11    1    3    3    0    0  0.90229388143E+00 -0.17439732817E+01  0.72732051985E+01  0.75335974924E+01  0.51100000000E-03 0. -1.
        -11    1    3    3    0    0 -0.72175836155E+01 -0.18733666902E+01  0.74824223463E+01  0.10563600732E+02  0.51100000000E-03 0.  1.
        -12    1    3    3    0    0 -0.10879342093E+02 -0.23611500414E+02  0.14340052267E+02  0.29690067955E+02  0.00000000000E+00 0.  1.
</event>
<event>
 7    1  0.2339217E-009  0.4778721E+02  0.7816164E-02  0.1312668E+00
        -11   -1    0    0    0    0  0.00000000000E+00  0.00000000000E+00  0.45593999997E+02  0.45594000000E+02  0.51100000000E-03 0. -1.
         11   -1    0    0    0    0 -0.00000000000E+00 -0.00000000000E+00 -0.45593999997E+02  0.45594000000E+02  0.51100000000E-03 0.  1.
    9900012    2    1    2    0    0  0.30608194676E+02 -0.15081381793E+00 -0.30769207405E+02  0.47787211407E+02  0.19999728089E+02 0.  0.
         12    1    1    2    0    0 -0.30608194676E+02  0.15081381793E+00  0.30769207405E+02  0.43400788593E+02  0.00000000000E+00 0. -1.
         11    1    3    3    0    0  0.16768946499E+02 -0.53515529934E+00 -0.19749328265E+02  0.25913701493E+02  0.51100000000E-03 0. -1.
        -11    1    3    3    0    0  0.68470495508E+01  0.52355050707E+01 -0.10154433719E+02  0.13319351535E+02  0.51100000000E-03 0.  1.
         12    1    3    3    0    0  0.69921986264E+01 -0.48511635893E+01 -0.86544542040E+00  0.85541583792E+01  0.00000000000E+00 0. -1.
</event>
<event>
 7    1  0.2339217E-009  0.4778727E+02  0.7816164E-02  0.1312668E+00
        -11   -1    0    0    0    0  0.00000000000E+00  0.00000000000E+00  0.45593999997E+02  0.45594000000E+02  0.51100000000E-03 0.  1.
         11   -1    0    0    0    0 -0.00000000000E+00 -0.00000000000E+00 -0.45593999997E+02  0.45594000000E+02  0.51100000000E-03 0. -1.
    9900012    2    1    2    0    0  0.12156922244E-01  0.64302323800E+01  0.42921733068E+02  0.47787271828E+02  0.20000003573E+02 0.  0.
         12    1    1    2    0    0 -0.12156922244E-01 -0.64302323800E+01 -0.42921733068E+02  0.43400728172E+02  0.00000000000E+00 0. -1.
         11    1    3    3    0    0 -0.90468189086E+00 -0.47666484191E+00 -0.50665526351E+00  0.11412092325E+01  0.51100000000E-03 0. -1.
        -11    1    3    3    0    0  0.22837545455E+01 -0.45308323103E+01  0.18530742187E+02  0.19212818182E+02  0.51100000000E-03 0.  1.
         12    1    3    3    0    0 -0.13669157324E+01  0.11437729532E+02  0.24897646145E+02  0.27433244413E+02  0.00000000000E+00 0. -1.
</event>
<event>
 7    1  0.2339217E-009  0.4778727E+02  0.7816164E-02  0.1312668E+00
        -11   -1    0    0    0    0  0.00000000000E+00  0.00000000000E+00  0.45593999997E+02  0.45594000000E+02  0.51100000000E-03 0.  1.
         11   -1    0    0    0    0 -0.00000000000E+00 -0.00000000000E+00 -0.45593999997E+02  0.45594000000E+02  0.51100000000E-03 0. -1.
    9900012    2    1    2    0    0 -0.38715436280E+02 -0.51515482324E+01  0.18926164313E+02  0.47787272459E+02  0.20000006449E+02 0.  0.
         12    1    1    2    0    0  0.38715436280E+02  0.51515482324E+01 -0.18926164313E+02  0.43400727541E+02  0.00000000000E+00 0. -1.
         11    1    3    3    0    0 -0.62327035029E+01  0.34497639956E+01  0.28954716408E+01  0.76896827545E+01  0.51100000000E-03 0. -1.
        -11    1    3    3    0    0 -0.18085147252E+02 -0.42130935698E+01  0.65476427865E+00  0.18580942524E+02  0.51100000000E-03 0.  1.
         12    1    3    3    0    0 -0.14397585525E+02 -0.43882186582E+01  0.15375928393E+02  0.21516647181E+02  0.00000000000E+00 0. -1.
</event>
<event>
 7    1  0.2339217E-009  0.4778727E+02  0.7816164E-02  0.1312668E+00
        -11   -1    0    0    0    0  0.00000000000E+00  0.00000000000E+00  0.45593999997E+02  0.45594000000E+02  0.51100000000E-03 0.  1.
         11   -1    0    0    0    0 -0.00000000000E+00 -0.00000000000E+00 -0.45593999997E+02  0.45594000000E+02  0.51100000000E-03 0. -1.
    9900012    2    1    2    0    0 -0.71096320241E+01  0.31595347755E+02 -0.28893080086E+02  0.47787274844E+02  0.20000017322E+02 0.  0.
         12    1    1    2    0    0  0.71096320241E+01 -0.31595347755E+02  0.28893080086E+02  0.43400725156E+02  0.00000000000E+00 0. -1.
         11    1    3    3    0    0 -0.17269749224E+01  0.31462279252E+01 -0.11454888146E+02  0.12003984973E+02  0.51100000000E-03 0. -1.
        -11    1    3    3    0    0  0.15357499635E+01  0.15608341966E+02 -0.13452116167E+02  0.20662485245E+02  0.51100000000E-03 0.  1.
        -12    1    3    3    0    0 -0.69184070652E+01  0.12840777863E+02 -0.39860757733E+01  0.15120804625E+02  0.00000000000E+00 0.  1.
</event>
<event>
 7    1  0.2339217E-009  0.4778726E+02  0.7816164E-02  0.1312668E+00
        -11   -1    0    0    0    0  0.00000000000E+00  0.00000000000E+00  0.45593999997E+02  0.45594000000E+02  0.51100000000E-03 0. -1.
         11   -1    0    0    0    0 -0.00000000000E+00 -0.00000000000E+00 -0.45593999997E+02  0.45594000000E+02  0.51100000000E-03 0.  1.
    9900012    2    1    2    0    0  0.60251320017E-01 -0.31702990674E+01 -0.43284753457E+02  0.47787259129E+02  0.19999945670E+02 0.  0.
         12    1    1    2    0    0 -0.60251320017E-01  0.31702990674E+01  0.43284753457E+02  0.43400740871E+02  0.00000000000E+00 0. -1.
         11    1    3    3    0    0  0.35781235277E+01  0.33218903097E+01 -0.18097815877E+02  0.18744835636E+02  0.51100000000E-03 0. -1.
        -11    1    3    3    0    0  0.29064082992E+01 -0.21122735364E+01 -0.18319725363E+02  0.18668723747E+02  0.51100000000E-03 0.  1.
        -12    1    3    3    0    0 -0.64242805069E+01 -0.43799158407E+01 -0.68672122162E+01  0.10373699746E+02  0.00000000000E+00 0.  1.
</event>
<event>
 7    1  0.2339217E-009  0.4778728E+02  0.7816164E-02  0.1312668E+00
        -11   -1    0    0    0    0  0.00000000000E+00  0.00000000000E+00  0.45593999997E+02  0.45594000000E+02  0.51100000000E-03 0.  1.
         11   -1    0    0    0    0 -0.00000000000E+00 -0.00000000000E+00 -0.45593999997E+02  0.45594000000E+02  0.51100000000E-03 0. -1.
    9900012    2    1    2    0    0 -0.37280594214E+02 -0.22192241905E+02 -0.11331382708E+01  0.47787282171E+02  0.20000050731E+02 0.  0.
         12    1    1    2    0    0  0.37280594214E+02  0.22192241905E+02  0.11331382708E+01  0.43400717829E+02  0.00000000000E+00 0. -1.
         11    1    3    3    0    0 -0.97184271867E+01 -0.26916867218E+01  0.13268414970E+01  0.10171210007E+02  0.51100000000E-03 0. -1.
        -11    1    3    3    0    0  0.15673926488E+01 -0.13876851283E+01 -0.25693289547E+01  0.33141878748E+01  0.51100000000E-03 0.  1.
        -12    1    3    3    0    0 -0.29129559676E+02 -0.18112870055E+02  0.10934918679E+00  0.34301884289E+02  0.00000000000E+00 0.  1.
</event>
<event>
 7    1  0.2339217E-009  0.4778727E+02  0.7816164E-02  0.1312668E+00
        -11   -1    0    0    0    0  0.00000000000E+00  0.00000000000E+00  0.45593999997E+02  0.45594000000E+02  0.51100000000E-03 0. -1.
         11   -1    0    0    0    0 -0.00000000000E+00 -0.00000000000E+00 -0.45593999997E+02  0.45594000000E+02  0.51100000000E-03 0.  1.
    9900012    2    1    2    0    0 -0.22885097875E+02 -0.36465214636E+02 -0.54939638460E+01  0.47787271643E+02  0.20000002730E+02 0.  0.
         12    1    1    2    0    0  0.22885097875E+02  0.36465214636E+02  0.54939638460E+01  0.43400728357E+02  0.00000000000E+00 0. -1.
         11    1    3    3    0    0  0.31555473415E+00 -0.24551770442E+01 -0.10741564757E+01  0.26983849807E+01  0.51100000000E-03 0. -1.
        -11    1    3    3    0    0 -0.17494483003E+02 -0.33954455924E+02 -0.56149502689E+00  0.38200488080E+02  0.51100000000E-03 0.  1.
         12    1    3    3    0    0 -0.57061696058E+01 -0.55581667517E-01 -0.38583123434E+01  0.68883985825E+01  0.00000000000E+00 0. -1.
</event>
<event>
 7    1  0.2339217E-009  0.4778727E+02  0.7816164E-02  0.1312668E+00
        -11   -1    0    0    0    0  0.00000000000E+00  0.00000000000E+00  0.45593999997E+02  0.45594000000E+02  0.51100000000E-03 0. -1.
         11   -1    0    0    0    0 -0.00000000000E+00 -0.00000000000E+00 -0.45593999997E+02  0.45594000000E+02  0.51100000000E-03 0.  1.
    9900012    2    1    2    0    0 -0.41006281753E+02 -0.12156890115E+02 -0.73701083515E+01  0.47787267084E+02  0.19999981944E+02 0.  0.
         12    1    1    2    0    0  0.41006281753E+02  0.12156890115E+02  0.73701083515E+01  0.43400732916E+02  0.00000000000E+00 0. -1.
         11    1    3    3    0    0 -0.92029588714E+01 -0.95338010734E+01 -0.28685228469E+01  0.13557884735E+02  0.51100000000E-03 0. -1.
        -11    1    3    3    0    0 -0.80236266283E+01 -0.26082572461E+01 -0.60768213119E+01  0.10397564506E+02  0.51100000000E-03 0.  1.
         12    1    3    3    0    0 -0.23779696254E+02 -0.14831795943E-01  0.15752358073E+01  0.23831817844E+02  0.00000000000E+00 0. -1.
</event>
<event>
 7    1  0.2339217E-009  0.4778728E+02  0.7816164E-02  0.1312668E+00
        -11   -1    0    0    0    0  0.00000000000E+00  0.00000000000E+00  0.45593999997E+02  0.45594000000E+02  0.51100000000E-03 0.  1.
         11   -1    0    0    0    0 -0.00000000000E+00 -0.00000000000E+00 -0.45593999997E+02  0.45594000000E+02  0.51100000000E-03 0. -1.
    9900012    2    1    2    0    0  0.29992988740E-01 -0.95840691049E+01  0.42329276270E+02  0.47787275240E+02  0.20000019129E+02 0.  0.
         12    1    1    2    0    0 -0.29992988740E-01  0.95840691049E+01 -0.42329276270E+02  0.43400724760E+02  0.00000000000E+00 0. -1.
         11    1    3    3    0    0  0.10757891798E+01 -0.27012854159E+00 -0.28540317166E+00  0.11453152491E+01  0.51100000000E-03 0. -1.
        -11    1    3    3    0    0  0.26051676164E+01 -0.30334919881E+01  0.37606271231E+02  0.37818257603E+02  0.51100000000E-03 0.  1.
         12    1    3    3    0    0 -0.36509638075E+01 -0.62804485752E+01  0.50084082098E+01  0.88237023877E+01  0.00000000000E+00 0. -1.
</event>
<event>
 7    1  0.2339217E-009  0.4778727E+02  0.7816164E-02  0.1312668E+00
        -11   -1    0    0    0    0  0.00000000000E+00  0.00000000000E+00  0.45593999997E+02  0.45594000000E+02  0.51100000000E-03 0.  1.
         11   -1    0    0    0    0 -0.00000000000E+00 -0.00000000000E+00 -0.45593999997E+02  0.45594000000E+02  0.51100000000E-03 0. -1.
    9900012    2    1    2    0    0  0.37258004300E+02 -0.77454729804E+01  0.20867965869E+02  0.47787271485E+02  0.20000002010E+02 0.  0.
         12    1    1    2    0    0 -0.37258004300E+02  0.77454729804E+01 -0.20867965869E+02  0.43400728515E+02  0.00000000000E+00 0. -1.
         11    1    3    3    0    0  0.76533892831E+01 -0.31288920957E+01  0.13912077326E+00  0.82694430354E+01  0.51100000000E-03 0. -1.
        -11    1    3    3    0    0  0.25957372290E+02 -0.33679058069E+01  0.98344666679E+01  0.27961486023E+02  0.51100000000E-03 0.  1.
         12    1    3    3    0    0  0.36472427272E+01 -0.12486750779E+01  0.10894378427E+02  0.11556342427E+02  0.00000000000E+00 0. -1.
</event>
<event>
 7    1  0.2339217E-009  0.4778727E+02  0.7816164E-02  0.1312668E+00
        -11   -1    0    0    0    0  0.00000000000E+00  0.00000000000E+00  0.45593999997E+02  0.45594000000E+02  0.51100000000E-03 0.  1.
         11   -1    0    0    0    0 -0.00000000000E+00 -0.00000000000E+00 -0.45593999997E+02  0.45594000000E+02  0.51100000000E-03 0. -1.
    9900012    2    1    2    0    0 -0.92488678259E+01  0.37889878028E+02  0.19037829617E+02  0.47787269942E+02  0.19999994973E+02 0.  0.
         12    1    1    2    0    0  0.92488678259E+01 -0.37889878028E+02 -0.19037829617E+02  0.43400730058E+02  0.00000000000E+00 0. -1.
         11    1    3    3    0    0 -0.32136915727E+01  0.17100978039E+01 -0.55287986960E+00  0.36821086940E+01  0.51100000000E-03 0. -1.
        -11    1    3    3    0    0 -0.83026230565E+01  0.20574659517E+02  0.17376594117E+02  0.28181486604E+02  0.51100000000E-03 0.  1.
         12    1    3    3    0    0  0.22674468033E+01  0.15605120707E+02  0.22141153699E+01  0.15923674644E+02  0.00000000000E+00 0. -1.
</event>
<event>
 7    1  0.2339217E-009  0.4778727E+02  0.7816164E-02  0.1312668E+00
        -11   -1    0    0    0    0  0.00000000000E+00  0.00000000000E+00  0.45593999997E+02  0.45594000000E+02  0.51100000000E-03 0.  1.
         11   -1    0    0    0    0 -0.00000000000E+00 -0.00000000000E+00 -0.45593999997E+02  0.45594000000E+02  0.51100000000E-03 0. -1.
    9900012    2    1    2    0    0  0.22861368347E+02 -0.13585905726E+02  0.34298748821E+02  0.47787272267E+02  0.20000005575E+02 0.  0.
         12    1    1    2    0    0 -0.22861368347E+02  0.13585905726E+02 -0.34298748821E+02  0.43400727733E+02  0.00000000000E+00 0. -1.
         11    1    3    3    0    0  0.30324445137E+01  0.16893223281E+01  0.52655637652E+01  0.63067972604E+01  0.51100000000E-03 0. -1.
        -11    1    3    3    0    0  0.43738146523E+01  0.31073089237E+01  0.75198018699E+01  0.92375886347E+01  0.51100000000E-03 0.  1.
        -12    1    3    3    0    0  0.15455109181E+02 -0.18382536978E+02  0.21513383186E+02  0.32242886372E+02  0.00000000000E+00 0.  1.
</event>
<event>
 7    1  0.2339217E-009  0.4778727E+02  0.7816164E-02  0.1312668E+00
        -11   -1    0    0    0    0  0.00000000000E+00  0.00000000000E+00  0.45593999997E+02  0.45594000000E+02  0.51100000000E-03 0.  1.
         11   -1    0    0    0    0 -0.00000000000E+00 -0.00000000000E+00 -0.45593999997E+02  0.45594000000E+02  0.51100000000E-03 0. -1.
    9900012    2    1    2    0    0 -0.31198863529E+02 -0.28559097233E+02  0.97278904032E+01  0.47787274523E+02  0.20000015860E+02 0.  0.
         12    1    1    2    0    0  0.31198863529E+02  0.28559097233E+02 -0.97278904032E+01  0.43400725477E+02  0.00000000000E+00 0. -1.
         11    1    3    3    0    0 -0.11116135260E+02 -0.26824446140E+01  0.84470923088E+00  0.11466364122E+02  0.51100000000E-03 0. -1.
        -11    1    3    3    0    0 -0.71986113667E+01 -0.11078205276E+01  0.22704077318E+01  0.76290250662E+01  0.51100000000E-03 0.  1.
        -12    1    3    3    0    0 -0.12884116902E+02 -0.24768832091E+02  0.66127734405E+01  0.28691885335E+02  0.00000000000E+00 0.  1.
</event>
<event>
 7    1  0.2339217E-009  0.4778725E+02  0.7816164E-02  0.1312668E+00
        -11   -1    0    0    0    0  0.00000000000E+00  0.00000000000E+00  0.45593999997E+02  0.45594000000E+02  0.51100000000E-03 0. -1.
         11   -1    0    0    0    0 -0.00000000000E+00 -0.00000000000E+00 -0.45593999997E+02  0.45594000000E+02  0.51100000000E-03 0.  1.
    9900012    2    1    2    0    0 -0.91932216973E+01 -0.38694600172E+02  0.17373484364E+02  0.47787246935E+02  0.19999890076E+02 0.  0.
         12    1    1    2    0    0  0.91932216973E+01  0.38694600172E+02 -0.17373484364E+02  0.43400753065E+02  0.00000000000E+00 0. -1.
         11    1    3    3    0    0  0.50620070758E+00 -0.34505687527E+01 -0.11458584959E+01  0.36709202971E+01  0.51100000000E-03 0. -1.
        -11    1    3    3    0    0 -0.62930781088E+01 -0.17289918793E+02  0.43241320069E+00  0.18404649015E+02  0.51100000000E-03 0.  1.
        -12    1    3    3    0    0 -0.34063442961E+01 -0.17954112627E+02  0.18086929660E+02  0.25711677623E+02  0.00000000000E+00 0.  1.
</event>
<event>
 7    1  0.2339217E-009  0.4778727E+02  0.7816164E-02  0.1312668E+00
        -11   -1    0    0    0    0  0.00000000000E+00  0.00000000000E+00  0.45593999997E+02  0.45594000000E+02  0.51100000000E-03 0. -1.
         11   -1    0    0    0    0 -0.00000000000E+00 -0.00000000000E+00 -0.45593999997E+02  0.45594000000E+02  0.51100000000E-03 0.  1.
    9900012    2    1    2    0    0 -0.38008975968E+02 -0.12295992925E+02 -0.16963182590E+02  0.47787271207E+02  0.20000000741E+02 0.  0.
         12    1    1    2    0    0  0.38008975968E+02  0.12295992925E+02  0.16963182590E+02  0.43400728793E+02  0.00000000000E+00 0. -1.
         11    1    3    3    0    0 -0.68518089653E+01 -0.57069679157E+01 -0.55017740755E+00  0.89341739590E+01  0.51100000000E-03 0. -1.
        -11    1    3    3    0    0 -0.23915627282E+02 -0.88454592549E+01 -0.63969811137E+01  0.26289175440E+02  0.51100000000E-03 0.  1.
        -12    1    3    3    0    0 -0.72415397215E+01  0.22564342454E+01 -0.10016024069E+02  0.12563921808E+02  0.00000000000E+00 0.  1.
</event>
<event>
 7    1  0.2339217E-009  0.4778726E+02  0.7816164E-02  0.1312668E+00
        -11   -1    0    0    0    0  0.00000000000E+00  0.00000000000E+00  0.45593999997E+02  0.45594000000E+02  0.51100000000E-03 0. -1.
         11   -1    0    0    0    0 -0.00000000000E+00 -0.00000000000E+00 -0.45593999997E+02  0.45594000000E+02  0.51100000000E-03 0.  1.
    9900012    2    1    2    0    0  0.15857458551E+01  0.27045254245E+02 -0.33906691308E+02  0.47787261728E+02  0.19999957525E+02 0.  0.
         12    1    1    2    0    0 -0.15857458551E+01 -0.27045254245E+02  0.33906691308E+02  0.43400738272E+02  0.00000000000E+00 0. -1.
         11    1    3    3    0    0  0.29204302702E+00 -0.42079727999E+00 -0.46579925431E+01  0.46860702378E+01  0.51100000000E-03 0. -1.
        -11    1    3    3    0    0  0.81086091304E+01  0.19803057410E+02 -0.20097827650E+02  0.29356997485E+02  0.51100000000E-03 0.  1.
        -12    1    3    3    0    0 -0.68149063024E+01  0.76629941148E+01 -0.91508711142E+01  0.13744194005E+02  0.00000000000E+00 0.  1.
</event>
<event>
 7    1  0.2339217E-009  0.4778727E+02  0.7816164E-02  0.1312668E+00
        -11   -1    0    0    0    0  0.00000000000E+00  0.00000000000E+00  0.45593999997E+02  0.45594000000E+02  0.51100000000E-03 0.  1.
         11   -1    0    0    0    0 -0.00000000000E+00 -0.00000000000E+00 -0.45593999997E+02  0.45594000000E+02  0.51100000000E-03 0. -1.
    9900012    2    1    2    0    0  0.42177559249E+02 -0.34762697159E+01 -0.96224893183E+01  0.47787271250E+02  0.20000000937E+02 0.  0.
         12    1    1    2    0    0 -0.42177559249E+02  0.34762697159E+01  0.96224893183E+01  0.43400728750E+02  0.00000000000E+00 0. -1.
         11    1    3    3    0    0  0.15635449542E+02  0.30898197800E+00 -0.38478979296E+01  0.16104939335E+02  0.51100000000E-03 0. -1.
        -11    1    3    3    0    0  0.27895193627E+02 -0.38101607439E+01 -0.26516811076E+01  0.28278800634E+02  0.51100000000E-03 0.  1.
         12    1    3    3    0    0 -0.13530839196E+01  0.24909050009E-01 -0.31229102812E+01  0.34035312807E+01  0.00000000000E+00 0. -1.
</event>
<event>
 7    1  0.2339217E-009  0.4778727E+02  0.7816164E-02  0.1312668E+00
        -11   -1    0    0    0    0  0.00000000000E+00  0.00000000000E+00  0.45593999997E+02  0.45594000000E+02  0.51100000000E-03 0.  1.
         11   -1    0    0    0    0 -0.00000000000E+00 -0.00000000000E+00 -0.45593999997E+02  0.45594000000E+02  0.51100000000E-03 0. -1.
    9900012    2    1    2    0    0  0.24817711423E+01  0.30466621984E+02  0.30809884262E+02  0.47787271764E+02  0.20000003281E+02 0.  0.
         12    1    1    2    0    0 -0.24817711423E+01 -0.30466621984E+02 -0.30809884262E+02  0.43400728236E+02  0.00000000000E+00 0. -1.
         11    1    3    3    0    0  0.18708938861E+01  0.21072869674E+01  0.13322599418E+02  0.13617362366E+02  0.51100000000E-03 0. -1.
        -11    1    3    3    0    0  0.17023273221E+01  0.32776178534E+01  0.47536447862E+01  0.60197870493E+01  0.51100000000E-03 0.  1.
        -12    1    3    3    0    0 -0.10914500658E+01  0.25081717164E+02  0.12733640058E+02  0.28150122349E+02  0.00000000000E+00 0.  1.
</event>
<event>
 7    1  0.2339217E-009  0.4778727E+02  0.7816164E-02  0.1312668E+00
        -11   -1    0    0    0    0  0.00000000000E+00  0.00000000000E+00  0.45593999997E+02  0.45594000000E+02  0.51100000000E-03 0. -1.
         11   -1    0    0    0    0 -0.00000000000E+00 -0.00000000000E+00 -0.45593999997E+02  0.45594000000E+02  0.51100000000E-03 0.  1.
    9900012    2    1    2    0    0 -0.22384950670E+02  0.36437532809E+02  0.74056660988E+01  0.47787266088E+02  0.19999977403E+02 0.  0.
         12    1    1    2    0    0  0.22384950670E+02 -0.36437532809E+02 -0.74056660988E+01  0.43400733912E+02  0.00000000000E+00 0. -1.
         11    1    3    3    0    0 -0.90140101162E+01  0.71125949269E+01  0.55476156998E+01  0.12752153747E+02  0.51100000000E-03 0. -1.
        -11    1    3    3    0    0 -0.14098184351E+02  0.16832361519E+02  0.40612199195E+01  0.22328920793E+02  0.51100000000E-03 0.  1.
         12    1    3    3    0    0  0.72724379711E+00  0.12492576363E+02 -0.22031695204E+01  0.12706191548E+02  0.00000000000E+00 0. -1.
</event>
<event>
 7    1  0.2339217E-009  0.4778726E+02  0.7816164E-02  0.1312668E+00
        -11   -1    0    0    0    0  0.00000000000E+00  0.00000000000E+00  0.45593999997E+02  0.45594000000E+02  0.51100000000E-03 0.  1.
         11   -1    0    0    0    0 -0.00000000000E+00 -0.00000000000E+00 -0.45593999997E+02  0.45594000000E+02  0.51100000000E-03 0. -1.
    9900012    2    1    2    0    0  0.36369284847E+02  0.13598708338E+02  0.19390054557E+02  0.47787263088E+02  0.19999963724E+02 0.  0.
         12    1    1    2    0    0 -0.36369284847E+02 -0.13598708338E+02 -0.19390054557E+02  0.43400736912E+02  0.00000000000E+00 0. -1.
         11    1    3    3    0    0  0.17418459650E+02  0.13122854815E+01  0.81601655891E+01  0.19279863394E+02  0.51100000000E-03 0. -1.
        -11    1    3    3    0    0  0.16215470270E+02  0.77514422786E+01  0.13762461106E+02  0.22636953625E+02  0.51100000000E-03 0.  1.
         12    1    3    3    0    0  0.27353549271E+01  0.45349805779E+01 -0.25325721382E+01  0.58704460694E+01  0.00000000000E+00 0. -1.
</event>
<event>
 7    1  0.2339217E-009  0.4778723E+02  0.7816164E-02  0.1312668E+00
        -11   -1    0    0    0    0  0.00000000000E+00  0.00000000000E+00  0.45593999997E+02  0.45594000000E+02  0.51100000000E-03 0. -1.
         11   -1    0    0    0    0 -0.00000000000E+00 -0.00000000000E+00 -0.45593999997E+02  0.45594000000E+02  0.51100000000E-03 0.  1.
    9900012    2    1    2    0    0 -0.71834236202E+01 -0.36405128505E+02 -0.22509819066E+02  0.47787229146E+02  0.19999808967E+02 0.  0.
         12    1    1    2    0    0  0.71834236202E+01  0.36405128505E+02  0.22509819066E+02  0.43400770854E+02  0.00000000000E+00 0. -1.
         11    1    3    3    0    0  0.12075494068E+01 -0.60569408754E+01 -0.98419999777E+01  0.11619366255E+02  0.51100000000E-03 0. -1.
        -11    1    3    3    0    0 -0.45460938648E+01 -0.36457086974E+01 -0.60294545162E+01  0.83852539233E+01  0.51100000000E-03 0.  1.
         12    1    3    3    0    0 -0.38448791622E+01 -0.26702478932E+02 -0.66383645721E+01  0.27782608968E+02  0.00000000000E+00 0. -1.
</event>
<event>
 7    1  0.2339217E-009  0.4778726E+02  0.7816164E-02  0.1312668E+00
        -11   -1    0    0    0    0  0.00000000000E+00  0.00000000000E+00  0.45593999997E+02  0.45594000000E+02  0.51100000000E-03 0. -1.
         11   -1    0    0    0    0 -0.00000000000E+00 -0.00000000000E+00 -0.45593999997E+02  0.45594000000E+02  0.51100000000E-03 0.  1.
    9900012    2    1    2    0    0  0.11314082627E+02 -0.12107678788E+02 -0.40112589775E+02  0.47787260262E+02  0.19999950840E+02 0.  0.
         12    1    1    2    0    0 -0.11314082627E+02  0.12107678788E+02  0.40112589775E+02  0.43400739738E+02  0.00000000000E+00 0. -1.
         11    1    3    3    0    0 -0.22750237319E+01 -0.13394386552E+01 -0.67091414523E+01  0.72098826745E+01  0.51100000000E-03 0. -1.
        -11    1    3    3    0    0  0.34735588677E+01  0.33294851649E+01 -0.33104712104E+01  0.58404026032E+01  0.51100000000E-03 0.  1.
         12    1    3    3    0    0  0.10115547491E+02 -0.14097725298E+02 -0.30092977112E+02  0.34736974985E+02  0.00000000000E+00 0. -1.
</event>
<event>
 7    1  0.2339217E-009  0.4778724E+02  0.7816164E-02  0.1312668E+00
        -11   -1    0    0    0    0  0.00000000000E+00  0.00000000000E+00  0.45593999997E+02  0.45594000000E+02  0.51100000000E-03 0.  1.
         11   -1    0    0    0    0 -0.00000000000E+00 -0.00000000000E+00 -0.45593999997E+02  0.45594000000E+02  0.51100000000E-03 0. -1.
    9900012    2    1    2    0    0 -0.38252814162E+02 -0.19970961260E+02  0.46377414746E+01  0.47787242738E+02  0.19999870938E+02 0.  0.
         12    1    1    2    0    0  0.38252814162E+02  0.19970961260E+02 -0.46377414746E+01  0.43400757262E+02  0.00000000000E+00 0. -1.
         11    1    3    3    0    0 -0.18444175539E+02 -0.14392445647E+01 -0.12859010852E+01  0.18544880104E+02  0.51100000000E-03 0. -1.
        -11    1    3    3    0    0 -0.34116449272E+01 -0.10019970052E+01  0.37076398044E+01  0.51371112786E+01  0.51100000000E-03 0.  1.
        -12    1    3    3    0    0 -0.16396993696E+02 -0.17529719690E+02  0.22160027554E+01  0.24105251355E+02  0.00000000000E+00 0.  1.
</event>
<event>
 7    1  0.2339217E-009  0.4778727E+02  0.7816164E-02  0.1312668E+00
        -11   -1    0    0    0    0  0.00000000000E+00  0.00000000000E+00  0.45593999997E+02  0.45594000000E+02  0.51100000000E-03 0. -1.
         11   -1    0    0    0    0 -0.00000000000E+00 -0.00000000000E+00 -0.45593999997E+02  0.45594000000E+02  0.51100000000E-03 0.  1.
    9900012    2    1    2    0    0 -0.12495017133E+02 -0.17106090991E+02 -0.37879804414E+02  0.47787269769E+02  0.19999994187E+02 0.  0.
         12    1    1    2    0    0  0.12495017133E+02  0.17106090991E+02  0.37879804414E+02  0.43400730231E+02  0.00000000000E+00 0. -1.
         11    1    3    3    0    0 -0.12715008930E+02 -0.12824598658E+02 -0.14625088289E+02  0.23238652942E+02  0.51100000000E-03 0. -1.
        -11    1    3    3    0    0  0.13391573466E+01 -0.21282056845E+01 -0.21602195856E+01  0.33149888014E+01  0.51100000000E-03 0.  1.
        -12    1    3    3    0    0 -0.11191655493E+01 -0.21532866485E+01 -0.21094496539E+02  0.21233628026E+02  0.00000000000E+00 0.  1.
</event>
<event>
 7    1  0.2339217E-009  0.4778727E+02  0.7816164E-02  0.1312668E+00
        -11   -1    0    0    0    0  0.00000000000E+00  0.00000000000E+00  0.45593999997E+02  0.45594000000E+02  0.51100000000E-03 0. -1.
         11   -1    0    0    0    0 -0.00000000000E+00 -0.00000000000E+00 -0.45593999997E+02  0.45594000000E+02  0.51100000000E-03 0.  1.
    9900012    2    1    2    0    0  0.23040503294E+02  0.34178090680E+02  0.13587375653E+02  0.47787268996E+02  0.19999990659E+02 0.  0.
         12    1    1    2    0    0 -0.23040503294E+02 -0.34178090680E+02 -0.13587375653E+02  0.43400731004E+02  0.00000000000E+00 0. -1.
         11    1    3    3    0    0  0.28272338759E+01 -0.10766177092E+01  0.21730941418E+01  0.37248752316E+01  0.51100000000E-03 0. -1.
        -11    1    3    3    0    0  0.13871199427E+02  0.12248251123E+02  0.70482140652E+01  0.19801695657E+02  0.51100000000E-03 0.  1.
         12    1    3    3    0    0  0.63420699906E+01  0.23006457266E+02  0.43660674458E+01  0.24260698107E+02  0.00000000000E+00 0. -1.
</event>
<event>
 7    1  0.2339217E-009  0.4778727E+02  0.7816164E-02  0.1312668E+00
        -11   -1    0    0    0    0  0.00000000000E+00  0.00000000000E+00  0.45593999997E+02  0.45594000000E+02  0.51100000000E-03 0.  1.
         11   -1    0    0    0    0 -0.00000000000E+00 -0.00000000000E+00 -0.45593999997E+02  0.45594000000E+02  0.51100000000E-03 0. -1.
    9900012    2    1    2    0    0  0.10804113785E+02 -0.28648643436E+02  0.30759542253E+02  0.47787273220E+02  0.20000009921E+02 0.  0.
         12    1    1    2    0    0 -0.10804113785E+02  0.28648643436E+02 -0.30759542253E+02  0.43400726780E+02  0.00000000000E+00 0. -1.
         11    1    3    3    0    0 -0.10235925494E+01 -0.29015825481E+01 -0.12669054007E+01  0.33274573695E+01  0.51100000000E-03 0. -1.
        -11    1    3    3    0    0  0.57695567682E+01 -0.18110424271E+01  0.77891697943E+01  0.98609749173E+01  0.51100000000E-03 0.  1.
         12    1    3    3    0    0  0.60581495665E+01 -0.23936018460E+02  0.24237277859E+02  0.34598840934E+02  0.00000000000E+00 0. -1.
</event>
<event>
 7    1  0.2339217E-009  0.4778727E+02  0.7816164E-02  0.1312668E+00
        -11   -1    0    0    0    0  0.00000000000E+00  0.00000000000E+00  0.45593999997E+02  0.45594000000E+02  0.51100000000E-03 0. -1.
         11   -1    0    0    0    0 -0.00000000000E+00 -0.00000000000E+00 -0.45593999997E+02  0.45594000000E+02  0.51100000000E-03 0.  1.
    9900012    2    1    2    0    0 -0.34059404283E+02 -0.20905946486E+02 -0.16926951196E+02  0.47787270797E+02  0.19999998871E+02 0.  0.
         12    1    1    2    0    0  0.34059404283E+02  0.20905946486E+02  0.16926951196E+02  0.43400729203E+02  0.00000000000E+00 0. -1.
         11    1    3    3    0    0 -0.41409843265E+01  0.19868504200E+01 -0.17899686133E+01  0.49294334037E+01  0.51100000000E-03 0. -1.
        -11    1    3    3    0    0  0.11148723143E+01 -0.29584138144E+01 -0.17895799312E+01  0.36328706508E+01  0.51100000000E-03 0.  1.
         12    1    3    3    0    0 -0.31033292271E+02 -0.19934383092E+02 -0.13347402652E+02  0.39224966742E+02  0.00000000000E+00 0. -1.
</event>
<event>
 7    1  0.2339217E-009  0.4778727E+02  0.7816164E-02  0.1312668E+00
        -11   -1    0    0    0    0  0.00000000000E+00  0.00000000000E+00  0.45593999997E+02  0.45594000000E+02  0.51100000000E-03 0.  1.
         11   -1    0    0    0    0 -0.00000000000E+00 -0.00000000000E+00 -0.45593999997E+02  0.45594000000E+02  0.51100000000E-03 0. -1.
    9900012    2    1    2    0    0 -0.30579355045E+02  0.86725700311E+01  0.29551866986E+02  0.47787271109E+02  0.20000000292E+02 0.  0.
         12    1    1    2    0    0  0.30579355045E+02 -0.86725700311E+01 -0.29551866986E+02  0.43400728891E+02  0.00000000000E+00 0. -1.
         11    1    3    3    0    0 -0.54159063252E+01  0.39387621129E+01  0.47236313551E+01  0.81950339685E+01  0.51100000000E-03 0. -1.
        -11    1    3    3    0    0 -0.12849226751E+02  0.29734683079E+01  0.16561789346E+01  0.13292368893E+02  0.51100000000E-03 0.  1.
         12    1    3    3    0    0 -0.12314221970E+02  0.17603396104E+01  0.23172056696E+02  0.26299868247E+02  0.00000000000E+00 0. -1.
</event>
<event>
 7    1  0.2339217E-009  0.4778727E+02  0.7816164E-02  0.1312668E+00
        -11   -1    0    0    0    0  0.00000000000E+00  0.00000000000E+00  0.45593999997E+02  0.45594000000E+02  0.51100000000E-03 0.  1.
         11   -1    0    0    0    0 -0.00000000000E+00 -0.00000000000E+00 -0.45593999997E+02  0.45594000000E+02  0.51100000000E-03 0. -1.
    9900012    2    1    2    0    0 -0.13336035088E+02  0.13915640261E+02  0.38886096969E+02  0.47787269439E+02  0.19999992681E+02 0.  0.
         12    1    1    2    0    0  0.13336035088E+02 -0.13915640261E+02 -0.38886096969E+02  0.43400730561E+02  0.00000000000E+00 0. -1.
         11    1    3    3    0    0  0.20780957458E+01  0.40525513368E+01  0.97694767875E+01  0.10778883580E+02  0.51100000000E-03 0. -1.
        -11    1    3    3    0    0 -0.40368477967E+01  0.48350380015E+01  0.21543847327E+02  0.22445736578E+02  0.51100000000E-03 0.  1.
         12    1    3    3    0    0 -0.11377283037E+02  0.50280509225E+01  0.75727728540E+01  0.14562649281E+02  0.00000000000E+00 0. -1.
</event>
<event>
 7    1  0.2339217E-009  0.4778727E+02  0.7816164E-02  0.1312668E+00
        -11   -1    0    0    0    0  0.00000000000E+00  0.00000000000E+00  0.45593999997E+02  0.45594000000E+02  0.51100000000E-03 0.  1.
         11   -1    0    0    0    0 -0.00000000000E+00 -0.00000000000E+00 -0.45593999997E+02  0.45594000000E+02  0.51100000000E-03 0. -1.
    9900012    2    1    2    0    0 -0.70372514126E+01  0.18239892662E+02  0.38747989705E+02  0.47787270767E+02  0.19999998736E+02 0.  0.
         12    1    1    2    0    0  0.70372514126E+01 -0.18239892662E+02 -0.38747989705E+02  0.43400729233E+02  0.00000000000E+00 0. -1.
         11    1    3    3    0    0 -0.72009633003E+01  0.93821540871E+01  0.22714596252E+02  0.25609208713E+02  0.51100000000E-03 0. -1.
        -11    1    3    3    0    0 -0.27276675993E+01  0.58711628501E+01  0.16752103367E+02  0.17959501419E+02  0.51100000000E-03 0.  1.
         12    1    3    3    0    0  0.28913794870E+01  0.29865757243E+01 -0.71870991315E+00  0.42185606353E+01  0.00000000000E+00 0. -1.
</event>
<event>
 7    1  0.2339217E-009  0.4778728E+02  0.7816164E-02  0.1312668E+00
        -11   -1    0    0    0    0  0.00000000000E+00  0.00000000000E+00  0.45593999997E+02  0.45594000000E+02  0.51100000000E-03 0.  1.
         11   -1    0    0    0    0 -0.00000000000E+00 -0.00000000000E+00 -0.45593999997E+02  0.45594000000E+02  0.51100000000E-03 0. -1.
    9900012    2    1    2    0    0 -0.13238299047E+02  0.22830310244E+02  0.34454997192E+02  0.47787280432E+02  0.20000042804E+02 0.  0.
         12    1    1    2    0    0  0.13238299047E+02 -0.22830310244E+02 -0.34454997192E+02  0.43400719568E+02  0.00000000000E+00 0. -1.
         11    1    3    3    0    0 -0.10418728743E+02  0.78032214797E+01  0.53562127940E+01  0.14075837092E+02  0.51100000000E-03 0.  1.
        -11    1    3    3    0    0  0.81263624986E+00  0.53335269765E+01  0.45077248364E+01  0.70303962296E+01  0.51100000000E-03 0. -1.
         12    1    3    3    0    0 -0.36322065536E+01  0.96935617882E+01  0.24591059561E+02  0.26681047111E+02  0.00000000000E+00 0. -1.
</event>
<event>
 7    1  0.2339217E-009  0.4778727E+02  0.7816164E-02  0.1312668E+00
        -11   -1    0    0    0    0  0.00000000000E+00  0.00000000000E+00  0.45593999997E+02  0.45594000000E+02  0.51100000000E-03 0.  1.
         11   -1    0    0    0    0 -0.00000000000E+00 -0.00000000000E+00 -0.45593999997E+02  0.45594000000E+02  0.51100000000E-03 0. -1.
    9900012    2    1    2    0    0 -0.51182702208E+01  0.22182185676E+02  0.36951007650E+02  0.47787273996E+02  0.20000013455E+02 0.  0.
         12    1    1    2    0    0  0.51182702208E+01 -0.22182185676E+02 -0.36951007650E+02  0.43400726004E+02  0.00000000000E+00 0. -1.
         11    1    3    3    0    0 -0.18724784244E+00  0.96504556498E+01  0.20153358407E+02  0.22345563572E+02  0.51100000000E-03 0. -1.
        -11    1    3    3    0    0  0.79220723394E+00  0.12647142895E+02  0.14543035756E+02  0.19289315825E+02  0.51100000000E-03 0.  1.
         12    1    3    3    0    0 -0.57232296123E+01 -0.11541286969E+00  0.22546134860E+01  0.61523945986E+01  0.00000000000E+00 0. -1.
</event>
<event>
 7    1  0.2339217E-009  0.4778727E+02  0.7816164E-02  0.1312668E+00
        -11   -1    0    0    0    0  0.00000000000E+00  0.00000000000E+00  0.45593999997E+02  0.45594000000E+02  0.51100000000E-03 0.  1.
         11   -1    0    0    0    0 -0.00000000000E+00 -0.00000000000E+00 -0.45593999997E+02  0.45594000000E+02  0.51100000000E-03 0. -1.
    9900012    2    1    2    0    0 -0.12981490536E+01  0.26993122515E+02  0.33960408809E+02  0.47787271659E+02  0.20000002802E+02 0.  0.
         12    1    1    2    0    0  0.12981490536E+01 -0.26993122515E+02 -0.33960408809E+02  0.43400728341E+02  0.00000000000E+00 0. -1.
         11    1    3    3    0    0 -0.56869863917E+01  0.17912294529E+02  0.23369699825E+02  0.29988914280E+02  0.51100000000E-03 0. -1.
        -11    1    3    3    0    0  0.31550325000E+01  0.50229311960E+01  0.11952814762E+02  0.13343681983E+02  0.51100000000E-03 0.  1.
         12    1    3    3    0    0  0.12338048381E+01  0.40578967898E+01 -0.13621057778E+01  0.44546753962E+01  0.00000000000E+00 0. -1.
</event>
<event>
 7    1  0.2339217E-009  0.4778727E+02  0.7816164E-02  0.1312668E+00
        -11   -1    0    0    0    0  0.00000000000E+00  0.00000000000E+00  0.45593999997E+02  0.45594000000E+02  0.51100000000E-03 0.  1.
         11   -1    0    0    0    0 -0.00000000000E+00 -0.00000000000E+00 -0.45593999997E+02  0.45594000000E+02  0.51100000000E-03 0. -1.
    9900012    2    1    2    0    0  0.25865844377E+02 -0.19970771714E+00  0.34850273717E+02  0.47787269976E+02  0.19999995127E+02 0.  0.
         12    1    1    2    0    0 -0.25865844377E+02  0.19970771714E+00 -0.34850273717E+02  0.43400730024E+02  0.00000000000E+00 0. -1.
         11    1    3    3    0    0  0.13395235696E+02 -0.30567354642E+01  0.76886178721E+01  0.15744548774E+02  0.51100000000E-03 0. -1.
        -11    1    3    3    0    0  0.82562070176E+01 -0.38123626306E+01  0.13845449007E+02  0.16564888216E+02  0.51100000000E-03 0.  1.
         12    1    3    3    0    0  0.42144016638E+01  0.66693903777E+01  0.13316206838E+02  0.15477832986E+02  0.00000000000E+00 0. -1.
</event>
<event>
 7    1  0.2339217E-009  0.4778727E+02  0.7816164E-02  0.1312668E+00
        -11   -1    0    0    0    0  0.00000000000E+00  0.00000000000E+00  0.45593999997E+02  0.45594000000E+02  0.51100000000E-03 0.  1.
         11   -1    0    0    0    0 -0.00000000000E+00 -0.00000000000E+00 -0.45593999997E+02  0.45594000000E+02  0.51100000000E-03 0. -1.
    9900012    2    1    2    0    0  0.10239065527E+02 -0.40520566137E+02  0.11699093308E+02  0.47787268126E+02  0.19999986696E+02 0.  0.
         12    1    1    2    0    0 -0.10239065527E+02  0.40520566137E+02 -0.11699093308E+02  0.43400731874E+02  0.00000000000E+00 0. -1.
         11    1    3    3    0    0  0.10040927974E+02 -0.17646776559E+02  0.11202104763E+02  0.23188706494E+02  0.51100000000E-03 0. -1.
        -11    1    3    3    0    0 -0.96015049023E+00 -0.28891606146E+01  0.31787688077E+01  0.44015576123E+01  0.51100000000E-03 0.  1.
        -12    1    3    3    0    0  0.11582880430E+01 -0.19984628964E+02 -0.26817802625E+01  0.20197004020E+02  0.00000000000E+00 0.  1.
</event>
<event>
 7    1  0.2339217E-009  0.4778727E+02  0.7816164E-02  0.1312668E+00
        -11   -1    0    0    0    0  0.00000000000E+00  0.00000000000E+00  0.45593999997E+02  0.45594000000E+02  0.51100000000E-03 0. -1.
         11   -1    0    0    0    0 -0.00000000000E+00 -0.00000000000E+00 -0.45593999997E+02  0.45594000000E+02  0.51100000000E-03 0.  1.
    9900012    2    1    2    0    0  0.71192458284E+01  0.33142713619E+02  0.27101659065E+02  0.47787273609E+02  0.20000011692E+02 0.  0.
         12    1    1    2    0    0 -0.71192458284E+01 -0.33142713619E+02 -0.27101659065E+02  0.43400726391E+02  0.00000000000E+00 0. -1.
         11    1    3    3    0    0  0.30962616378E+01  0.16677234640E+02  0.72366838989E+01  0.18441436644E+02  0.51100000000E-03 0. -1.
        -11    1    3    3    0    0  0.75455865816E+01  0.10181560382E+02  0.66906948805E+01  0.14330577341E+02  0.51100000000E-03 0.  1.
         12    1    3    3    0    0 -0.35226023910E+01  0.62839185968E+01  0.13174280286E+02  0.15015259624E+02  0.00000000000E+00 0. -1.
</event>
<event>
 7    1  0.2339217E-009  0.4778727E+02  0.7816164E-02  0.1312668E+00
        -11   -1    0    0    0    0  0.00000000000E+00  0.00000000000E+00  0.45593999997E+02  0.45594000000E+02  0.51100000000E-03 0.  1.
         11   -1    0    0    0    0 -0.00000000000E+00 -0.00000000000E+00 -0.45593999997E+02  0.45594000000E+02  0.51100000000E-03 0. -1.
    9900012    2    1    2    0    0  0.37538492836E+02 -0.17667442046E+02  0.12741513017E+02  0.47787272969E+02  0.20000008777E+02 0.  0.
         12    1    1    2    0    0 -0.37538492836E+02  0.17667442046E+02 -0.12741513017E+02  0.43400727031E+02  0.00000000000E+00 0. -1.
         11    1    3    3    0    0  0.12693892174E+02 -0.22534598849E+01  0.41468602229E+01  0.13542873770E+02  0.51100000000E-03 0. -1.
        -11    1    3    3    0    0  0.13844226546E+02 -0.76164112577E+00 -0.31959969229E+00  0.13868844584E+02  0.51100000000E-03 0.  1.
         12    1    3    3    0    0  0.11000374115E+02 -0.14652341036E+02  0.89142524862E+01  0.20375554615E+02  0.00000000000E+00 0. -1.
</event>
<event>
 7    1  0.2339217E-009  0.4778728E+02  0.7816164E-02  0.1312668E+00
        -11   -1    0    0    0    0  0.00000000000E+00  0.00000000000E+00  0.45593999997E+02  0.45594000000E+02  0.51100000000E-03 0.  1.
         11   -1    0    0    0    0 -0.00000000000E+00 -0.00000000000E+00 -0.45593999997E+02  0.45594000000E+02  0.51100000000E-03 0. -1.
    9900012    2    1    2    0    0 -0.19656759247E+02 -0.23518135014E+02  0.30726730181E+02  0.47787276432E+02  0.20000024562E+02 0.  0.
         12    1    1    2    0    0  0.19656759247E+02  0.23518135014E+02 -0.30726730181E+02  0.43400723568E+02  0.00000000000E+00 0. -1.
         11    1    3    3    0    0 -0.46295900273E+01  0.75478639763E+00  0.31289977566E+01  0.56385666218E+01  0.51100000000E-03 0. -1.
        -11    1    3    3    0    0 -0.75271690725E+01 -0.10454606929E+02  0.21933813842E+02  0.25437163171E+02  0.51100000000E-03 0.  1.
         12    1    3    3    0    0 -0.75000001472E+01 -0.13818314482E+02  0.56639185832E+01  0.16711546639E+02  0.00000000000E+00 0. -1.
</event>
<event>
 7    1  0.2339217E-009  0.4778727E+02  0.7816164E-02  0.1312668E+00
        -11   -1    0    0    0    0  0.00000000000E+00  0.00000000000E+00  0.45593999997E+02  0.45594000000E+02  0.51100000000E-03 0.  1.
         11   -1    0    0    0    0 -0.00000000000E+00 -0.00000000000E+00 -0.45593999997E+02  0.45594000000E+02  0.51100000000E-03 0. -1.
    9900012    2    1    2    0    0 -0.21378622873E+02  0.11369387808E+02  0.36018253137E+02  0.47787273576E+02  0.20000011544E+02 0.  0.
         12    1    1    2    0    0  0.21378622873E+02 -0.11369387808E+02 -0.36018253137E+02  0.43400726424E+02  0.00000000000E+00 0. -1.
         11    1    3    3    0    0 -0.63114124300E+01 -0.29686479728E+01  0.35066057323E+01  0.78066050029E+01  0.51100000000E-03 0. -1.
        -11    1    3    3    0    0 -0.94367558440E+01  0.50725746414E+01  0.86443580868E+01  0.13766201413E+02  0.51100000000E-03 0.  1.
        -12    1    3    3    0    0 -0.56304545988E+01  0.92654611391E+01  0.23867289318E+02  0.26214467160E+02  0.00000000000E+00 0.  1.
</event>
<event>
 7    1  0.2339217E-009  0.4778727E+02  0.7816164E-02  0.1312668E+00
        -11   -1    0    0    0    0  0.00000000000E+00  0.00000000000E+00  0.45593999997E+02  0.45594000000E+02  0.51100000000E-03 0.  1.
         11   -1    0    0    0    0 -0.00000000000E+00 -0.00000000000E+00 -0.45593999997E+02  0.45594000000E+02  0.51100000000E-03 0. -1.
    9900012    2    1    2    0    0 -0.26893770853E+02 -0.25609537254E+02  0.22461070683E+02  0.47787274139E+02  0.20000014110E+02 0.  0.
         12    1    1    2    0    0  0.26893770853E+02  0.25609537254E+02 -0.22461070683E+02  0.43400725861E+02  0.00000000000E+00 0. -1.
         11    1    3    3    0    0 -0.12037388455E+01 -0.64788586210E+01  0.34389198821E+01  0.74330859309E+01  0.51100000000E-03 0. -1.
        -11    1    3    3    0    0 -0.14533916716E+02 -0.14803631168E+02  0.19370743231E+02  0.28383233157E+02  0.51100000000E-03 0.  1.
         12    1    3    3    0    0 -0.11156115292E+02 -0.43270474650E+01 -0.34859243053E+00  0.11970955052E+02  0.00000000000E+00 0. -1.
</event>
<event>
 7    1  0.2339217E-009  0.4778727E+02  0.7816164E-02  0.1312668E+00
        -11   -1    0    0    0    0  0.00000000000E+00  0.00000000000E+00  0.45593999997E+02  0.45594000000E+02  0.51100000000E-03 0.  1.
         11   -1    0    0    0    0 -0.00000000000E+00 -0.00000000000E+00 -0.45593999997E+02  0.45594000000E+02  0.51100000000E-03 0. -1.
    9900012    2    1    2    0    0  0.20834310872E+02 -0.31284967514E+02  0.21698050092E+02  0.47787273282E+02  0.20000010203E+02 0.  0.
         12    1    1    2    0    0 -0.20834310872E+02  0.31284967514E+02 -0.21698050092E+02  0.43400726718E+02  0.00000000000E+00 0. -1.
         11    1    3    3    0    0  0.39610319270E+01 -0.11106859035E+02  0.19593945811E+00  0.11793662878E+02  0.51100000000E-03 0. -1.
        -11    1    3    3    0    0  0.17181244536E+02 -0.16478693656E+02  0.13985882245E+02  0.27610639450E+02  0.51100000000E-03 0.  1.
         12    1    3    3    0    0 -0.30796559041E+00 -0.36994148227E+01  0.75162283882E+01  0.83829709543E+01  0.00000000000E+00 0. -1.
</event>
<event>
 7    1  0.2339217E-009  0.4778728E+02  0.7816164E-02  0.1312668E+00
        -11   -1    0    0    0    0  0.00000000000E+00  0.00000000000E+00  0.45593999997E+02  0.45594000000E+02  0.51100000000E-03 0. -1.
         11   -1    0    0    0    0 -0.00000000000E+00 -0.00000000000E+00 -0.45593999997E+02  0.45594000000E+02  0.51100000000E-03 0.  1.
    9900012    2    1    2    0    0  0.28590821044E+02 -0.50609045762E+01 -0.32257938770E+02  0.47787280919E+02  0.20000045021E+02 0.  0.
         12    1    1    2    0    0 -0.28590821044E+02  0.50609045762E+01  0.32257938770E+02  0.43400719081E+02  0.00000000000E+00 0. -1.
         11    1    3    3    0    0  0.46429702788E+01 -0.24677432993E+01 -0.13880018566E+02  0.14842568701E+02  0.51100000000E-03 0. -1.
        -11    1    3    3    0    0  0.10573828726E+02 -0.75517598572E+01 -0.74664834722E+01  0.14986103782E+02  0.51100000000E-03 0.  1.
        -12    1    3    3    0    0  0.13374022039E+02  0.49585985802E+01 -0.10911436732E+02  0.17958608435E+02  0.00000000000E+00 0.  1.
</event>
<event>
 7    1  0.2339217E-009  0.4778727E+02  0.7816164E-02  0.1312668E+00
        -11   -1    0    0    0    0  0.00000000000E+00  0.00000000000E+00  0.45593999997E+02  0.45594000000E+02  0.51100000000E-03 0.  1.
         11   -1    0    0    0    0 -0.00000000000E+00 -0.00000000000E+00 -0.45593999997E+02  0.45594000000E+02  0.51100000000E-03 0. -1.
    9900012    2    1    2    0    0 -0.18258829391E+02 -0.26018088399E+02  0.29551605304E+02  0.47787272463E+02  0.20000006468E+02 0.  0.
         12    1    1    2    0    0  0.18258829391E+02  0.26018088399E+02 -0.29551605304E+02  0.43400727537E+02  0.00000000000E+00 0. -1.
         11    1    3    3    0    0 -0.14862970404E+01 -0.91486805982E+01  0.15515138683E+02  0.18072823913E+02  0.51100000000E-03 0. -1.
        -11    1    3    3    0    0 -0.42298245733E+01 -0.78542629842E+01  0.10665514667E+02  0.13904462101E+02  0.51100000000E-03 0.  1.
         12    1    3    3    0    0 -0.12542707777E+02 -0.90151448169E+01  0.33709519548E+01  0.15809986449E+02  0.00000000000E+00 0. -1.
</event>
<event>
 7    1  0.2339217E-009  0.4778727E+02  0.7816164E-02  0.1312668E+00
        -11   -1    0    0    0    0  0.00000000000E+00  0.00000000000E+00  0.45593999997E+02  0.45594000000E+02  0.51100000000E-03 0.  1.
         11   -1    0    0    0    0 -0.00000000000E+00 -0.00000000000E+00 -0.45593999997E+02  0.45594000000E+02  0.51100000000E-03 0. -1.
    9900012    2    1    2    0    0  0.15447899008E+02  0.20478669450E+02  0.35008714750E+02  0.47787267349E+02  0.19999983153E+02 0.  0.
         12    1    1    2    0    0 -0.15447899008E+02 -0.20478669450E+02 -0.35008714750E+02  0.43400732651E+02  0.00000000000E+00 0. -1.
         11    1    3    3    0    0 -0.97107470741E+00  0.13080257101E+01  0.12469291949E+01  0.20515238297E+01  0.51100000000E-03 0. -1.
        -11    1    3    3    0    0 -0.21132306992E+01  0.88674277487E+01  0.14276651394E+02  0.16938706980E+02  0.51100000000E-03 0.  1.
         12    1    3    3    0    0  0.18532204414E+02  0.10303215991E+02  0.19485134160E+02  0.28797036539E+02  0.00000000000E+00 0. -1.
</event>
<event>
 7    1  0.2339217E-009  0.4778727E+02  0.7816164E-02  0.1312668E+00
        -11   -1    0    0    0    0  0.00000000000E+00  0.00000000000E+00  0.45593999997E+02  0.45594000000E+02  0.51100000000E-03 0.  1.
         11   -1    0    0    0    0 -0.00000000000E+00 -0.00000000000E+00 -0.45593999997E+02  0.45594000000E+02  0.51100000000E-03 0. -1.
    9900012    2    1    2    0    0 -0.17461901699E+02 -0.14940068136E+02  0.36817109937E+02  0.47787271539E+02  0.20000002256E+02 0.  0.
         12    1    1    2    0    0  0.17461901699E+02  0.14940068136E+02 -0.36817109937E+02  0.43400728461E+02  0.00000000000E+00 0. -1.
         11    1    3    3    0    0 -0.58933512846E+01 -0.54007214810E+01  0.19356235121E+02  0.20941901065E+02  0.51100000000E-03 0. -1.
        -11    1    3    3    0    0 -0.10883539531E+01 -0.83072800608E+01  0.12826012589E+02  0.15319987452E+02  0.51100000000E-03 0.  1.
         12    1    3    3    0    0 -0.10480196461E+02 -0.12320665941E+01  0.46348622268E+01  0.11525383023E+02  0.00000000000E+00 0. -1.
</event>
<event>
 7    1  0.2339217E-009  0.4778727E+02  0.7816164E-02  0.1312668E+00
        -11   -1    0    0    0    0  0.00000000000E+00  0.00000000000E+00  0.45593999997E+02  0.45594000000E+02  0.51100000000E-03 0.  1.
         11   -1    0    0    0    0 -0.00000000000E+00 -0.00000000000E+00 -0.45593999997E+02  0.45594000000E+02  0.51100000000E-03 0. -1.
    9900012    2    1    2    0    0  0.32245272252E+02 -0.15334801566E+02  0.24672041196E+02  0.47787270301E+02  0.19999996608E+02 0.  0.
         12    1    1    2    0    0 -0.32245272252E+02  0.15334801566E+02 -0.24672041196E+02  0.43400729699E+02  0.00000000000E+00 0. -1.
         11    1    3    3    0    0  0.60649201531E+01  0.28443573745E+01  0.63122156175E+00  0.67284519957E+01  0.51100000000E-03 0. -1.
        -11    1    3    3    0    0  0.23114293574E+01 -0.61098746137E+01  0.44302416940E+01  0.78930548711E+01  0.51100000000E-03 0.  1.
        -12    1    3    3    0    0  0.23868922741E+02 -0.12069284327E+02  0.19610577940E+02  0.33165763434E+02  0.00000000000E+00 0.  1.
</event>
<event>
 7    1  0.2339217E-009  0.4778726E+02  0.7816164E-02  0.1312668E+00
        -11   -1    0    0    0    0  0.00000000000E+00  0.00000000000E+00  0.45593999997E+02  0.45594000000E+02  0.51100000000E-03 0.  1.
         11   -1    0    0    0    0 -0.00000000000E+00 -0.00000000000E+00 -0.45593999997E+02  0.45594000000E+02  0.51100000000E-03 0. -1.
    9900012    2    1    2    0    0 -0.31034375940E+01  0.21787790683E+02  0.37407021732E+02  0.47787257811E+02  0.19999939664E+02 0.  0.
         12    1    1    2    0    0  0.31034375940E+01 -0.21787790683E+02 -0.37407021732E+02  0.43400742189E+02  0.00000000000E+00 0. -1.
         11    1    3    3    0    0 -0.93273580616E+00  0.47626100538E+00  0.83464406822E+01  0.84118899750E+01  0.51100000000E-03 0. -1.
        -11    1    3    3    0    0 -0.19353037952E+00  0.80770107914E+00  0.13586245985E+02  0.13611609577E+02  0.51100000000E-03 0.  1.
        -12    1    3    3    0    0 -0.19771714083E+01  0.20503828598E+02  0.15474335064E+02  0.25763758259E+02  0.00000000000E+00 0.  1.
</event>
<event>
 7    1  0.2339217E-009  0.4778727E+02  0.7816164E-02  0.1312668E+00
        -11   -1    0    0    0    0  0.00000000000E+00  0.00000000000E+00  0.45593999997E+02  0.45594000000E+02  0.51100000000E-03 0. -1.
         11   -1    0    0    0    0 -0.00000000000E+00 -0.00000000000E+00 -0.45593999997E+02  0.45594000000E+02  0.51100000000E-03 0.  1.
    9900012    2    1    2    0    0 -0.18906885030E+01 -0.31239038570E+02 -0.30069439779E+02  0.47787269103E+02  0.19999991149E+02 0.  0.
         12    1    1    2    0    0  0.18906885030E+01  0.31239038570E+02  0.30069439779E+02  0.43400730897E+02  0.00000000000E+00 0. -1.
         11    1    3    3    0    0  0.10274689838E+01 -0.47452268779E+01  0.29841370684E+00  0.48643521292E+01  0.51100000000E-03 0. -1.
        -11    1    3    3    0    0 -0.66507172456E+01 -0.17416667536E+02 -0.12220461101E+02  0.22291523450E+02  0.51100000000E-03 0.  1.
        -12    1    3    3    0    0  0.37325597587E+01 -0.90771441556E+01 -0.18147392385E+02  0.20631393524E+02  0.00000000000E+00 0.  1.
</event>
<event>
 7    1  0.2339217E-009  0.4778727E+02  0.7816164E-02  0.1312668E+00
        -11   -1    0    0    0    0  0.00000000000E+00  0.00000000000E+00  0.45593999997E+02  0.45594000000E+02  0.51100000000E-03 0. -1.
         11   -1    0    0    0    0 -0.00000000000E+00 -0.00000000000E+00 -0.45593999997E+02  0.45594000000E+02  0.51100000000E-03 0.  1.
    9900012    2    1    2    0    0  0.45134556802E+01  0.17808262275E+02 -0.39320705297E+02  0.47787270139E+02  0.19999995872E+02 0.  0.
         12    1    1    2    0    0 -0.45134556802E+01 -0.17808262275E+02  0.39320705297E+02  0.43400729861E+02  0.00000000000E+00 0. -1.
         11    1    3    3    0    0 -0.40770789248E-01  0.18228828852E+02 -0.31142927918E+02  0.36085645666E+02  0.51100000000E-03 0. -1.
        -11    1    3    3    0    0  0.12030874895E+01  0.29020503984E+01 -0.13917483661E+01  0.34360267458E+01  0.51100000000E-03 0.  1.
        -12    1    3    3    0    0  0.33511389799E+01 -0.33226169756E+01 -0.67860290130E+01  0.82655977276E+01  0.00000000000E+00 0.  1.
</event>
<event>
 7    1  0.2339217E-009  0.4778727E+02  0.7816164E-02  0.1312668E+00
        -11   -1    0    0    0    0  0.00000000000E+00  0.00000000000E+00  0.45593999997E+02  0.45594000000E+02  0.51100000000E-03 0.  1.
         11   -1    0    0    0    0 -0.00000000000E+00 -0.00000000000E+00 -0.45593999997E+02  0.45594000000E+02  0.51100000000E-03 0. -1.
    9900012    2    1    2    0    0 -0.29415256511E+02 -0.44838489937E+01  0.31595272954E+02  0.47787268549E+02  0.19999988624E+02 0.  0.
         12    1    1    2    0    0  0.29415256511E+02  0.44838489937E+01 -0.31595272954E+02  0.43400731451E+02  0.00000000000E+00 0. -1.
         11    1    3    3    0    0 -0.77608541912E+01  0.27829324243E+01  0.20912599737E+01  0.85058179615E+01  0.51100000000E-03 0. -1.
        -11    1    3    3    0    0 -0.19908243941E+02 -0.27229985220E+01  0.18776058222E+02  0.27500786541E+02  0.51100000000E-03 0.  1.
         12    1    3    3    0    0 -0.17461583788E+01 -0.45437828960E+01  0.10727954758E+02  0.11780664047E+02  0.00000000000E+00 0. -1.
</event>
<event>
 7    1  0.2339217E-009  0.4778727E+02  0.7816164E-02  0.1312668E+00
        -11   -1    0    0    0    0  0.00000000000E+00  0.00000000000E+00  0.45593999997E+02  0.45594000000E+02  0.51100000000E-03 0. -1.
         11   -1    0    0    0    0 -0.00000000000E+00 -0.00000000000E+00 -0.45593999997E+02  0.45594000000E+02  0.51100000000E-03 0.  1.
    9900012    2    1    2    0    0  0.36617411114E+02  0.15369904637E+02 -0.17508708638E+02  0.47787266787E+02  0.19999980590E+02 0.  0.
         12    1    1    2    0    0 -0.36617411114E+02 -0.15369904637E+02  0.17508708638E+02  0.43400733213E+02  0.00000000000E+00 0. -1.
         11    1    3    3    0    0  0.15093960222E+02  0.18337586128E+01 -0.92468747882E+01  0.17795926484E+02  0.51100000000E-03 0. -1.
        -11    1    3    3    0    0  0.26488111525E+01 -0.19643258625E+01  0.15832247988E+01  0.36580565387E+01  0.51100000000E-03 0.  1.
        -12    1    3    3    0    0  0.18874639740E+02  0.15500471887E+02 -0.98450586483E+01  0.26333283764E+02  0.00000000000E+00 0.  1.
</event>
<event>
 7    1  0.2339217E-009  0.4778727E+02  0.7816164E-02  0.1312668E+00
        -11   -1    0    0    0    0  0.00000000000E+00  0.00000000000E+00  0.45593999997E+02  0.45594000000E+02  0.51100000000E-03 0.  1.
         11   -1    0    0    0    0 -0.00000000000E+00 -0.00000000000E+00 -0.45593999997E+02  0.45594000000E+02  0.51100000000E-03 0. -1.
    9900012    2    1    2    0    0  0.23132452891E+02  0.48898200702E+01  0.36395089655E+02  0.47787271111E+02  0.20000000304E+02 0.  0.
         12    1    1    2    0    0 -0.23132452891E+02 -0.48898200702E+01 -0.36395089655E+02  0.43400728889E+02  0.00000000000E+00 0. -1.
         11    1    3    3    0    0 -0.16516421602E+00 -0.23461833826E+01  0.81264752073E+01  0.84599914444E+01  0.51100000000E-03 0. -1.
        -11    1    3    3    0    0  0.11845068614E+02 -0.11752641993E+01  0.71892489570E+01  0.13905833209E+02  0.51100000000E-03 0.  1.
         12    1    3    3    0    0  0.11452548493E+02  0.84112676521E+01  0.21079365491E+02  0.25421446458E+02  0.00000000000E+00 0. -1.
</event>
<event>
 7    1  0.2339217E-009  0.4778727E+02  0.7816164E-02  0.1312668E+00
        -11   -1    0    0    0    0  0.00000000000E+00  0.00000000000E+00  0.45593999997E+02  0.45594000000E+02  0.51100000000E-03 0.  1.
         11   -1    0    0    0    0 -0.00000000000E+00 -0.00000000000E+00 -0.45593999997E+02  0.45594000000E+02  0.51100000000E-03 0. -1.
    9900012    2    1    2    0    0 -0.22355704455E+02 -0.36414816740E+02 -0.76030698996E+01  0.47787273372E+02  0.20000010613E+02 0.  0.
         12    1    1    2    0    0  0.22355704455E+02  0.36414816740E+02  0.76030698996E+01  0.43400726628E+02  0.00000000000E+00 0. -1.
         11    1    3    3    0    0 -0.25085773330E+01  0.80281453612E+00  0.16420507449E+01  0.31038367104E+01  0.51100000000E-03 0. -1.
        -11    1    3    3    0    0 -0.48812671866E+01 -0.17863753610E+01 -0.18455398003E+01  0.55157885830E+01  0.51100000000E-03 0.  1.
        -12    1    3    3    0    0 -0.14965859936E+02 -0.35431255915E+02 -0.73995808442E+01  0.39167648079E+02  0.00000000000E+00 0.  1.
</event>
<event>
 7    1  0.2339217E-009  0.4778726E+02  0.7816164E-02  0.1312668E+00
        -11   -1    0    0    0    0  0.00000000000E+00  0.00000000000E+00  0.45593999997E+02  0.45594000000E+02  0.51100000000E-03 0.  1.
         11   -1    0    0    0    0 -0.00000000000E+00 -0.00000000000E+00 -0.45593999997E+02  0.45594000000E+02  0.51100000000E-03 0. -1.
    9900012    2    1    2    0    0 -0.37356897464E+02  0.51851735902E+01  0.21475569984E+02  0.47787263607E+02  0.19999966091E+02 0.  0.
         12    1    1    2    0    0  0.37356897464E+02 -0.51851735902E+01 -0.21475569984E+02  0.43400736393E+02  0.00000000000E+00 0. -1.
         11    1    3    3    0    0 -0.55139121521E+01 -0.91600931043E+00  0.75831437025E+01  0.94205291227E+01  0.51100000000E-03 0. -1.
        -11    1    3    3    0    0 -0.31126039855E+01  0.50848428406E+01  0.62121401216E+01  0.86101460751E+01  0.51100000000E-03 0.  1.
         12    1    3    3    0    0 -0.28730381326E+02  0.10163400600E+01  0.76802861596E+01  0.29756588410E+02  0.00000000000E+00 0. -1.
</event>
<event>
 7    1  0.2339217E-009  0.4778725E+02  0.7816164E-02  0.1312668E+00
        -11   -1    0    0    0    0  0.00000000000E+00  0.00000000000E+00  0.45593999997E+02  0.45594000000E+02  0.51100000000E-03 0.  1.
         11   -1    0    0    0    0 -0.00000000000E+00 -0.00000000000E+00 -0.45593999997E+02  0.45594000000E+02  0.51100000000E-03 0. -1.
    9900012    2    1    2    0    0  0.18728843386E+02  0.92080439189E+01  0.38053477904E+02  0.47787253140E+02  0.19999918368E+02 0.  0.
         12    1    1    2    0    0 -0.18728843386E+02 -0.92080439189E+01 -0.38053477904E+02  0.43400746860E+02  0.00000000000E+00 0. -1.
         11    1    3    3    0    0 -0.16220412122E+01  0.26432253491E+01  0.23895779595E+01  0.39150659031E+01  0.51100000000E-03 0. -1.
        -11    1    3    3    0    0  0.12730089084E+02  0.93883999005E+01  0.15561567507E+02  0.22189177639E+02  0.51100000000E-03 0.  1.
        -12    1    3    3    0    0  0.76207955145E+01 -0.28235813306E+01  0.20102332437E+02  0.21683009598E+02  0.00000000000E+00 0.  1.
</event>
<event>
 7    1  0.2339217E-009  0.4778728E+02  0.7816164E-02  0.1312668E+00
        -11   -1    0    0    0    0  0.00000000000E+00  0.00000000000E+00  0.45593999997E+02  0.45594000000E+02  0.51100000000E-03 0. -1.
         11   -1    0    0    0    0 -0.00000000000E+00 -0.00000000000E+00 -0.45593999997E+02  0.45594000000E+02  0.51100000000E-03 0.  1.
    9900012    2    1    2    0    0  0.13824892237E+02 -0.22483075329E+02 -0.34452959501E+02  0.47787277195E+02  0.20000028042E+02 0.  0.
         12    1    1    2    0    0 -0.13824892237E+02  0.22483075329E+02  0.34452959501E+02  0.43400722805E+02  0.00000000000E+00 0. -1.
         11    1    3    3    0    0 -0.87424026632E+00 -0.23923015490E+01 -0.85338045969E+01  0.89057972076E+01  0.51100000000E-03 0. -1.
        -11    1    3    3    0    0  0.12569168659E+02 -0.72180090229E+01 -0.19618708907E+02  0.24392158463E+02  0.51100000000E-03 0.  1.
         12    1    3    3    0    0  0.21299638445E+01 -0.12872764757E+02 -0.63004459975E+01  0.14489321524E+02  0.00000000000E+00 0. -1.
</event>
<event>
 7    1  0.2339217E-009  0.4778725E+02  0.7816164E-02  0.1312668E+00
        -11   -1    0    0    0    0  0.00000000000E+00  0.00000000000E+00  0.45593999997E+02  0.45594000000E+02  0.51100000000E-03 0.  1.
         11   -1    0    0    0    0 -0.00000000000E+00 -0.00000000000E+00 -0.45593999997E+02  0.45594000000E+02  0.51100000000E-03 0. -1.
    9900012    2    1    2    0    0 -0.26045387911E+02  0.20500028021E+02  0.28018067364E+02  0.47787245639E+02  0.19999884166E+02 0.  0.
         12    1    1    2    0    0  0.26045387911E+02 -0.20500028021E+02 -0.28018067364E+02  0.43400754361E+02  0.00000000000E+00 0. -1.
         11    1    3    3    0    0 -0.88546868735E+01  0.15275320053E+01  0.86790085761E+01  0.12492558736E+02  0.51100000000E-03 0. -1.
        -11    1    3    3    0    0 -0.35234977802E+01  0.27188145040E+01 -0.22712036475E+01  0.49965343173E+01  0.51100000000E-03 0.  1.
        -12    1    3    3    0    0 -0.13667203257E+02  0.16253681511E+02  0.21610262435E+02  0.30298152585E+02  0.00000000000E+00 0.  1.
</event>
<event>
 7    1  0.2339217E-009  0.4778727E+02  0.7816164E-02  0.1312668E+00
        -11   -1    0    0    0    0  0.00000000000E+00  0.00000000000E+00  0.45593999997E+02  0.45594000000E+02  0.51100000000E-03 0.  1.
         11   -1    0    0    0    0 -0.00000000000E+00 -0.00000000000E+00 -0.45593999997E+02  0.45594000000E+02  0.51100000000E-03 0. -1.
    9900012    2    1    2    0    0  0.10751996755E+02  0.33330665566E+02  0.25633661439E+02  0.47787270743E+02  0.19999998625E+02 0.  0.
         12    1    1    2    0    0 -0.10751996755E+02 -0.33330665566E+02 -0.25633661439E+02  0.43400729257E+02  0.00000000000E+00 0. -1.
         11    1    3    3    0    0  0.41685279632E+01  0.55089208746E+01  0.43520999479E+01  0.81649010282E+01  0.51100000000E-03 0. -1.
        -11    1    3    3    0    0 -0.28294205255E+01  0.54936848028E+01  0.12327900128E+02  0.13789971539E+02  0.51100000000E-03 0.  1.
        -12    1    3    3    0    0  0.94128893171E+01  0.22328059889E+02  0.89536613628E+01  0.25832398175E+02  0.00000000000E+00 0.  1.
</event>
<event>
 7    1  0.2339217E-009  0.4778727E+02  0.7816164E-02  0.1312668E+00
        -11   -1    0    0    0    0  0.00000000000E+00  0.00000000000E+00  0.45593999997E+02  0.45594000000E+02  0.51100000000E-03 0. -1.
         11   -1    0    0    0    0 -0.00000000000E+00 -0.00000000000E+00 -0.45593999997E+02  0.45594000000E+02  0.51100000000E-03 0.  1.
    9900012    2    1    2    0    0  0.36133168005E+02  0.13154926621E+02 -0.20123752104E+02  0.47787270476E+02  0.19999997408E+02 0.  0.
         12    1    1    2    0    0 -0.36133168005E+02 -0.13154926621E+02  0.20123752104E+02  0.43400729524E+02  0.00000000000E+00 0. -1.
         11    1    3    3    0    0 -0.27186016723E+00 -0.95083697824E-01 -0.85312404758E+00  0.90042754389E+00  0.51100000000E-03 0. -1.
        -11    1    3    3    0    0  0.30313096412E+02  0.17100658969E+02 -0.19050354006E+02  0.39676596871E+02  0.51100000000E-03 0.  1.
        -12    1    3    3    0    0  0.60919317604E+01 -0.38506486505E+01 -0.22027405015E+00  0.72102460611E+01  0.00000000000E+00 0.  1.
</event>
<event>
 7    1  0.2339217E-009  0.4778728E+02  0.7816164E-02  0.1312668E+00
        -11   -1    0    0    0    0  0.00000000000E+00  0.00000000000E+00  0.45593999997E+02  0.45594000000E+02  0.51100000000E-03 0.  1.
         11   -1    0    0    0    0 -0.00000000000E+00 -0.00000000000E+00 -0.45593999997E+02  0.45594000000E+02  0.51100000000E-03 0. -1.
    9900012    2    1    2    0    0  0.15034640308E+02  0.37437873106E+02  0.15999607463E+02  0.47787283521E+02  0.20000056886E+02 0.  0.
         12    1    1    2    0    0 -0.15034640308E+02 -0.37437873106E+02 -0.15999607463E+02  0.43400716479E+02  0.00000000000E+00 0. -1.
         11    1    3    3    0    0  0.80402576604E+00  0.16310104412E+02  0.39293360910E+01  0.16796000885E+02  0.51100000000E-03 0. -1.
        -11    1    3    3    0    0  0.84908436602E+01  0.20289222798E+02  0.64646867381E+01  0.22924640950E+02  0.51100000000E-03 0.  1.
         12    1    3    3    0    0  0.57397708820E+01  0.83854589626E+00  0.56055846336E+01  0.80666416855E+01  0.00000000000E+00 0. -1.
</event>
<event>
 7    1  0.2339217E-009  0.4778727E+02  0.7816164E-02  0.1312668E+00
        -11   -1    0    0    0    0  0.00000000000E+00  0.00000000000E+00  0.45593999997E+02  0.45594000000E+02  0.51100000000E-03 0. -1.
         11   -1    0    0    0    0 -0.00000000000E+00 -0.00000000000E+00 -0.45593999997E+02  0.45594000000E+02  0.51100000000E-03 0.  1.
    9900012    2    1    2    0    0 -0.33726596330E+02  0.50450144498E+01  0.26845633604E+02  0.47787268273E+02  0.19999987365E+02 0.  0.
         12    1    1    2    0    0  0.33726596330E+02 -0.50450144498E+01 -0.26845633604E+02  0.43400731727E+02  0.00000000000E+00 0. -1.
         11    1    3    3    0    0 -0.61681508472E+01  0.70504592212E+00  0.76841027026E+01  0.98786947129E+01  0.51100000000E-03 0. -1.
        -11    1    3    3    0    0 -0.26306340663E+02  0.23827326158E+01  0.21903757282E+02  0.34314363714E+02  0.51100000000E-03 0.  1.
        -12    1    3    3    0    0 -0.12521048201E+01  0.19572359119E+01 -0.27422263804E+01  0.35942098459E+01  0.00000000000E+00 0.  1.
</event>
<event>
 7    1  0.2339217E-009  0.4778727E+02  0.7816164E-02  0.1312668E+00
        -11   -1    0    0    0    0  0.00000000000E+00  0.00000000000E+00  0.45593999997E+02  0.45594000000E+02  0.51100000000E-03 0.  1.
         11   -1    0    0    0    0 -0.00000000000E+00 -0.00000000000E+00 -0.45593999997E+02  0.45594000000E+02  0.51100000000E-03 0. -1.
    9900012    2    1    2    0    0 -0.68637353762E+01 -0.40506172375E+02  0.13991527185E+02  0.47787266173E+02  0.19999977788E+02 0.  0.
         12    1    1    2    0    0  0.68637353762E+01  0.40506172375E+02 -0.13991527185E+02  0.43400733827E+02  0.00000000000E+00 0. -1.
         11    1    3    3    0    0  0.24627436368E+01 -0.11542754299E+02  0.54083155519E+01  0.12982686949E+02  0.51100000000E-03 0. -1.
        -11    1    3    3    0    0 -0.46316475255E+01 -0.26384237615E+02  0.28189011832E+01  0.26935596475E+02  0.51100000000E-03 0.  1.
         12    1    3    3    0    0 -0.46948314875E+01 -0.25791804606E+01  0.57643104497E+01  0.78689827490E+01  0.00000000000E+00 0. -1.
</event>
<event>
 7    1  0.2339217E-009  0.4778727E+02  0.7816164E-02  0.1312668E+00
        -11   -1    0    0    0    0  0.00000000000E+00  0.00000000000E+00  0.45593999997E+02  0.45594000000E+02  0.51100000000E-03 0.  1.
         11   -1    0    0    0    0 -0.00000000000E+00 -0.00000000000E+00 -0.45593999997E+02  0.45594000000E+02  0.51100000000E-03 0. -1.
    9900012    2    1    2    0    0  0.13066529356E+01  0.43357530437E+02  0.14284110683E+01  0.47787272522E+02  0.20000006735E+02 0.  0.
         12    1    1    2    0    0 -0.13066529356E+01 -0.43357530437E+02 -0.14284110683E+01  0.43400727478E+02  0.00000000000E+00 0. -1.
         11    1    3    3    0    0  0.27944282271E+01  0.15125967840E+02 -0.10554317149E+01  0.15418095491E+02  0.51100000000E-03 0. -1.
        -11    1    3    3    0    0  0.20038212317E+01  0.20396889744E+02 -0.48757861043E+01  0.21067076236E+02  0.51100000000E-03 0.  1.
        -12    1    3    3    0    0 -0.34915965233E+01  0.78346728530E+01  0.73596288875E+01  0.11302100794E+02  0.00000000000E+00 0.  1.
</event>
<event>
 7    1  0.2339217E-009  0.4778727E+02  0.7816164E-02  0.1312668E+00
        -11   -1    0    0    0    0  0.00000000000E+00  0.00000000000E+00  0.45593999997E+02  0.45594000000E+02  0.51100000000E-03 0.  1.
         11   -1    0    0    0    0 -0.00000000000E+00 -0.00000000000E+00 -0.45593999997E+02  0.45594000000E+02  0.51100000000E-03 0. -1.
    9900012    2    1    2    0    0  0.22988441541E+02  0.97164884098E+01  0.35506967159E+02  0.47787270648E+02  0.19999998190E+02 0.  0.
         12    1    1    2    0    0 -0.22988441541E+02 -0.97164884098E+01 -0.35506967159E+02  0.43400729352E+02  0.00000000000E+00 0. -1.
         11    1    3    3    0    0  0.42706325247E+01  0.20406621365E+01  0.22571802967E+00  0.47385180180E+01  0.51100000000E-03 0. -1.
        -11    1    3    3    0    0  0.88284741682E+00 -0.34883557998E+01  0.44681718845E+01  0.57369509322E+01  0.51100000000E-03 0.  1.
        -12    1    3    3    0    0  0.17834961599E+02  0.11164182073E+02  0.30813077245E+02  0.37311801697E+02  0.00000000000E+00 0.  1.
</event>
<event>
 7    1  0.2339217E-009  0.4778727E+02  0.7816164E-02  0.1312668E+00
        -11   -1    0    0    0    0  0.00000000000E+00  0.00000000000E+00  0.45593999997E+02  0.45594000000E+02  0.51100000000E-03 0.  1.
         11   -1    0    0    0    0 -0.00000000000E+00 -0.00000000000E+00 -0.45593999997E+02  0.45594000000E+02  0.51100000000E-03 0. -1.
    9900012    2    1    2    0    0  0.38351822017E+02 -0.14156072039E+02  0.14572794230E+02  0.47787274669E+02  0.20000016527E+02 0.  0.
         12    1    1    2    0    0 -0.38351822017E+02  0.14156072039E+02 -0.14572794230E+02  0.43400725331E+02  0.00000000000E+00 0. -1.
         11    1    3    3    0    0  0.40152729089E+02 -0.12668754565E+02  0.13216869055E+02  0.44129634300E+02  0.51100000000E-03 0.  1.
        -11    1    3    3    0    0 -0.13196677845E+01  0.11394845630E+00  0.14736883315E+01  0.19814804747E+01  0.51100000000E-03 0. -1.
        -12    1    3    3    0    0 -0.48123928796E+00 -0.16012659305E+01 -0.11776315672E+00  0.16761598949E+01  0.00000000000E+00 0.  1.
</event>
<event>
 7    1  0.2339217E-009  0.4778727E+02  0.7816164E-02  0.1312668E+00
        -11   -1    0    0    0    0  0.00000000000E+00  0.00000000000E+00  0.45593999997E+02  0.45594000000E+02  0.51100000000E-03 0.  1.
         11   -1    0    0    0    0 -0.00000000000E+00 -0.00000000000E+00 -0.45593999997E+02  0.45594000000E+02  0.51100000000E-03 0. -1.
    9900012    2    1    2    0    0  0.22891898876E+02 -0.22588374486E+02  0.29143608615E+02  0.47787267066E+02  0.19999981862E+02 0.  0.
         12    1    1    2    0    0 -0.22891898876E+02  0.22588374486E+02 -0.29143608615E+02  0.43400732934E+02  0.00000000000E+00 0. -1.
         11    1    3    3    0    0  0.96748051508E+01 -0.16613094370E+02  0.20109211454E+02  0.27820444727E+02  0.51100000000E-03 0. -1.
        -11    1    3    3    0    0  0.12256185155E+02 -0.84604833069E+01  0.87848097274E+01  0.17290654543E+02  0.51100000000E-03 0.  1.
        -12    1    3    3    0    0  0.96090857102E+00  0.24852031913E+01  0.24958743350E+00  0.26761677957E+01  0.00000000000E+00 0.  1.
</event>
<event>
 7    1  0.2339217E-009  0.4778728E+02  0.7816164E-02  0.1312668E+00
        -11   -1    0    0    0    0  0.00000000000E+00  0.00000000000E+00  0.45593999997E+02  0.45594000000E+02  0.51100000000E-03 0.  1.
         11   -1    0    0    0    0 -0.00000000000E+00 -0.00000000000E+00 -0.45593999997E+02  0.45594000000E+02  0.51100000000E-03 0. -1.
    9900012    2    1    2    0    0 -0.11481237731E+02  0.19219449436E+02  0.37180865907E+02  0.47787275973E+02  0.20000022472E+02 0.  0.
         12    1    1    2    0    0  0.11481237731E+02 -0.19219449436E+02 -0.37180865907E+02  0.43400724027E+02  0.00000000000E+00 0. -1.
         11    1    3    3    0    0  0.65057515272E+00  0.79298841804E+00  0.19096128055E+02  0.19123655132E+02  0.51100000000E-03 0. -1.
        -11    1    3    3    0    0 -0.19805144907E+01  0.31435526173E+01  0.44946130404E+01  0.58314584239E+01  0.51100000000E-03 0.  1.
         12    1    3    3    0    0 -0.10151298393E+02  0.15282908401E+02  0.13590124811E+02  0.22832162417E+02  0.00000000000E+00 0. -1.
</event>
<event>
 7    1  0.2339217E-009  0.4778727E+02  0.7816164E-02  0.1312668E+00
        -11   -1    0    0    0    0  0.00000000000E+00  0.00000000000E+00  0.45593999997E+02  0.45594000000E+02  0.51100000000E-03 0.  1.
         11   -1    0    0    0    0 -0.00000000000E+00 -0.00000000000E+00 -0.45593999997E+02  0.45594000000E+02  0.51100000000E-03 0. -1.
    9900012    2    1    2    0    0  0.24573989051E+02  0.35453954875E+01  0.35597368150E+02  0.47787269750E+02  0.19999994098E+02 0.  0.
         12    1    1    2    0    0 -0.24573989051E+02 -0.35453954875E+01 -0.35597368150E+02  0.43400730250E+02  0.00000000000E+00 0. -1.
         11    1    3    3    0    0  0.16167983324E+02  0.59050502035E+01  0.11257229500E+02  0.20566927796E+02  0.51100000000E-03 0. -1.
        -11    1    3    3    0    0  0.67237319718E+01  0.19468981422E+01  0.10423713319E+02  0.12555985968E+02  0.51100000000E-03 0.  1.
        -12    1    3    3    0    0  0.16822737549E+01 -0.43065528582E+01  0.13916425331E+02  0.14664355987E+02  0.00000000000E+00 0.  1.
</event>
<event>
 7    1  0.2339217E-009  0.4778727E+02  0.7816164E-02  0.1312668E+00
        -11   -1    0    0    0    0  0.00000000000E+00  0.00000000000E+00  0.45593999997E+02  0.45594000000E+02  0.51100000000E-03 0.  1.
         11   -1    0    0    0    0 -0.00000000000E+00 -0.00000000000E+00 -0.45593999997E+02  0.45594000000E+02  0.51100000000E-03 0. -1.
    9900012    2    1    2    0    0  0.15814985640E+02  0.39510054732E+02  0.85126288351E+01  0.47787273676E+02  0.20000011999E+02 0.  0.
         12    1    1    2    0    0 -0.15814985640E+02 -0.39510054732E+02 -0.85126288351E+01  0.43400726324E+02  0.00000000000E+00 0. -1.
         11    1    3    3    0    0  0.31131283876E+01  0.40709632080E+00 -0.43351738181E+00  0.31694216119E+01  0.51100000000E-03 0. -1.
        -11    1    3    3    0    0  0.15742520329E+02  0.28294057316E+02  0.79822056743E+01  0.33348106894E+02  0.51100000000E-03 0.  1.
         12    1    3    3    0    0 -0.30406630763E+01  0.10808901096E+02  0.96394054261E+00  0.11269745170E+02  0.00000000000E+00 0. -1.
</event>
<event>
 7    1  0.2349318E-009  0.4778727E+02  0.7816164E-02  0.1312668E+00
        -11   -1    0    0    0    0  0.00000000000E+00  0.00000000000E+00  0.45593999997E+02  0.45594000000E+02  0.51100000000E-03 0.  1.
         11   -1    0    0    0    0 -0.00000000000E+00 -0.00000000000E+00 -0.45593999997E+02  0.45594000000E+02  0.51100000000E-03 0. -1.
    9900012    2    1    2    0    0  0.38384786457E+02 -0.11830807816E+02  0.16439694448E+02  0.47787269609E+02  0.19999993456E+02 0.  0.
         12    1    1    2    0    0 -0.38384786457E+02  0.11830807816E+02 -0.16439694448E+02  0.43400730391E+02  0.00000000000E+00 0. -1.
         11    1    3    3    0    0 -0.92276842519E+00 -0.24229795812E+01  0.51933588611E+00  0.26442468948E+01  0.51100000000E-03 0. -1.
        -11    1    3    3    0    0  0.19106921246E+02 -0.94844206923E+01  0.40490591474E+01  0.21712290428E+02  0.51100000000E-03 0.  1.
        -12    1    3    3    0    0  0.20200633636E+02  0.76592457421E-01  0.11871299414E+02  0.23430732286E+02  0.00000000000E+00 0.  1.
</event>
<event>
 7    1  0.2339217E-009  0.4778726E+02  0.7816164E-02  0.1312668E+00
        -11   -1    0    0    0    0  0.00000000000E+00  0.00000000000E+00  0.45593999997E+02  0.45594000000E+02  0.51100000000E-03 0.  1.
         11   -1    0    0    0    0 -0.00000000000E+00 -0.00000000000E+00 -0.45593999997E+02  0.45594000000E+02  0.51100000000E-03 0. -1.
    9900012    2    1    2    0    0  0.39450169216E+02 -0.17797354200E+02  0.32499502521E+01  0.47787264472E+02  0.19999970035E+02 0.  0.
         12    1    1    2    0    0 -0.39450169216E+02  0.17797354200E+02 -0.32499502521E+01  0.43400735528E+02  0.00000000000E+00 0. -1.
         11    1    3    3    0    0  0.74622162886E+01 -0.13328133116E+01 -0.55329363828E+00  0.76004734966E+01  0.51100000000E-03 0. -1.
        -11    1    3    3    0    0  0.27898464785E+02 -0.87014443101E+01 -0.25778976606E+01  0.29337433887E+02  0.51100000000E-03 0.  1.
         12    1    3    3    0    0  0.40894881425E+01 -0.77630965779E+01  0.63811415510E+01  0.10849357089E+02  0.00000000000E+00 0. -1.
</event>
<event>
 7    1  0.2339217E-009  0.4778727E+02  0.7816164E-02  0.1312668E+00
        -11   -1    0    0    0    0  0.00000000000E+00  0.00000000000E+00  0.45593999997E+02  0.45594000000E+02  0.51100000000E-03 0.  1.
         11   -1    0    0    0    0 -0.00000000000E+00 -0.00000000000E+00 -0.45593999997E+02  0.45594000000E+02  0.51100000000E-03 0. -1.
    9900012    2    1    2    0    0 -0.30411047854E+02  0.90368367199E+01  0.29616329143E+02  0.47787271880E+02  0.20000003808E+02 0.  0.
         12    1    1    2    0    0  0.30411047854E+02 -0.90368367199E+01 -0.29616329143E+02  0.43400728120E+02  0.00000000000E+00 0. -1.
         11    1    3    3    0    0 -0.77628620783E+00  0.48138388927E+01  0.11465829709E+01  0.50090236505E+01  0.51100000000E-03 0. -1.
        -11    1    3    3    0    0 -0.61957141341E+01  0.54851475578E+01  0.54975687071E+01  0.99346353387E+01  0.51100000000E-03 0.  1.
        -12    1    3    3    0    0 -0.23439047512E+02 -0.12621497306E+01  0.22972177465E+02  0.32843612890E+02  0.00000000000E+00 0.  1.
</event>
<event>
 7    1  0.2339217E-009  0.4778733E+02  0.7816164E-02  0.1312668E+00
        -11   -1    0    0    0    0  0.00000000000E+00  0.00000000000E+00  0.45593999997E+02  0.45594000000E+02  0.51100000000E-03 0. -1.
         11   -1    0    0    0    0 -0.00000000000E+00 -0.00000000000E+00 -0.45593999997E+02  0.45594000000E+02  0.51100000000E-03 0.  1.
    9900012    2    1    2    0    0 -0.26423281195E+02  0.33135377002E+02 -0.93528194483E+01  0.47787329155E+02  0.20000264946E+02 0.  0.
         12    1    1    2    0    0  0.26423281195E+02 -0.33135377002E+02  0.93528194483E+01  0.43400670845E+02  0.00000000000E+00 0. -1.
         11    1    3    3    0    0 -0.14214432399E+01  0.10213598055E+02 -0.30643000164E+01  0.10757695895E+02  0.51100000000E-03 0. -1.
        -11    1    3    3    0    0  0.42045788020E+00  0.54316551940E+01  0.37451683509E+00  0.54607624098E+01  0.51100000000E-03 0.  1.
        -12    1    3    3    0    0 -0.25422295835E+02  0.17490123753E+02 -0.66630362670E+01  0.31568870850E+02  0.00000000000E+00 0.  1.
</event>
<event>
 7    1  0.2339217E-009  0.4778727E+02  0.7816164E-02  0.1312668E+00
        -11   -1    0    0    0    0  0.00000000000E+00  0.00000000000E+00  0.45593999997E+02  0.45594000000E+02  0.51100000000E-03 0.  1.
         11   -1    0    0    0    0 -0.00000000000E+00 -0.00000000000E+00 -0.45593999997E+02  0.45594000000E+02  0.51100000000E-03 0. -1.
    9900012    2    1    2    0    0  0.31469174554E+02 -0.26441161484E+02  0.13934822777E+02  0.47787271278E+02  0.20000001067E+02 0.  0.
         12    1    1    2    0    0 -0.31469174554E+02  0.26441161484E+02 -0.13934822777E+02  0.43400728722E+02  0.00000000000E+00 0. -1.
         11    1    3    3    0    0  0.77895480705E+01 -0.95413045718E+00  0.34234888118E+00  0.78552292830E+01  0.51100000000E-03 0. -1.
        -11    1    3    3    0    0  0.21237358898E+02 -0.14344311366E+02  0.62926198152E+01  0.26389045946E+02  0.51100000000E-03 0.  1.
        -12    1    3    3    0    0  0.24422675855E+01 -0.11142719661E+02  0.72998540805E+01  0.13542996049E+02  0.00000000000E+00 0.  1.
</event>
<event>
 7    1  0.2339217E-009  0.4778727E+02  0.7816164E-02  0.1312668E+00
        -11   -1    0    0    0    0  0.00000000000E+00  0.00000000000E+00  0.45593999997E+02  0.45594000000E+02  0.51100000000E-03 0. -1.
         11   -1    0    0    0    0 -0.00000000000E+00 -0.00000000000E+00 -0.45593999997E+02  0.45594000000E+02  0.51100000000E-03 0.  1.
    9900012    2    1    2    0    0  0.64795555685E+01 -0.34458675681E+02 -0.25578081597E+02  0.47787271570E+02  0.20000002396E+02 0.  0.
         12    1    1    2    0    0 -0.64795555685E+01  0.34458675681E+02  0.25578081597E+02  0.43400728430E+02  0.00000000000E+00 0. -1.
         11    1    3    3    0    0  0.64274138793E+01 -0.39045864688E+01 -0.50387024133E+01  0.90524011698E+01  0.51100000000E-03 0. -1.
        -11    1    3    3    0    0  0.63860121223E+00 -0.25599100465E+02 -0.21753560043E+02  0.33599689447E+02  0.51100000000E-03 0.  1.
         12    1    3    3    0    0 -0.58645952298E+00 -0.49549887474E+01  0.12141808597E+01  0.51351809529E+01  0.00000000000E+00 0. -1.
</event>
<event>
 7    1  0.2339217E-009  0.4778728E+02  0.7816164E-02  0.1312668E+00
        -11   -1    0    0    0    0  0.00000000000E+00  0.00000000000E+00  0.45593999997E+02  0.45594000000E+02  0.51100000000E-03 0. -1.
         11   -1    0    0    0    0 -0.00000000000E+00 -0.00000000000E+00 -0.45593999997E+02  0.45594000000E+02  0.51100000000E-03 0.  1.
    9900012    2    1    2    0    0  0.31747688135E+02  0.16129354467E+02 -0.24810293791E+02  0.47787280474E+02  0.20000042991E+02 0.  0.
         12    1    1    2    0    0 -0.31747688135E+02 -0.16129354467E+02  0.24810293791E+02  0.43400719526E+02  0.00000000000E+00 0. -1.
         11    1    3    3    0    0 -0.12320978794E+01 -0.77092533937E+00  0.81939959800E+00  0.16684744606E+01  0.51100000000E-03 0. -1.
        -11    1    3    3    0    0 -0.67948898530E+00  0.55188116595E-02 -0.48587264088E+00  0.83534916215E+00  0.51100000000E-03 0.  1.
        -12    1    3    3    0    0  0.33659274999E+02  0.16894760994E+02 -0.25143820748E+02  0.45283456851E+02  0.00000000000E+00 0.  1.
</event>
<event>
 7    1  0.2339217E-009  0.4778727E+02  0.7816164E-02  0.1312668E+00
        -11   -1    0    0    0    0  0.00000000000E+00  0.00000000000E+00  0.45593999997E+02  0.45594000000E+02  0.51100000000E-03 0. -1.
         11   -1    0    0    0    0 -0.00000000000E+00 -0.00000000000E+00 -0.45593999997E+02  0.45594000000E+02  0.51100000000E-03 0.  1.
    9900012    2    1    2    0    0 -0.33006152068E+02 -0.93464168718E+01 -0.26586879370E+02  0.47787265706E+02  0.19999975658E+02 0.  0.
         12    1    1    2    0    0  0.33006152068E+02  0.93464168718E+01  0.26586879370E+02  0.43400734294E+02  0.00000000000E+00 0. -1.
         11    1    3    3    0    0 -0.78940755762E+01  0.43278057933E+01 -0.82179270954E+01  0.12189366604E+02  0.51100000000E-03 0. -1.
        -11    1    3    3    0    0 -0.11200110121E+02 -0.38166195609E+01 -0.13318017629E+02  0.17815124065E+02  0.51100000000E-03 0.  1.
        -12    1    3    3    0    0 -0.13911966370E+02 -0.98576031042E+01 -0.50509346453E+01  0.17782775037E+02  0.00000000000E+00 0.  1.
</event>
<event>
 7    1  0.2339217E-009  0.4778727E+02  0.7816164E-02  0.1312668E+00
        -11   -1    0    0    0    0  0.00000000000E+00  0.00000000000E+00  0.45593999997E+02  0.45594000000E+02  0.51100000000E-03 0.  1.
         11   -1    0    0    0    0 -0.00000000000E+00 -0.00000000000E+00 -0.45593999997E+02  0.45594000000E+02  0.51100000000E-03 0. -1.
    9900012    2    1    2    0    0 -0.20732326137E+02  0.35662019806E+02  0.13491263861E+02  0.47787271847E+02  0.20000003658E+02 0.  0.
         12    1    1    2    0    0  0.20732326137E+02 -0.35662019806E+02 -0.13491263861E+02  0.43400728153E+02  0.00000000000E+00 0. -1.
         11    1    3    3    0    0  0.12959891079E+01  0.12152131606E+01  0.48602534404E+01  0.51747844940E+01  0.51100000000E-03 0. -1.
        -11    1    3    3    0    0 -0.10991485159E+02  0.10036183892E+02  0.20343727825E+01  0.15022529947E+02  0.51100000000E-03 0.  1.
        -12    1    3    3    0    0 -0.11036830085E+02  0.24410622753E+02  0.65966376377E+01  0.27589957406E+02  0.00000000000E+00 0.  1.
</event>
<event>
 7    1  0.3004324E-009  0.4778724E+02  0.7816164E-02  0.1312668E+00
        -11   -1    0    0    0    0  0.00000000000E+00  0.00000000000E+00  0.45593999997E+02  0.45594000000E+02  0.51100000000E-03 0.  1.
         11   -1    0    0    0    0 -0.00000000000E+00 -0.00000000000E+00 -0.45593999997E+02  0.45594000000E+02  0.51100000000E-03 0. -1.
    9900012    2    1    2    0    0 -0.34910966485E+02 -0.36603357884E+00  0.25782087850E+02  0.47787244069E+02  0.19999877007E+02 0.  0.
         12    1    1    2    0    0  0.34910966485E+02  0.36603357884E+00 -0.25782087850E+02  0.43400755931E+02  0.00000000000E+00 0. -1.
         11    1    3    3    0    0  0.24299546594E+00 -0.83093567004E+00  0.49482292637E+01  0.50233926774E+01  0.51100000000E-03 0. -1.
        -11    1    3    3    0    0 -0.60725468503E+01  0.20298377323E+01 -0.84386243129E+00  0.64581863191E+01  0.51100000000E-03 0.  1.
        -12    1    3    3    0    0 -0.29081415101E+02 -0.15649356411E+01  0.21677721017E+02  0.36305665072E+02  0.00000000000E+00 0.  1.
</event>
<event>
 7    1  0.2339217E-009  0.4778727E+02  0.7816164E-02  0.1312668E+00
        -11   -1    0    0    0    0  0.00000000000E+00  0.00000000000E+00  0.45593999997E+02  0.45594000000E+02  0.51100000000E-03 0.  1.
         11   -1    0    0    0    0 -0.00000000000E+00 -0.00000000000E+00 -0.45593999997E+02  0.45594000000E+02  0.51100000000E-03 0. -1.
    9900012    2    1    2    0    0  0.27374489955E+02 -0.32315669685E+02  0.94846210811E+01  0.47787271382E+02  0.20000001539E+02 0.  0.
         12    1    1    2    0    0 -0.27374489955E+02  0.32315669685E+02 -0.94846210811E+01  0.43400728618E+02  0.00000000000E+00 0. -1.
         11    1    3    3    0    0  0.96115502918E+01 -0.34721844719E+01  0.76843746588E+01  0.12786226112E+02  0.51100000000E-03 0. -1.
        -11    1    3    3    0    0  0.73608783399E+01 -0.51182234227E+01  0.15247850063E+01  0.90941580433E+01  0.51100000000E-03 0.  1.
        -12    1    3    3    0    0  0.10402061324E+02 -0.23725261790E+02  0.27546141606E+00  0.25906887227E+02  0.00000000000E+00 0.  1.
</event>
<event>
 7    1  0.2339217E-009  0.4778728E+02  0.7816164E-02  0.1312668E+00
        -11   -1    0    0    0    0  0.00000000000E+00  0.00000000000E+00  0.45593999997E+02  0.45594000000E+02  0.51100000000E-03 0. -1.
         11   -1    0    0    0    0 -0.00000000000E+00 -0.00000000000E+00 -0.45593999997E+02  0.45594000000E+02  0.51100000000E-03 0.  1.
    9900012    2    1    2    0    0  0.29338609174E+02  0.13820691014E+02 -0.28841938534E+02  0.47787275274E+02  0.20000019282E+02 0.  0.
         12    1    1    2    0    0 -0.29338609174E+02 -0.13820691014E+02  0.28841938534E+02  0.43400724726E+02  0.00000000000E+00 0. -1.
         11    1    3    3    0    0  0.52449007660E+01  0.15691394643E+01 -0.86196192991E+01  0.10211220291E+02  0.51100000000E-03 0. -1.
        -11    1    3    3    0    0  0.54660919296E+01  0.11426112740E+02 -0.54562653465E+01  0.13791484515E+02  0.51100000000E-03 0.  1.
        -12    1    3    3    0    0  0.18627616478E+02  0.82543880946E+00 -0.14766053889E+02  0.23784570468E+02  0.00000000000E+00 0.  1.
</event>
<event>
 7    1  0.2339217E-009  0.4778727E+02  0.7816164E-02  0.1312668E+00
        -11   -1    0    0    0    0  0.00000000000E+00  0.00000000000E+00  0.45593999997E+02  0.45594000000E+02  0.51100000000E-03 0.  1.
         11   -1    0    0    0    0 -0.00000000000E+00 -0.00000000000E+00 -0.45593999997E+02  0.45594000000E+02  0.51100000000E-03 0. -1.
    9900012    2    1    2    0    0 -0.37833933548E+02 -0.19465433613E+02  0.85623559611E+01  0.47787267597E+02  0.19999984283E+02 0.  0.
         12    1    1    2    0    0  0.37833933548E+02  0.19465433613E+02 -0.85623559611E+01  0.43400732403E+02  0.00000000000E+00 0. -1.
         11    1    3    3    0    0 -0.81870470469E+01 -0.20626114379E+01  0.10237737477E+01  0.85047174109E+01  0.51100000000E-03 0. -1.
        -11    1    3    3    0    0 -0.15294491509E+02  0.86405594961E+00  0.32246917392E+01  0.15654606360E+02  0.51100000000E-03 0.  1.
         12    1    3    3    0    0 -0.14352394992E+02 -0.18266878125E+02  0.43138904742E+01  0.23627943826E+02  0.00000000000E+00 0. -1.
</event>
<event>
 7    1  0.2339217E-009  0.4778727E+02  0.7816164E-02  0.1312668E+00
        -11   -1    0    0    0    0  0.00000000000E+00  0.00000000000E+00  0.45593999997E+02  0.45594000000E+02  0.51100000000E-03 0.  1.
         11   -1    0    0    0    0 -0.00000000000E+00 -0.00000000000E+00 -0.45593999997E+02  0.45594000000E+02  0.51100000000E-03 0. -1.
    9900012    2    1    2    0    0 -0.16443058976E+02  0.32028023806E+02  0.24237464827E+02  0.47787271911E+02  0.20000003953E+02 0.  0.
         12    1    1    2    0    0  0.16443058976E+02 -0.32028023806E+02 -0.24237464827E+02  0.43400728089E+02  0.00000000000E+00 0. -1.
         11    1    3    3    0    0 -0.98554946239E+00  0.15439254373E+01 -0.11466522083E+01  0.21609777988E+01  0.51100000000E-03 0. -1.
        -11    1    3    3    0    0 -0.15543085488E+02  0.32430890130E+02  0.24161377835E+02  0.43325769702E+02  0.51100000000E-03 0.  1.
        -12    1    3    3    0    0  0.85575975037E-01 -0.19467917619E+01  0.12227392004E+01  0.23005244106E+01  0.00000000000E+00 0.  1.
</event>
<event>
 7    1  0.2339217E-009  0.4778728E+02  0.7816164E-02  0.1312668E+00
        -11   -1    0    0    0    0  0.00000000000E+00  0.00000000000E+00  0.45593999997E+02  0.45594000000E+02  0.51100000000E-03 0.  1.
         11   -1    0    0    0    0 -0.00000000000E+00 -0.00000000000E+00 -0.45593999997E+02  0.45594000000E+02  0.51100000000E-03 0. -1.
    9900012    2    1    2    0    0 -0.39307592097E+02 -0.52987368362E+01  0.17619854394E+02  0.47787277916E+02  0.20000031330E+02 0.  0.
         12    1    1    2    0    0  0.39307592097E+02  0.52987368362E+01 -0.17619854394E+02  0.43400722084E+02  0.00000000000E+00 0. -1.
         11    1    3    3    0    0 -0.79517522810E+00  0.26302502864E+01  0.20595054282E+01  0.34339602622E+01  0.51100000000E-03 0. -1.
        -11    1    3    3    0    0 -0.20749528051E+02  0.22031428706E+01  0.55856017425E+01  0.21600826372E+02  0.51100000000E-03 0.  1.
         12    1    3    3    0    0 -0.17762888818E+02 -0.10132129993E+02  0.99747472231E+01  0.22752491282E+02  0.00000000000E+00 0. -1.
</event>
<event>
 7    1  0.2339217E-009  0.4778726E+02  0.7816164E-02  0.1312668E+00
        -11   -1    0    0    0    0  0.00000000000E+00  0.00000000000E+00  0.45593999997E+02  0.45594000000E+02  0.51100000000E-03 0.  1.
         11   -1    0    0    0    0 -0.00000000000E+00 -0.00000000000E+00 -0.45593999997E+02  0.45594000000E+02  0.51100000000E-03 0. -1.
    9900012    2    1    2    0    0  0.15513638029E+02 -0.40329541135E+02  0.40594385111E+01  0.47787263899E+02  0.19999967423E+02 0.  0.
         12    1    1    2    0    0 -0.15513638029E+02  0.40329541135E+02 -0.40594385111E+01  0.43400736101E+02  0.00000000000E+00 0. -1.
         11    1    3    3    0    0  0.32840412067E+01 -0.13677358852E+01  0.28191482727E+01  0.45390775873E+01  0.51100000000E-03 0. -1.
        -11    1    3    3    0    0  0.10110979333E+02 -0.11621633420E+02 -0.23834349950E+01  0.15587656304E+02  0.51100000000E-03 0.  1.
        -12    1    3    3    0    0  0.21186174893E+01 -0.27340171830E+02  0.36237252335E+01  0.27660530008E+02  0.00000000000E+00 0.  1.
</event>
<event>
 7    1  0.2339217E-009  0.4778727E+02  0.7816164E-02  0.1312668E+00
        -11   -1    0    0    0    0  0.00000000000E+00  0.00000000000E+00  0.45593999997E+02  0.45594000000E+02  0.51100000000E-03 0.  1.
         11   -1    0    0    0    0 -0.00000000000E+00 -0.00000000000E+00 -0.45593999997E+02  0.45594000000E+02  0.51100000000E-03 0. -1.
    9900012    2    1    2    0    0  0.29445451633E+02  0.95730066521E+00  0.31869615102E+02  0.47787269440E+02  0.19999992684E+02 0.  0.
         12    1    1    2    0    0 -0.29445451633E+02 -0.95730066521E+00 -0.31869615102E+02  0.43400730560E+02  0.00000000000E+00 0. -1.
         11    1    3    3    0    0  0.19853296340E+02  0.93768698395E+01  0.16659123981E+02  0.27560941124E+02  0.51100000000E-03 0. -1.
        -11    1    3    3    0    0 -0.31013356954E-01  0.28981509874E+00  0.10302426649E+00  0.30914216855E+00  0.51100000000E-03 0.  1.
        -12    1    3    3    0    0  0.96231686494E+01 -0.87093842731E+01  0.15107466855E+02  0.19917186147E+02  0.00000000000E+00 0.  1.
</event>
<event>
 7    1  0.2339217E-009  0.4778727E+02  0.7816164E-02  0.1312668E+00
        -11   -1    0    0    0    0  0.00000000000E+00  0.00000000000E+00  0.45593999997E+02  0.45594000000E+02  0.51100000000E-03 0. -1.
         11   -1    0    0    0    0 -0.00000000000E+00 -0.00000000000E+00 -0.45593999997E+02  0.45594000000E+02  0.51100000000E-03 0.  1.
    9900012    2    1    2    0    0  0.34758498177E+02 -0.22097067830E+02 -0.13681716802E+02  0.47787274466E+02  0.20000015601E+02 0.  0.
         12    1    1    2    0    0 -0.34758498177E+02  0.22097067830E+02  0.13681716802E+02  0.43400725534E+02  0.00000000000E+00 0. -1.
         11    1    3    3    0    0  0.46807172877E+01 -0.33903056232E+01  0.16060898194E+01  0.59985674386E+01  0.51100000000E-03 0. -1.
        -11    1    3    3    0    0  0.15016539085E+02 -0.17310387900E+02 -0.48851397765E+01  0.23430974505E+02  0.51100000000E-03 0.  1.
        -12    1    3    3    0    0  0.15061241804E+02 -0.13963743069E+01 -0.10402666845E+02  0.18357732523E+02  0.00000000000E+00 0.  1.
</event>
<event>
 7    1  0.2339217E-009  0.4778728E+02  0.7816164E-02  0.1312668E+00
        -11   -1    0    0    0    0  0.00000000000E+00  0.00000000000E+00  0.45593999997E+02  0.45594000000E+02  0.51100000000E-03 0. -1.
         11   -1    0    0    0    0 -0.00000000000E+00 -0.00000000000E+00 -0.45593999997E+02  0.45594000000E+02  0.51100000000E-03 0.  1.
    9900012    2    1    2    0    0  0.41703715838E+02 -0.38388969941E+01  0.11387968067E+02  0.47787275795E+02  0.20000021660E+02 0.  0.
         12    1    1    2    0    0 -0.41703715838E+02  0.38388969941E+01 -0.11387968067E+02  0.43400724205E+02  0.00000000000E+00 0. -1.
         11    1    3    3    0    0  0.48679828734E+01 -0.29699139427E+01  0.49548882816E+01  0.75543738475E+01  0.51100000000E-03 0. -1.
        -11    1    3    3    0    0  0.36437727124E+01  0.32830990223E+01  0.46123679763E+01  0.67327377328E+01  0.51100000000E-03 0.  1.
         12    1    3    3    0    0  0.33191960252E+02 -0.41520820736E+01  0.18207118091E+01  0.33500164215E+02  0.00000000000E+00 0. -1.
</event>
<event>
 7    1  0.2339217E-009  0.4778728E+02  0.7816164E-02  0.1312668E+00
        -11   -1    0    0    0    0  0.00000000000E+00  0.00000000000E+00  0.45593999997E+02  0.45594000000E+02  0.51100000000E-03 0.  1.
         11   -1    0    0    0    0 -0.00000000000E+00 -0.00000000000E+00 -0.45593999997E+02  0.45594000000E+02  0.51100000000E-03 0. -1.
    9900012    2    1    2    0    0 -0.43311432883E+02 -0.16167683773E+01  0.22645685249E+01  0.47787280778E+02  0.20000044380E+02 0.  0.
         12    1    1    2    0    0  0.43311432883E+02  0.16167683773E+01 -0.22645685249E+01  0.43400719222E+02  0.00000000000E+00 0. -1.
         11    1    3    3    0    0 -0.74385046820E+01  0.21347723743E+01  0.24181053233E+01  0.81077640944E+01  0.51100000000E-03 0. -1.
        -11    1    3    3    0    0 -0.52611561560E+01 -0.41206443343E+01 -0.54342752032E+01  0.86134093757E+01  0.51100000000E-03 0.  1.
        -12    1    3    3    0    0 -0.30611772045E+02  0.36910358272E+00  0.52807384047E+01  0.31066107308E+02  0.00000000000E+00 0.  1.
</event>
<event>
 7    1  0.2339217E-009  0.4778729E+02  0.7816164E-02  0.1312668E+00
        -11   -1    0    0    0    0  0.00000000000E+00  0.00000000000E+00  0.45593999997E+02  0.45594000000E+02  0.51100000000E-03 0. -1.
         11   -1    0    0    0    0 -0.00000000000E+00 -0.00000000000E+00 -0.45593999997E+02  0.45594000000E+02  0.51100000000E-03 0.  1.
    9900012    2    1    2    0    0 -0.33114938988E+02 -0.24885972550E+02 -0.12950326860E+02  0.47787288258E+02  0.20000078483E+02 0.  0.
         12    1    1    2    0    0  0.33114938988E+02  0.24885972550E+02  0.12950326860E+02  0.43400711742E+02  0.00000000000E+00 0. -1.
         11    1    3    3    0    0  0.23255521298E+00  0.95822665090E+00  0.12945442625E+00  0.99450437463E+00  0.51100000000E-03 0. -1.
        -11    1    3    3    0    0 -0.16291416489E+02 -0.33441234846E+01 -0.60437652372E+01  0.17695211545E+02  0.51100000000E-03 0.  1.
        -12    1    3    3    0    0 -0.17056077712E+02 -0.22500075717E+02 -0.70360160488E+01  0.29097572339E+02  0.00000000000E+00 0.  1.
</event>
<event>
 7    1  0.2339217E-009  0.4778727E+02  0.7816164E-02  0.1312668E+00
        -11   -1    0    0    0    0  0.00000000000E+00  0.00000000000E+00  0.45593999997E+02  0.45594000000E+02  0.51100000000E-03 0. -1.
         11   -1    0    0    0    0 -0.00000000000E+00 -0.00000000000E+00 -0.45593999997E+02  0.45594000000E+02  0.51100000000E-03 0.  1.
    9900012    2    1    2    0    0  0.16967720755E+02 -0.21292660803E+02 -0.33798559632E+02  0.47787267461E+02  0.19999983663E+02 0.  0.
         12    1    1    2    0    0 -0.16967720755E+02  0.21292660803E+02  0.33798559632E+02  0.43400732539E+02  0.00000000000E+00 0. -1.
         11    1    3    3    0    0  0.89932801828E+01 -0.22239346188E+02 -0.22456901776E+02  0.32860006770E+02  0.51100000000E-03 0.  1.
        -11    1    3    3    0    0 -0.77908542048E+00 -0.24089958556E+00 -0.56181427979E+00  0.99027382518E+00  0.51100000000E-03 0. -1.
         12    1    3    3    0    0  0.87535259931E+01  0.11875849704E+01 -0.10779843577E+02  0.13936986866E+02  0.00000000000E+00 0. -1.
</event>
<event>
 7    1  0.2339217E-009  0.4778726E+02  0.7816164E-02  0.1312668E+00
        -11   -1    0    0    0    0  0.00000000000E+00  0.00000000000E+00  0.45593999997E+02  0.45594000000E+02  0.51100000000E-03 0.  1.
         11   -1    0    0    0    0 -0.00000000000E+00 -0.00000000000E+00 -0.45593999997E+02  0.45594000000E+02  0.51100000000E-03 0. -1.
    9900012    2    1    2    0    0  0.32020252849E+01  0.13612948379E+02  0.41085993019E+02  0.47787260929E+02  0.19999953881E+02 0.  0.
         12    1    1    2    0    0 -0.32020252849E+01 -0.13612948379E+02 -0.41085993019E+02  0.43400739071E+02  0.00000000000E+00 0. -1.
         11    1    3    3    0    0 -0.20215377078E+01  0.10695436060E+01  0.20356462049E+00  0.22960786235E+01  0.51100000000E-03 0. -1.
        -11    1    3    3    0    0 -0.70243758956E+00 -0.14244990117E+01 -0.28767133718E+00  0.16141161857E+01  0.51100000000E-03 0.  1.
        -12    1    3    3    0    0  0.59260005823E+01  0.13967903784E+02  0.41170099736E+02  0.43877066120E+02  0.00000000000E+00 0.  1.
</event>
<event>
 7    1  0.2339217E-009  0.4778727E+02  0.7816164E-02  0.1312668E+00
        -11   -1    0    0    0    0  0.00000000000E+00  0.00000000000E+00  0.45593999997E+02  0.45594000000E+02  0.51100000000E-03 0.  1.
         11   -1    0    0    0    0 -0.00000000000E+00 -0.00000000000E+00 -0.45593999997E+02  0.45594000000E+02  0.51100000000E-03 0. -1.
    9900012    2    1    2    0    0 -0.18653105640E+01 -0.40301045463E+02  0.15999052534E+02  0.47787270387E+02  0.19999997003E+02 0.  0.
         12    1    1    2    0    0  0.18653105640E+01  0.40301045463E+02 -0.15999052534E+02  0.43400729613E+02  0.00000000000E+00 0. -1.
         11    1    3    3    0    0 -0.72793901815E+01 -0.67986866479E+01  0.40725003514E+01  0.10760897775E+02  0.51100000000E-03 0. -1.
        -11    1    3    3    0    0  0.14871133087E+01 -0.11970643197E+02  0.87683382944E+01  0.14912798572E+02  0.51100000000E-03 0.  1.
        -12    1    3    3    0    0  0.39269663089E+01 -0.21531715619E+02  0.31582138882E+01  0.22113574040E+02  0.00000000000E+00 0.  1.
</event>
<event>
 7    1  0.2339217E-009  0.4778727E+02  0.7816164E-02  0.1312668E+00
        -11   -1    0    0    0    0  0.00000000000E+00  0.00000000000E+00  0.45593999997E+02  0.45594000000E+02  0.51100000000E-03 0.  1.
         11   -1    0    0    0    0 -0.00000000000E+00 -0.00000000000E+00 -0.45593999997E+02  0.45594000000E+02  0.51100000000E-03 0. -1.
    9900012    2    1    2    0    0 -0.15125400183E+02 -0.25139387509E+02  0.31982137242E+02  0.47787266854E+02  0.19999980896E+02 0.  0.
         12    1    1    2    0    0  0.15125400183E+02  0.25139387509E+02 -0.31982137242E+02  0.43400733146E+02  0.00000000000E+00 0. -1.
         11    1    3    3    0    0 -0.11943143641E+01 -0.55896238867E+01  0.95018272148E+00  0.57942324306E+01  0.51100000000E-03 0. -1.
        -11    1    3    3    0    0  0.29838686802E+01 -0.51663411871E+01  0.82460142431E+01  0.10177981368E+02  0.51100000000E-03 0.  1.
        -12    1    3    3    0    0 -0.16914954499E+02 -0.14383422435E+02  0.22785940277E+02  0.31815053056E+02  0.00000000000E+00 0.  1.
</event>
<event>
 7    1  0.2339217E-009  0.4778727E+02  0.7816164E-02  0.1312668E+00
        -11   -1    0    0    0    0  0.00000000000E+00  0.00000000000E+00  0.45593999997E+02  0.45594000000E+02  0.51100000000E-03 0. -1.
         11   -1    0    0    0    0 -0.00000000000E+00 -0.00000000000E+00 -0.45593999997E+02  0.45594000000E+02  0.51100000000E-03 0.  1.
    9900012    2    1    2    0    0 -0.35426601894E+02  0.96206372627E+01  0.23152164567E+02  0.47787268356E+02  0.19999987744E+02 0.  0.
         12    1    1    2    0    0  0.35426601894E+02 -0.96206372627E+01 -0.23152164567E+02  0.43400731644E+02  0.00000000000E+00 0. -1.
         11    1    3    3    0    0 -0.14413803597E+02 -0.66027188292E+00  0.68626497484E+01  0.15977786296E+02  0.51100000000E-03 0.  1.
        -11    1    3    3    0    0 -0.82689780367E+01 -0.28073198772E+01  0.30546605760E+01  0.92513779601E+01  0.51100000000E-03 0. -1.
        -12    1    3    3    0    0 -0.12743820260E+02  0.13088229023E+02  0.13234854242E+02  0.22558104100E+02  0.00000000000E+00 0.  1.
</event>
<event>
 7    1  0.2339217E-009  0.4778727E+02  0.7816164E-02  0.1312668E+00
        -11   -1    0    0    0    0  0.00000000000E+00  0.00000000000E+00  0.45593999997E+02  0.45594000000E+02  0.51100000000E-03 0.  1.
         11   -1    0    0    0    0 -0.00000000000E+00 -0.00000000000E+00 -0.45593999997E+02  0.45594000000E+02  0.51100000000E-03 0. -1.
    9900012    2    1    2    0    0 -0.28082938511E+02 -0.27011492773E+02  0.19114151021E+02  0.47787274816E+02  0.20000017197E+02 0.  0.
         12    1    1    2    0    0  0.28082938511E+02  0.27011492773E+02 -0.19114151021E+02  0.43400725184E+02  0.00000000000E+00 0. -1.
         11    1    3    3    0    0 -0.10360294343E+02  0.29815307435E+00  0.13565732045E+01  0.10452984514E+02  0.51100000000E-03 0. -1.
        -11    1    3    3    0    0 -0.84381307842E+01 -0.93890737318E+01  0.60078676201E+01  0.13980387343E+02  0.51100000000E-03 0.  1.
         12    1    3    3    0    0 -0.92845133840E+01 -0.17920572115E+02  0.11749710196E+02  0.23353902959E+02  0.00000000000E+00 0. -1.
</event>
<event>
 7    1  0.2339217E-009  0.4778727E+02  0.7816164E-02  0.1312668E+00
        -11   -1    0    0    0    0  0.00000000000E+00  0.00000000000E+00  0.45593999997E+02  0.45594000000E+02  0.51100000000E-03 0.  1.
         11   -1    0    0    0    0 -0.00000000000E+00 -0.00000000000E+00 -0.45593999997E+02  0.45594000000E+02  0.51100000000E-03 0. -1.
    9900012    2    1    2    0    0  0.48915198649E+01 -0.21891199888E+02  0.37154698219E+02  0.47787271909E+02  0.20000003940E+02 0.  0.
         12    1    1    2    0    0 -0.48915198649E+01  0.21891199888E+02 -0.37154698219E+02  0.43400728091E+02  0.00000000000E+00 0. -1.
         11    1    3    3    0    0  0.85112422895E+00  0.34444299748E+00  0.46402489022E-02  0.91819127890E+00  0.51100000000E-03 0. -1.
        -11    1    3    3    0    0  0.65892826166E+01 -0.19046510359E+02  0.37700612081E+02  0.42749553844E+02  0.51100000000E-03 0.  1.
        -12    1    3    3    0    0 -0.25488869806E+01 -0.31891325267E+01 -0.55055411146E+00  0.41195267862E+01  0.00000000000E+00 0.  1.
</event>
<event>
 7    1  0.2339217E-009  0.4778727E+02  0.7816164E-02  0.1312668E+00
        -11   -1    0    0    0    0  0.00000000000E+00  0.00000000000E+00  0.45593999997E+02  0.45594000000E+02  0.51100000000E-03 0.  1.
         11   -1    0    0    0    0 -0.00000000000E+00 -0.00000000000E+00 -0.45593999997E+02  0.45594000000E+02  0.51100000000E-03 0. -1.
    9900012    2    1    2    0    0 -0.32133444857E+02 -0.16684062581E+02  0.23931302034E+02  0.47787269135E+02  0.19999991294E+02 0.  0.
         12    1    1    2    0    0  0.32133444857E+02  0.16684062581E+02 -0.23931302034E+02  0.43400730865E+02  0.00000000000E+00 0. -1.
         11    1    3    3    0    0 -0.25673892773E+02 -0.10988284698E+02  0.16100760614E+02  0.32235472128E+02  0.51100000000E-03 0. -1.
        -11    1    3    3    0    0 -0.70275280465E+01 -0.77146987551E+01  0.39832908943E+01  0.11170019424E+02  0.51100000000E-03 0.  1.
        -12    1    3    3    0    0  0.56797596242E+00  0.20189208715E+01  0.38472505259E+01  0.43817775832E+01  0.00000000000E+00 0.  1.
</event>
<event>
 7    1  0.2339217E-009  0.4778727E+02  0.7816164E-02  0.1312668E+00
        -11   -1    0    0    0    0  0.00000000000E+00  0.00000000000E+00  0.45593999997E+02  0.45594000000E+02  0.51100000000E-03 0.  1.
         11   -1    0    0    0    0 -0.00000000000E+00 -0.00000000000E+00 -0.45593999997E+02  0.45594000000E+02  0.51100000000E-03 0. -1.
    9900012    2    1    2    0    0  0.31137142978E+02 -0.21762588942E+02  0.20987883898E+02  0.47787271655E+02  0.20000002785E+02 0.  0.
         12    1    1    2    0    0 -0.31137142978E+02  0.21762588942E+02 -0.20987883898E+02  0.43400728345E+02  0.00000000000E+00 0. -1.
         11    1    3    3    0    0  0.16628988530E+02 -0.32840623827E+01  0.90160797232E+01  0.19198906716E+02  0.51100000000E-03 0. -1.
        -11    1    3    3    0    0  0.93100721264E+01 -0.91640496291E+01  0.12263135850E+02  0.17917637951E+02  0.51100000000E-03 0.  1.
         12    1    3    3    0    0  0.51980823217E+01 -0.93144769306E+01 -0.29133167471E+00  0.10670726988E+02  0.00000000000E+00 0. -1.
</event>
<event>
 7    1  0.2339217E-009  0.4778727E+02  0.7816164E-02  0.1312668E+00
        -11   -1    0    0    0    0  0.00000000000E+00  0.00000000000E+00  0.45593999997E+02  0.45594000000E+02  0.51100000000E-03 0. -1.
         11   -1    0    0    0    0 -0.00000000000E+00 -0.00000000000E+00 -0.45593999997E+02  0.45594000000E+02  0.51100000000E-03 0.  1.
    9900012    2    1    2    0    0 -0.10312808265E+02  0.15056799264E+02 -0.39377178747E+02  0.47787269309E+02  0.19999992089E+02 0.  0.
         12    1    1    2    0    0  0.10312808265E+02 -0.15056799264E+02  0.39377178747E+02  0.43400730691E+02  0.00000000000E+00 0. -1.
         11    1    3    3    0    0 -0.11745546279E+01 -0.42061978812E+00 -0.15454041458E-01  0.12476933392E+01  0.51100000000E-03 0. -1.
        -11    1    3    3    0    0 -0.12577899850E+01  0.16735731127E+02 -0.25030121393E+02  0.30135920580E+02  0.51100000000E-03 0.  1.
         12    1    3    3    0    0 -0.78804636519E+01 -0.12583120744E+01 -0.14331603313E+02  0.16403655390E+02  0.00000000000E+00 0. -1.
</event>
<event>
 7    1  0.2339217E-009  0.4778727E+02  0.7816164E-02  0.1312668E+00
        -11   -1    0    0    0    0  0.00000000000E+00  0.00000000000E+00  0.45593999997E+02  0.45594000000E+02  0.51100000000E-03 0.  1.
         11   -1    0    0    0    0 -0.00000000000E+00 -0.00000000000E+00 -0.45593999997E+02  0.45594000000E+02  0.51100000000E-03 0. -1.
    9900012    2    1    2    0    0 -0.18877575332E+02 -0.20611546379E+02  0.33202780081E+02  0.47787270747E+02  0.19999998645E+02 0.  0.
         12    1    1    2    0    0  0.18877575332E+02  0.20611546379E+02 -0.33202780081E+02  0.43400729253E+02  0.00000000000E+00 0. -1.
         11    1    3    3    0    0  0.14122806619E+01 -0.53248791369E+01  0.12099280870E+02  0.13294415080E+02  0.51100000000E-03 0. -1.
        -11    1    3    3    0    0 -0.74308664915E+01 -0.65562417524E+01  0.14597677765E+02  0.17643533635E+02  0.51100000000E-03 0.  1.
        -12    1    3    3    0    0 -0.12858989503E+02 -0.87304254895E+01  0.65058214461E+01  0.16849322032E+02  0.00000000000E+00 0.  1.
</event>
<event>
 7    1  0.2339217E-009  0.4778727E+02  0.7816164E-02  0.1312668E+00
        -11   -1    0    0    0    0  0.00000000000E+00  0.00000000000E+00  0.45593999997E+02  0.45594000000E+02  0.51100000000E-03 0. -1.
         11   -1    0    0    0    0 -0.00000000000E+00 -0.00000000000E+00 -0.45593999997E+02  0.45594000000E+02  0.51100000000E-03 0.  1.
    9900012    2    1    2    0    0 -0.33259159934E+02 -0.26589385447E+02 -0.83938392722E+01  0.47787266416E+02  0.19999978896E+02 0.  0.
         12    1    1    2    0    0  0.33259159934E+02  0.26589385447E+02  0.83938392722E+01  0.43400733584E+02  0.00000000000E+00 0. -1.
         11    1    3    3    0    0 -0.99488824277E-01  0.32608258297E-01 -0.29170753202E+01  0.29189535812E+01  0.51100000000E-03 0. -1.
        -11    1    3    3    0    0 -0.36420118315E-01  0.11711293431E+01 -0.70354436279E+00  0.13666913678E+01  0.51100000000E-03 0.  1.
        -12    1    3    3    0    0 -0.33123250991E+02 -0.27793123048E+02 -0.47732195893E+01  0.43501621467E+02  0.00000000000E+00 0.  1.
</event>
<event>
 7    1  0.2339217E-009  0.4778728E+02  0.7816164E-02  0.1312668E+00
        -11   -1    0    0    0    0  0.00000000000E+00  0.00000000000E+00  0.45593999997E+02  0.45594000000E+02  0.51100000000E-03 0. -1.
         11   -1    0    0    0    0 -0.00000000000E+00 -0.00000000000E+00 -0.45593999997E+02  0.45594000000E+02  0.51100000000E-03 0.  1.
    9900012    2    1    2    0    0  0.40525915077E+02 -0.14495914301E+02 -0.55803931753E+01  0.47787284427E+02  0.20000061018E+02 0.  0.
         12    1    1    2    0    0 -0.40525915077E+02  0.14495914301E+02  0.55803931753E+01  0.43400715573E+02  0.00000000000E+00 0. -1.
         11    1    3    3    0    0  0.21189455199E+02 -0.56697324036E+01  0.16982210816E+01  0.22000518909E+02  0.51100000000E-03 0.  1.
        -11    1    3    3    0    0  0.22312077491E+00  0.22574034116E+01  0.57129160775E+00  0.23392365004E+01  0.51100000000E-03 0. -1.
         12    1    3    3    0    0  0.19113339103E+02 -0.11083585309E+02 -0.78499058646E+01  0.23447529018E+02  0.00000000000E+00 0. -1.
</event>
<event>
 7    1  0.2339217E-009  0.4778727E+02  0.7816164E-02  0.1312668E+00
        -11   -1    0    0    0    0  0.00000000000E+00  0.00000000000E+00  0.45593999997E+02  0.45594000000E+02  0.51100000000E-03 0.  1.
         11   -1    0    0    0    0 -0.00000000000E+00 -0.00000000000E+00 -0.45593999997E+02  0.45594000000E+02  0.51100000000E-03 0. -1.
    9900012    2    1    2    0    0 -0.77084243184E+01 -0.41662976926E+02  0.94021218724E+01  0.47787270196E+02  0.19999996132E+02 0.  0.
         12    1    1    2    0    0  0.77084243184E+01  0.41662976926E+02 -0.94021218724E+01  0.43400729804E+02  0.00000000000E+00 0. -1.
         11    1    3    3    0    0 -0.48598035680E+01 -0.31690154465E+02  0.64537563398E+01  0.32703739111E+02  0.51100000000E-03 0. -1.
        -11    1    3    3    0    0 -0.41881852666E+01 -0.99677511861E+01  0.55530541544E+01  0.12154561705E+02  0.51100000000E-03 0.  1.
         12    1    3    3    0    0  0.13395645162E+01 -0.50712753656E-02 -0.26046886218E+01  0.29289693797E+01  0.00000000000E+00 0. -1.
</event>
<event>
 7    1  0.2339217E-009  0.4778727E+02  0.7816164E-02  0.1312668E+00
        -11   -1    0    0    0    0  0.00000000000E+00  0.00000000000E+00  0.45593999997E+02  0.45594000000E+02  0.51100000000E-03 0.  1.
         11   -1    0    0    0    0 -0.00000000000E+00 -0.00000000000E+00 -0.45593999997E+02  0.45594000000E+02  0.51100000000E-03 0. -1.
    9900012    2    1    2    0    0 -0.90728628340E+01 -0.29894204560E+02  0.30127114916E+02  0.47787270058E+02  0.19999995503E+02 0.  0.
         12    1    1    2    0    0  0.90728628340E+01  0.29894204560E+02 -0.30127114916E+02  0.43400729942E+02  0.00000000000E+00 0. -1.
         11    1    3    3    0    0 -0.25587972253E-01  0.18061707373E+01  0.18515937721E+01  0.25867561220E+01  0.51100000000E-03 0. -1.
        -11    1    3    3    0    0 -0.77035516152E+01 -0.67792487954E+01  0.72116167802E+01  0.12542341829E+02  0.51100000000E-03 0.  1.
         12    1    3    3    0    0 -0.13437232466E+01 -0.24921126502E+02  0.21063904364E+02  0.32658172107E+02  0.00000000000E+00 0. -1.
</event>
<event>
 7    1  0.2339217E-009  0.4778727E+02  0.7816164E-02  0.1312668E+00
        -11   -1    0    0    0    0  0.00000000000E+00  0.00000000000E+00  0.45593999997E+02  0.45594000000E+02  0.51100000000E-03 0. -1.
         11   -1    0    0    0    0 -0.00000000000E+00 -0.00000000000E+00 -0.45593999997E+02  0.45594000000E+02  0.51100000000E-03 0.  1.
    9900012    2    1    2    0    0 -0.39556030642E+02 -0.17426062009E+02  0.39084229660E+01  0.47787274576E+02  0.20000016102E+02 0.  0.
         12    1    1    2    0    0  0.39556030642E+02  0.17426062009E+02 -0.39084229660E+01  0.43400725424E+02  0.00000000000E+00 0. -1.
         11    1    3    3    0    0 -0.11090011134E+02 -0.86658696268E+00  0.14685537670E+01  0.11220337355E+02  0.51100000000E-03 0. -1.
        -11    1    3    3    0    0  0.17608499238E+01 -0.26131379326E+00 -0.10209816425E+01  0.20521406209E+01  0.51100000000E-03 0.  1.
        -12    1    3    3    0    0 -0.30226869431E+02 -0.16298161253E+02  0.34608508415E+01  0.34514796600E+02  0.00000000000E+00 0.  1.
</event>
<event>
 7    1  0.2339217E-009  0.4778727E+02  0.7816164E-02  0.1312668E+00
        -11   -1    0    0    0    0  0.00000000000E+00  0.00000000000E+00  0.45593999997E+02  0.45594000000E+02  0.51100000000E-03 0. -1.
         11   -1    0    0    0    0 -0.00000000000E+00 -0.00000000000E+00 -0.45593999997E+02  0.45594000000E+02  0.51100000000E-03 0.  1.
    9900012    2    1    2    0    0  0.92964819395E+01  0.42385771404E+02  0.80327984444E+00  0.47787268986E+02  0.19999990617E+02 0.  0.
         12    1    1    2    0    0 -0.92964819395E+01 -0.42385771404E+02 -0.80327984444E+00  0.43400731014E+02  0.00000000000E+00 0. -1.
         11    1    3    3    0    0  0.77887143863E+01  0.26588197863E+02  0.76415343034E+01  0.28740031039E+02  0.51100000000E-03 0. -1.
        -11    1    3    3    0    0  0.12672648778E+01  0.65046667755E+01  0.12276654385E+01  0.67397190461E+01  0.51100000000E-03 0.  1.
        -12    1    3    3    0    0  0.24050267537E+00  0.92929067663E+01 -0.80659198974E+01  0.12307518901E+02  0.00000000000E+00 0.  1.
</event>
<event>
 7    1  0.2339217E-009  0.4778726E+02  0.7816164E-02  0.1312668E+00
        -11   -1    0    0    0    0  0.00000000000E+00  0.00000000000E+00  0.45593999997E+02  0.45594000000E+02  0.51100000000E-03 0.  1.
         11   -1    0    0    0    0 -0.00000000000E+00 -0.00000000000E+00 -0.45593999997E+02  0.45594000000E+02  0.51100000000E-03 0. -1.
    9900012    2    1    2    0    0  0.30847434268E+02 -0.11413378508E+02  0.28315975547E+02  0.47787264049E+02  0.19999968104E+02 0.  0.
         12    1    1    2    0    0 -0.30847434268E+02  0.11413378508E+02 -0.28315975547E+02  0.43400735951E+02  0.00000000000E+00 0. -1.
         11    1    3    3    0    0  0.20675823960E+02 -0.37991340501E+01  0.18790759012E+02  0.28196023487E+02  0.51100000000E-03 0. -1.
        -11    1    3    3    0    0  0.10024079932E+02 -0.21500672970E+01  0.97119820154E+01  0.14121882410E+02  0.51100000000E-03 0.  1.
         12    1    3    3    0    0  0.14753037680E+00 -0.54641771608E+01 -0.18676548045E+00  0.54693581526E+01  0.00000000000E+00 0. -1.
</event>
<event>
 7    1  0.2339217E-009  0.4778727E+02  0.7816164E-02  0.1312668E+00
        -11   -1    0    0    0    0  0.00000000000E+00  0.00000000000E+00  0.45593999997E+02  0.45594000000E+02  0.51100000000E-03 0.  1.
         11   -1    0    0    0    0 -0.00000000000E+00 -0.00000000000E+00 -0.45593999997E+02  0.45594000000E+02  0.51100000000E-03 0. -1.
    9900012    2    1    2    0    0  0.91498299825E+00  0.39503938674E+02  0.17950625811E+02  0.47787270379E+02  0.19999996967E+02 0.  0.
         12    1    1    2    0    0 -0.91498299825E+00 -0.39503938674E+02 -0.17950625811E+02  0.43400729621E+02  0.00000000000E+00 0. -1.
         11    1    3    3    0    0 -0.46381471171E+01  0.13043394991E+02  0.85530176978E+01  0.16272574276E+02  0.51100000000E-03 0. -1.
        -11    1    3    3    0    0  0.55874299888E+01  0.13744026749E+02  0.11309305797E+02  0.18655241704E+02  0.51100000000E-03 0.  1.
         12    1    3    3    0    0 -0.34299873525E-01  0.12716516933E+02 -0.19116976843E+01  0.12859454399E+02  0.00000000000E+00 0. -1.
</event>
<event>
 7    1  0.2339217E-009  0.4778727E+02  0.7816164E-02  0.1312668E+00
        -11   -1    0    0    0    0  0.00000000000E+00  0.00000000000E+00  0.45593999997E+02  0.45594000000E+02  0.51100000000E-03 0. -1.
         11   -1    0    0    0    0 -0.00000000000E+00 -0.00000000000E+00 -0.45593999997E+02  0.45594000000E+02  0.51100000000E-03 0.  1.
    9900012    2    1    2    0    0  0.19466963744E+02 -0.18728216532E+02 -0.33969315546E+02  0.47787272235E+02  0.20000005427E+02 0.  0.
         12    1    1    2    0    0 -0.19466963744E+02  0.18728216532E+02  0.33969315546E+02  0.43400727765E+02  0.00000000000E+00 0. -1.
         11    1    3    3    0    0  0.12940302780E+02 -0.76861406838E+01 -0.14201237663E+02  0.20693074834E+02  0.51100000000E-03 0. -1.
        -11    1    3    3    0    0  0.91528203659E+01 -0.10158280272E+02 -0.20093149105E+02  0.24304308671E+02  0.51100000000E-03 0.  1.
         12    1    3    3    0    0 -0.26261594020E+01 -0.88379557671E+00  0.32507122280E+00  0.27898887301E+01  0.00000000000E+00 0. -1.
</event>
<event>
 7    1  0.2339217E-009  0.4778727E+02  0.7816164E-02  0.1312668E+00
        -11   -1    0    0    0    0  0.00000000000E+00  0.00000000000E+00  0.45593999997E+02  0.45594000000E+02  0.51100000000E-03 0. -1.
         11   -1    0    0    0    0 -0.00000000000E+00 -0.00000000000E+00 -0.45593999997E+02  0.45594000000E+02  0.51100000000E-03 0.  1.
    9900012    2    1    2    0    0  0.21955776986E+02 -0.61965564210E+01 -0.36921125387E+02  0.47787274725E+02  0.20000016783E+02 0.  0.
         12    1    1    2    0    0 -0.21955776986E+02  0.61965564210E+01  0.36921125387E+02  0.43400725275E+02  0.00000000000E+00 0. -1.
         11    1    3    3    0    0  0.13755681930E+01 -0.13670313513E+01 -0.18827210760E+00  0.19484376348E+01  0.51100000000E-03 0. -1.
        -11    1    3    3    0    0  0.78567241101E+01 -0.67888664608E+00 -0.29682005990E+02  0.30711731971E+02  0.51100000000E-03 0.  1.
        -12    1    3    3    0    0  0.12723484683E+02 -0.41506384236E+01 -0.70508472895E+01  0.15127105120E+02  0.00000000000E+00 0.  1.
</event>
<event>
 7    1  0.2339217E-009  0.4778728E+02  0.7816164E-02  0.1312668E+00
        -11   -1    0    0    0    0  0.00000000000E+00  0.00000000000E+00  0.45593999997E+02  0.45594000000E+02  0.51100000000E-03 0. -1.
         11   -1    0    0    0    0 -0.00000000000E+00 -0.00000000000E+00 -0.45593999997E+02  0.45594000000E+02  0.51100000000E-03 0.  1.
    9900012    2    1    2    0    0  0.37101430471E+01 -0.35249340839E+02 -0.25046787406E+02  0.47787277075E+02  0.20000027498E+02 0.  0.
         12    1    1    2    0    0 -0.37101430471E+01  0.35249340839E+02  0.25046787406E+02  0.43400722925E+02  0.00000000000E+00 0. -1.
         11    1    3    3    0    0  0.22562503729E+01 -0.30260759353E+01  0.52664214182E+00  0.38111879405E+01  0.51100000000E-03 0. -1.
        -11    1    3    3    0    0  0.60671852110E+00 -0.65530181718E+01 -0.14660028952E+02  0.16069430720E+02  0.51100000000E-03 0.  1.
        -12    1    3    3    0    0  0.84717415308E+00 -0.25670246732E+02 -0.10913400595E+02  0.27906658415E+02  0.00000000000E+00 0.  1.
</event>
<event>
 7    1  0.2339217E-009  0.4778727E+02  0.7816164E-02  0.1312668E+00
        -11   -1    0    0    0    0  0.00000000000E+00  0.00000000000E+00  0.45593999997E+02  0.45594000000E+02  0.51100000000E-03 0.  1.
         11   -1    0    0    0    0 -0.00000000000E+00 -0.00000000000E+00 -0.45593999997E+02  0.45594000000E+02  0.51100000000E-03 0. -1.
    9900012    2    1    2    0    0 -0.14949444234E+02 -0.65023052058E+01  0.40222599087E+02  0.47787270361E+02  0.19999996883E+02 0.  0.
         12    1    1    2    0    0  0.14949444234E+02  0.65023052058E+01 -0.40222599087E+02  0.43400729639E+02  0.00000000000E+00 0. -1.
         11    1    3    3    0    0 -0.77309316104E+01 -0.34114975396E+01  0.96606037522E+01  0.12834830897E+02  0.51100000000E-03 0. -1.
        -11    1    3    3    0    0 -0.59021893390E+01 -0.86820108572E+01  0.24211342868E+02  0.26389434917E+02  0.51100000000E-03 0.  1.
         12    1    3    3    0    0 -0.13163232841E+01  0.55912031911E+01  0.63506524675E+01  0.85630045471E+01  0.00000000000E+00 0. -1.
</event>
<event>
 7    1  0.2339217E-009  0.4778729E+02  0.7816164E-02  0.1312668E+00
        -11   -1    0    0    0    0  0.00000000000E+00  0.00000000000E+00  0.45593999997E+02  0.45594000000E+02  0.51100000000E-03 0. -1.
         11   -1    0    0    0    0 -0.00000000000E+00 -0.00000000000E+00 -0.45593999997E+02  0.45594000000E+02  0.51100000000E-03 0.  1.
    9900012    2    1    2    0    0 -0.25459292566E+02 -0.33203470679E+02 -0.11531492452E+02  0.47787293079E+02  0.20000100463E+02 0.  0.
         12    1    1    2    0    0  0.25459292566E+02  0.33203470679E+02  0.11531492452E+02  0.43400706921E+02  0.00000000000E+00 0. -1.
         11    1    3    3    0    0 -0.19306270351E+01 -0.27905192858E+01  0.25543927072E+01  0.42472627652E+01  0.51100000000E-03 0. -1.
        -11    1    3    3    0    0 -0.18827313895E+02 -0.18748625477E+02 -0.29343138331E+01  0.26731795745E+02  0.51100000000E-03 0.  1.
        -12    1    3    3    0    0 -0.47013516352E+01 -0.11664325916E+02 -0.11151571326E+02  0.16808234569E+02  0.00000000000E+00 0.  1.
</event>
<event>
 7    1  0.2339217E-009  0.4778727E+02  0.7816164E-02  0.1312668E+00
        -11   -1    0    0    0    0  0.00000000000E+00  0.00000000000E+00  0.45593999997E+02  0.45594000000E+02  0.51100000000E-03 0.  1.
         11   -1    0    0    0    0 -0.00000000000E+00 -0.00000000000E+00 -0.45593999997E+02  0.45594000000E+02  0.51100000000E-03 0. -1.
    9900012    2    1    2    0    0 -0.39339988768E+02  0.27334892588E+00 -0.18327955520E+02  0.47787269713E+02  0.19999993930E+02 0.  0.
         12    1    1    2    0    0  0.39339988768E+02 -0.27334892588E+00  0.18327955520E+02  0.43400730287E+02  0.00000000000E+00 0. -1.
         11    1    3    3    0    0 -0.13424079240E+02 -0.20761610196E+01 -0.49110609346E+01  0.14444198413E+02  0.51100000000E-03 0. -1.
        -11    1    3    3    0    0 -0.14886424523E+02  0.39513395462E+01  0.62637167638E+00  0.15414637882E+02  0.51100000000E-03 0.  1.
         12    1    3    3    0    0 -0.11029485005E+02 -0.16018296008E+01 -0.14043266262E+02  0.17928433419E+02  0.00000000000E+00 0. -1.
</event>
<event>
 7    1  0.2339217E-009  0.4778728E+02  0.7816164E-02  0.1312668E+00
        -11   -1    0    0    0    0  0.00000000000E+00  0.00000000000E+00  0.45593999997E+02  0.45594000000E+02  0.51100000000E-03 0.  1.
         11   -1    0    0    0    0 -0.00000000000E+00 -0.00000000000E+00 -0.45593999997E+02  0.45594000000E+02  0.51100000000E-03 0. -1.
    9900012    2    1    2    0    0 -0.33246647416E+02 -0.27782455260E+02  0.25334373737E+01  0.47787277776E+02  0.20000030691E+02 0.  0.
         12    1    1    2    0    0  0.33246647416E+02  0.27782455260E+02 -0.25334373737E+01  0.43400722224E+02  0.00000000000E+00 0. -1.
         11    1    3    3    0    0 -0.36312875441E+01 -0.51408667476E+01 -0.47598458611E+01  0.78911908497E+01  0.51100000000E-03 0. -1.
        -11    1    3    3    0    0 -0.88935462628E+00 -0.48399557542E+01 -0.11691585359E+01  0.50579694836E+01  0.51100000000E-03 0.  1.
        -12    1    3    3    0    0 -0.28726005245E+02 -0.17801632758E+02  0.84624417707E+01  0.34838117442E+02  0.00000000000E+00 0.  1.
</event>
<event>
 7    1  0.2339217E-009  0.4778727E+02  0.7816164E-02  0.1312668E+00
        -11   -1    0    0    0    0  0.00000000000E+00  0.00000000000E+00  0.45593999997E+02  0.45594000000E+02  0.51100000000E-03 0.  1.
         11   -1    0    0    0    0 -0.00000000000E+00 -0.00000000000E+00 -0.45593999997E+02  0.45594000000E+02  0.51100000000E-03 0. -1.
    9900012    2    1    2    0    0  0.21487486448E+02  0.37673381428E+02  0.16210716169E+01  0.47787267112E+02  0.19999982069E+02 0.  0.
         12    1    1    2    0    0 -0.21487486448E+02 -0.37673381428E+02 -0.16210716169E+01  0.43400732888E+02  0.00000000000E+00 0. -1.
         11    1    3    3    0    0  0.61007598513E+01  0.22003947763E+02 -0.13121761494E+01  0.22871702920E+02  0.51100000000E-03 0. -1.
        -11    1    3    3    0    0 -0.11365811911E+01  0.38260339218E+01 -0.12049986919E+01  0.41692174905E+01  0.51100000000E-03 0.  1.
        -12    1    3    3    0    0  0.16523307788E+02  0.11843399742E+02  0.41382464582E+01  0.20746346702E+02  0.00000000000E+00 0.  1.
</event>
<event>
 7    1  0.2339217E-009  0.4778728E+02  0.7816164E-02  0.1312668E+00
        -11   -1    0    0    0    0  0.00000000000E+00  0.00000000000E+00  0.45593999997E+02  0.45594000000E+02  0.51100000000E-03 0.  1.
         11   -1    0    0    0    0 -0.00000000000E+00 -0.00000000000E+00 -0.45593999997E+02  0.45594000000E+02  0.51100000000E-03 0. -1.
    9900012    2    1    2    0    0  0.10940505678E+02 -0.17724459137E+02  0.38075865674E+02  0.47787278082E+02  0.20000032086E+02 0.  0.
         12    1    1    2    0    0 -0.10940505678E+02  0.17724459137E+02 -0.38075865674E+02  0.43400721918E+02  0.00000000000E+00 0. -1.
         11    1    3    3    0    0 -0.16359480694E+01  0.56660428589E+00  0.21206243941E+01  0.27375928449E+01  0.51100000000E-03 0. -1.
        -11    1    3    3    0    0 -0.70082513597E+00 -0.86395743427E+01  0.21484958039E+02  0.23167581291E+02  0.51100000000E-03 0.  1.
         12    1    3    3    0    0  0.13277278883E+02 -0.96514890800E+01  0.14470283242E+02  0.21882103946E+02  0.00000000000E+00 0. -1.
</event>
<event>
 7    1  0.2339217E-009  0.4778725E+02  0.7816164E-02  0.1312668E+00
        -11   -1    0    0    0    0  0.00000000000E+00  0.00000000000E+00  0.45593999997E+02  0.45594000000E+02  0.51100000000E-03 0.  1.
         11   -1    0    0    0    0 -0.00000000000E+00 -0.00000000000E+00 -0.45593999997E+02  0.45594000000E+02  0.51100000000E-03 0. -1.
    9900012    2    1    2    0    0  0.29363148591E+02  0.25335595074E+02  0.19481733442E+02  0.47787253338E+02  0.19999919267E+02 0.  0.
         12    1    1    2    0    0 -0.29363148591E+02 -0.25335595074E+02 -0.19481733442E+02  0.43400746662E+02  0.00000000000E+00 0. -1.
         11    1    3    3    0    0  0.10527443020E+02  0.82948846347E+01  0.12919621059E+02  0.18615820589E+02  0.51100000000E-03 0.  1.
        -11    1    3    3    0    0  0.17839200134E+01 -0.19256768667E+01 -0.57449869488E+00  0.26871269082E+01  0.51100000000E-03 0. -1.
         12    1    3    3    0    0  0.17051785558E+02  0.18966387306E+02  0.71366110780E+01  0.26484305840E+02  0.00000000000E+00 0. -1.
</event>
<event>
 7    1  0.2339217E-009  0.4778727E+02  0.7816164E-02  0.1312668E+00
        -11   -1    0    0    0    0  0.00000000000E+00  0.00000000000E+00  0.45593999997E+02  0.45594000000E+02  0.51100000000E-03 0.  1.
         11   -1    0    0    0    0 -0.00000000000E+00 -0.00000000000E+00 -0.45593999997E+02  0.45594000000E+02  0.51100000000E-03 0. -1.
    9900012    2    1    2    0    0 -0.40780748961E+02 -0.12818781393E+02  0.74988502570E+01  0.47787269622E+02  0.19999993512E+02 0.  0.
         12    1    1    2    0    0  0.40780748961E+02  0.12818781393E+02 -0.74988502570E+01  0.43400730378E+02  0.00000000000E+00 0. -1.
         11    1    3    3    0    0 -0.21969497062E+02 -0.84939755200E+01  0.57503990534E+01  0.24246103003E+02  0.51100000000E-03 0. -1.
        -11    1    3    3    0    0 -0.18200304133E+02 -0.71586820433E+01  0.38853030210E+01  0.19939743704E+02  0.51100000000E-03 0.  1.
         12    1    3    3    0    0 -0.61094776549E+00  0.28338761705E+01 -0.21368518174E+01  0.36014229149E+01  0.00000000000E+00 0. -1.
</event>
<event>
 7    1  0.2339217E-009  0.4778726E+02  0.7816164E-02  0.1312668E+00
        -11   -1    0    0    0    0  0.00000000000E+00  0.00000000000E+00  0.45593999997E+02  0.45594000000E+02  0.51100000000E-03 0.  1.
         11   -1    0    0    0    0 -0.00000000000E+00 -0.00000000000E+00 -0.45593999997E+02  0.45594000000E+02  0.51100000000E-03 0. -1.
    9900012    2    1    2    0    0 -0.26183832298E+02  0.93817751377E+01  0.33316862350E+02  0.47787261580E+02  0.19999956847E+02 0.  0.
         12    1    1    2    0    0  0.26183832298E+02 -0.93817751377E+01 -0.33316862350E+02  0.43400738420E+02  0.00000000000E+00 0. -1.
         11    1    3    3    0    0 -0.23103091784E+01  0.45523700582E+01  0.82649146570E+01  0.97144436895E+01  0.51100000000E-03 0. -1.
        -11    1    3    3    0    0  0.15382734347E+01  0.22744614349E+01  0.45831550140E+01  0.53427305867E+01  0.51100000000E-03 0.  1.
        -12    1    3    3    0    0 -0.25411796555E+02  0.25549436446E+01  0.20468792679E+02  0.32730087304E+02  0.00000000000E+00 0.  1.
</event>
<event>
 7    1  0.2339217E-009  0.4778727E+02  0.7816164E-02  0.1312668E+00
        -11   -1    0    0    0    0  0.00000000000E+00  0.00000000000E+00  0.45593999997E+02  0.45594000000E+02  0.51100000000E-03 0.  1.
         11   -1    0    0    0    0 -0.00000000000E+00 -0.00000000000E+00 -0.45593999997E+02  0.45594000000E+02  0.51100000000E-03 0. -1.
    9900012    2    1    2    0    0  0.24296751667E+02 -0.29789145175E+02  0.20146913726E+02  0.47787269078E+02  0.19999991036E+02 0.  0.
         12    1    1    2    0    0 -0.24296751667E+02  0.29789145175E+02 -0.20146913726E+02  0.43400730922E+02  0.00000000000E+00 0. -1.
         11    1    3    3    0    0  0.78055951688E+01 -0.66105091058E+01 -0.78757609765E+00  0.10258967928E+02  0.51100000000E-03 0. -1.
        -11    1    3    3    0    0  0.25036214018E+01 -0.53987452644E+01 -0.98090556446E+00  0.60313138321E+01  0.51100000000E-03 0.  1.
        -12    1    3    3    0    0  0.13987535097E+02 -0.17779890805E+02  0.21915395388E+02  0.31496987318E+02  0.00000000000E+00 0.  1.
</event>
<event>
 7    1  0.2339217E-009  0.4778727E+02  0.7816164E-02  0.1312668E+00
        -11   -1    0    0    0    0  0.00000000000E+00  0.00000000000E+00  0.45593999997E+02  0.45594000000E+02  0.51100000000E-03 0. -1.
         11   -1    0    0    0    0 -0.00000000000E+00 -0.00000000000E+00 -0.45593999997E+02  0.45594000000E+02  0.51100000000E-03 0.  1.
    9900012    2    1    2    0    0  0.58042447070E+01 -0.43004575442E+02 -0.73505698695E+00  0.47787273343E+02  0.20000010480E+02 0.  0.
         12    1    1    2    0    0 -0.58042447070E+01  0.43004575442E+02  0.73505698695E+00  0.43400726657E+02  0.00000000000E+00 0. -1.
         11    1    3    3    0    0 -0.61830949672E+01 -0.66433716275E+01  0.16471978474E+01  0.92237904879E+01  0.51100000000E-03 0. -1.
        -11    1    3    3    0    0  0.37745824461E+01 -0.67453658553E+01  0.95951624440E-01  0.77302419198E+01  0.51100000000E-03 0.  1.
         12    1    3    3    0    0  0.82127572282E+01 -0.29615837959E+02 -0.24782064588E+01  0.30833240935E+02  0.00000000000E+00 0. -1.
</event>
<event>
 7    1  0.2339217E-009  0.4778727E+02  0.7816164E-02  0.1312668E+00
        -11   -1    0    0    0    0  0.00000000000E+00  0.00000000000E+00  0.45593999997E+02  0.45594000000E+02  0.51100000000E-03 0.  1.
         11   -1    0    0    0    0 -0.00000000000E+00 -0.00000000000E+00 -0.45593999997E+02  0.45594000000E+02  0.51100000000E-03 0. -1.
    9900012    2    1    2    0    0 -0.33105872746E+02 -0.28042467068E+02 -0.11154965773E+01  0.47787273023E+02  0.20000009020E+02 0.  0.
         12    1    1    2    0    0  0.33105872746E+02  0.28042467068E+02  0.11154965773E+01  0.43400726977E+02  0.00000000000E+00 0. -1.
         11    1    3    3    0    0 -0.89325723683E+01 -0.16006988849E+02 -0.20147319366E+01  0.18441086903E+02  0.51100000000E-03 0. -1.
        -11    1    3    3    0    0 -0.42468179641E+00 -0.42891999266E+01 -0.42505858973E+00  0.43310813551E+01  0.51100000000E-03 0.  1.
         12    1    3    3    0    0 -0.23748618582E+02 -0.77462782916E+01  0.13242939491E+01  0.25015104764E+02  0.00000000000E+00 0. -1.
</event>
<event>
 7    1  0.2339217E-009  0.4778727E+02  0.7816164E-02  0.1312668E+00
        -11   -1    0    0    0    0  0.00000000000E+00  0.00000000000E+00  0.45593999997E+02  0.45594000000E+02  0.51100000000E-03 0.  1.
         11   -1    0    0    0    0 -0.00000000000E+00 -0.00000000000E+00 -0.45593999997E+02  0.45594000000E+02  0.51100000000E-03 0. -1.
    9900012    2    1    2    0    0 -0.20177898055E+02  0.25448065151E+02  0.28790134958E+02  0.47787268892E+02  0.19999990185E+02 0.  0.
         12    1    1    2    0    0  0.20177898055E+02 -0.25448065151E+02 -0.28790134958E+02  0.43400731108E+02  0.00000000000E+00 0. -1.
         11    1    3    3    0    0 -0.33481234307E+01  0.71471910289E+01  0.68286833683E+01  0.10436627181E+02  0.51100000000E-03 0. -1.
        -11    1    3    3    0    0 -0.51681760961E+01  0.91208496430E+01  0.19730404976E+02  0.22342533947E+02  0.51100000000E-03 0.  1.
         12    1    3    3    0    0 -0.11661598528E+02  0.91800244789E+01  0.22310466133E+01  0.15008107764E+02  0.00000000000E+00 0. -1.
</event>
<event>
 7    1  0.2339217E-009  0.4778731E+02  0.7816164E-02  0.1312668E+00
        -11   -1    0    0    0    0  0.00000000000E+00  0.00000000000E+00  0.45593999997E+02  0.45594000000E+02  0.51100000000E-03 0. -1.
         11   -1    0    0    0    0 -0.00000000000E+00 -0.00000000000E+00 -0.45593999997E+02  0.45594000000E+02  0.51100000000E-03 0.  1.
    9900012    2    1    2    0    0  0.39508965740E+02 -0.16833975316E+02 -0.62673012964E+01  0.47787306868E+02  0.20000163333E+02 0.  0.
         12    1    1    2    0    0 -0.39508965740E+02  0.16833975316E+02  0.62673012964E+01  0.43400693132E+02  0.00000000000E+00 0. -1.
         11    1    3    3    0    0  0.12098167333E+02 -0.76324752506E+01 -0.50661005260E+01  0.15175167415E+02  0.51100000000E-03 0. -1.
        -11    1    3    3    0    0  0.26457345059E+02 -0.12378908952E+02 -0.46362293860E+00  0.29213754310E+02  0.51100000000E-03 0.  1.
         12    1    3    3    0    0  0.95345334809E+00  0.31774088867E+01 -0.73757783177E+00  0.33983851427E+01  0.00000000000E+00 0. -1.
</event>
<event>
 7    1  0.2339217E-009  0.4778725E+02  0.7816164E-02  0.1312668E+00
        -11   -1    0    0    0    0  0.00000000000E+00  0.00000000000E+00  0.45593999997E+02  0.45594000000E+02  0.51100000000E-03 0.  1.
         11   -1    0    0    0    0 -0.00000000000E+00 -0.00000000000E+00 -0.45593999997E+02  0.45594000000E+02  0.51100000000E-03 0. -1.
    9900012    2    1    2    0    0 -0.20828539663E+02  0.94724939082E+01  0.36879117298E+02  0.47787245421E+02  0.19999883174E+02 0.  0.
         12    1    1    2    0    0  0.20828539663E+02 -0.94724939082E+01 -0.36879117298E+02  0.43400754579E+02  0.00000000000E+00 0. -1.
         11    1    3    3    0    0  0.18716524764E+01 -0.99768603153E+00  0.52306473672E+01  0.56443008913E+01  0.51100000000E-03 0. -1.
        -11    1    3    3    0    0 -0.14708528552E+01 -0.23783304116E+01  0.50073324681E+01  0.57352630607E+01  0.51100000000E-03 0.  1.
        -12    1    3    3    0    0 -0.21229339284E+02  0.12848510351E+02  0.26641137463E+02  0.36407681469E+02  0.00000000000E+00 0.  1.
</event>
<event>
 7    1  0.2339217E-009  0.4778727E+02  0.7816164E-02  0.1312668E+00
        -11   -1    0    0    0    0  0.00000000000E+00  0.00000000000E+00  0.45593999997E+02  0.45594000000E+02  0.51100000000E-03 0.  1.
         11   -1    0    0    0    0 -0.00000000000E+00 -0.00000000000E+00 -0.45593999997E+02  0.45594000000E+02  0.51100000000E-03 0. -1.
    9900012    2    1    2    0    0  0.38499293912E+01  0.21651549219E+02  0.37416733133E+02  0.47787268921E+02  0.19999990316E+02 0.  0.
         12    1    1    2    0    0 -0.38499293912E+01 -0.21651549219E+02 -0.37416733133E+02  0.43400731079E+02  0.00000000000E+00 0. -1.
         11    1    3    3    0    0  0.34327849282E+01  0.12065322174E+02  0.12229740421E+02  0.17519205535E+02  0.51100000000E-03 0. -1.
        -11    1    3    3    0    0  0.29169473490E+01  0.10842818527E+02  0.10689041494E+02  0.15502609579E+02  0.51100000000E-03 0.  1.
         12    1    3    3    0    0 -0.24998028859E+01 -0.12565914818E+01  0.14497951217E+02  0.14765453807E+02  0.00000000000E+00 0. -1.
</event>
<event>
 7    1  0.2339217E-009  0.4778726E+02  0.7816164E-02  0.1312668E+00
        -11   -1    0    0    0    0  0.00000000000E+00  0.00000000000E+00  0.45593999997E+02  0.45594000000E+02  0.51100000000E-03 0.  1.
         11   -1    0    0    0    0 -0.00000000000E+00 -0.00000000000E+00 -0.45593999997E+02  0.45594000000E+02  0.51100000000E-03 0. -1.
    9900012    2    1    2    0    0  0.31879901612E+02  0.10959082623E+02  0.27334855199E+02  0.47787263514E+02  0.19999965667E+02 0.  0.
         12    1    1    2    0    0 -0.31879901612E+02 -0.10959082623E+02 -0.27334855199E+02  0.43400736486E+02  0.00000000000E+00 0. -1.
         11    1    3    3    0    0  0.70913164424E+01  0.32048245110E+01  0.61831387625E+01  0.99392592405E+01  0.51100000000E-03 0.  1.
        -11    1    3    3    0    0  0.17116238722E+02 -0.37727002132E+01  0.11296484214E+02  0.20852085046E+02  0.51100000000E-03 0. -1.
         12    1    3    3    0    0  0.76723464477E+01  0.11526958325E+02  0.98552322228E+01  0.16995919228E+02  0.00000000000E+00 0. -1.
</event>
<event>
 7    1  0.2339217E-009  0.4778727E+02  0.7816164E-02  0.1312668E+00
        -11   -1    0    0    0    0  0.00000000000E+00  0.00000000000E+00  0.45593999997E+02  0.45594000000E+02  0.51100000000E-03 0.  1.
         11   -1    0    0    0    0 -0.00000000000E+00 -0.00000000000E+00 -0.45593999997E+02  0.45594000000E+02  0.51100000000E-03 0. -1.
    9900012    2    1    2    0    0  0.18634471731E+02  0.16833852534E+02  0.35397762240E+02  0.47787266142E+02  0.19999977648E+02 0.  0.
         12    1    1    2    0    0 -0.18634471731E+02 -0.16833852534E+02 -0.35397762240E+02  0.43400733858E+02  0.00000000000E+00 0. -1.
         11    1    3    3    0    0  0.17159827528E+01 -0.27605189527E+01  0.18085433628E+01  0.37196627606E+01  0.51100000000E-03 0. -1.
        -11    1    3    3    0    0  0.17000622315E+02  0.13525464179E+02  0.21630305478E+02  0.30656638037E+02  0.51100000000E-03 0.  1.
         12    1    3    3    0    0 -0.82133337541E-01  0.60689073078E+01  0.11958913399E+02  0.13410965345E+02  0.00000000000E+00 0. -1.
</event>
<event>
 7    1  0.2339217E-009  0.4778727E+02  0.7816164E-02  0.1312668E+00
        -11   -1    0    0    0    0  0.00000000000E+00  0.00000000000E+00  0.45593999997E+02  0.45594000000E+02  0.51100000000E-03 0. -1.
         11   -1    0    0    0    0 -0.00000000000E+00 -0.00000000000E+00 -0.45593999997E+02  0.45594000000E+02  0.51100000000E-03 0.  1.
    9900012    2    1    2    0    0  0.42973536697E+02 -0.40269559510E+01  0.45477304824E+01  0.47787273243E+02  0.20000010023E+02 0.  0.
         12    1    1    2    0    0 -0.42973536697E+02  0.40269559510E+01 -0.45477304824E+01  0.43400726757E+02  0.00000000000E+00 0. -1.
         11    1    3    3    0    0  0.33215359737E+02  0.37075652319E+01  0.42514275576E+01  0.33690960196E+02  0.51100000000E-03 0. -1.
        -11    1    3    3    0    0 -0.34187597385E+00  0.68026935042E+00  0.56400332962E+00  0.94749437337E+00  0.51100000000E-03 0.  1.
        -12    1    3    3    0    0  0.10100052935E+02 -0.84147905333E+01 -0.26770040481E+00  0.13148818674E+02  0.00000000000E+00 0.  1.
</event>
<event>
 7    1  0.2339217E-009  0.4778727E+02  0.7816164E-02  0.1312668E+00
        -11   -1    0    0    0    0  0.00000000000E+00  0.00000000000E+00  0.45593999997E+02  0.45594000000E+02  0.51100000000E-03 0.  1.
         11   -1    0    0    0    0 -0.00000000000E+00 -0.00000000000E+00 -0.45593999997E+02  0.45594000000E+02  0.51100000000E-03 0. -1.
    9900012    2    1    2    0    0 -0.69479669172E+01  0.35517616946E+02 -0.23955123129E+02  0.47787270952E+02  0.19999999577E+02 0.  0.
         12    1    1    2    0    0  0.69479669172E+01 -0.35517616946E+02  0.23955123129E+02  0.43400729048E+02  0.00000000000E+00 0. -1.
         11    1    3    3    0    0 -0.29230847114E+01  0.10581511844E+02 -0.44239821503E+01  0.11835727078E+02  0.51100000000E-03 0. -1.
        -11    1    3    3    0    0  0.19618826361E+01  0.21718420330E+02 -0.93880410649E+01  0.23741821337E+02  0.51100000000E-03 0.  1.
         12    1    3    3    0    0 -0.59867648419E+01  0.32176847717E+01 -0.10143099914E+02  0.12209722537E+02  0.00000000000E+00 0. -1.
</event>
<event>
 7    1  0.2339217E-009  0.4778727E+02  0.7816164E-02  0.1312668E+00
        -11   -1    0    0    0    0  0.00000000000E+00  0.00000000000E+00  0.45593999997E+02  0.45594000000E+02  0.51100000000E-03 0. -1.
         11   -1    0    0    0    0 -0.00000000000E+00 -0.00000000000E+00 -0.45593999997E+02  0.45594000000E+02  0.51100000000E-03 0.  1.
    9900012    2    1    2    0    0  0.32026426630E+02 -0.17001557384E+01 -0.29241080379E+02  0.47787270583E+02  0.19999997894E+02 0.  0.
         12    1    1    2    0    0 -0.32026426630E+02  0.17001557384E+01  0.29241080379E+02  0.43400729417E+02  0.00000000000E+00 0. -1.
         11    1    3    3    0    0  0.10437448789E+02  0.20975434196E+01 -0.13147788817E+02  0.16917575969E+02  0.51100000000E-03 0. -1.
        -11    1    3    3    0    0  0.17816990438E+02  0.31866492636E+01 -0.13276358325E+02  0.22446861082E+02  0.51100000000E-03 0.  1.
         12    1    3    3    0    0  0.37719874027E+01 -0.69843484216E+01 -0.28169332377E+01  0.84228335319E+01  0.00000000000E+00 0. -1.
</event>
<event>
 7    1  0.2339217E-009  0.4778727E+02  0.7816164E-02  0.1312668E+00
        -11   -1    0    0    0    0  0.00000000000E+00  0.00000000000E+00  0.45593999997E+02  0.45594000000E+02  0.51100000000E-03 0.  1.
         11   -1    0    0    0    0 -0.00000000000E+00 -0.00000000000E+00 -0.45593999997E+02  0.45594000000E+02  0.51100000000E-03 0. -1.
    9900012    2    1    2    0    0  0.18105161049E+02 -0.96185527284E+01  0.38253234029E+02  0.47787270434E+02  0.19999997218E+02 0.  0.
         12    1    1    2    0    0 -0.18105161049E+02  0.96185527284E+01 -0.38253234029E+02  0.43400729566E+02  0.00000000000E+00 0. -1.
         11    1    3    3    0    0  0.65011138649E+01 -0.12903669249E+02  0.16725460140E+02  0.22102266371E+02  0.51100000000E-03 0. -1.
        -11    1    3    3    0    0  0.53033503400E+01 -0.36896421654E+00  0.38450793072E+01  0.65609675020E+01  0.51100000000E-03 0.  1.
         12    1    3    3    0    0  0.63006968440E+01  0.36540807370E+01  0.17682694581E+02  0.19124036562E+02  0.00000000000E+00 0. -1.
</event>
<event>
 7    1  0.2339217E-009  0.4778727E+02  0.7816164E-02  0.1312668E+00
        -11   -1    0    0    0    0  0.00000000000E+00  0.00000000000E+00  0.45593999997E+02  0.45594000000E+02  0.51100000000E-03 0.  1.
         11   -1    0    0    0    0 -0.00000000000E+00 -0.00000000000E+00 -0.45593999997E+02  0.45594000000E+02  0.51100000000E-03 0. -1.
    9900012    2    1    2    0    0  0.10158457964E+02 -0.36951174187E+02 -0.20372525931E+02  0.47787270112E+02  0.19999995748E+02 0.  0.
         12    1    1    2    0    0 -0.10158457964E+02  0.36951174187E+02  0.20372525931E+02  0.43400729888E+02  0.00000000000E+00 0. -1.
         11    1    3    3    0    0 -0.19284506006E+00 -0.23783586170E+02 -0.90683120148E+01  0.25454477866E+02  0.51100000000E-03 0. -1.
        -11    1    3    3    0    0  0.15204219568E+01 -0.17783671167E+01  0.17231100736E+01  0.29057496650E+01  0.51100000000E-03 0.  1.
         12    1    3    3    0    0  0.88308810668E+01 -0.11389220900E+02 -0.13027323990E+02  0.19427042581E+02  0.00000000000E+00 0. -1.
</event>
<event>
 7    1  0.2339217E-009  0.4778727E+02  0.7816164E-02  0.1312668E+00
        -11   -1    0    0    0    0  0.00000000000E+00  0.00000000000E+00  0.45593999997E+02  0.45594000000E+02  0.51100000000E-03 0. -1.
         11   -1    0    0    0    0 -0.00000000000E+00 -0.00000000000E+00 -0.45593999997E+02  0.45594000000E+02  0.51100000000E-03 0.  1.
    9900012    2    1    2    0    0 -0.12606964710E+02  0.96423504320E+01 -0.40394466568E+02  0.47787269472E+02  0.19999992831E+02 0.  0.
         12    1    1    2    0    0  0.12606964710E+02 -0.96423504320E+01  0.40394466568E+02  0.43400730528E+02  0.00000000000E+00 0. -1.
         11    1    3    3    0    0 -0.15330088557E+02  0.93676200184E+01 -0.22734521882E+02  0.28976238635E+02  0.51100000000E-03 0. -1.
        -11    1    3    3    0    0 -0.80138462047E+00  0.85852210929E+00 -0.48863717024E+00  0.12720236112E+01  0.51100000000E-03 0.  1.
        -12    1    3    3    0    0  0.35245084673E+01 -0.58379169570E+00 -0.17171307516E+02  0.17539007226E+02  0.00000000000E+00 0.  1.
</event>
<event>
 7    1  0.2339217E-009  0.4778727E+02  0.7816164E-02  0.1312668E+00
        -11   -1    0    0    0    0  0.00000000000E+00  0.00000000000E+00  0.45593999997E+02  0.45594000000E+02  0.51100000000E-03 0.  1.
         11   -1    0    0    0    0 -0.00000000000E+00 -0.00000000000E+00 -0.45593999997E+02  0.45594000000E+02  0.51100000000E-03 0. -1.
    9900012    2    1    2    0    0  0.29914665450E+02  0.28809731028E-01  0.31444163128E+02  0.47787269202E+02  0.19999991598E+02 0.  0.
         12    1    1    2    0    0 -0.29914665450E+02 -0.28809731028E-01 -0.31444163128E+02  0.43400730798E+02  0.00000000000E+00 0. -1.
         11    1    3    3    0    0  0.35783070673E+01 -0.31243181388E+01  0.15047393944E+01  0.49829595830E+01  0.51100000000E-03 0. -1.
        -11    1    3    3    0    0  0.20891667402E+02 -0.10465978967E+01  0.13269032467E+02  0.24771442365E+02  0.51100000000E-03 0.  1.
        -12    1    3    3    0    0  0.54446909812E+01  0.41997257664E+01  0.16670391267E+02  0.18032867254E+02  0.00000000000E+00 0.  1.
</event>
<event>
 7    1  0.2339217E-009  0.4778727E+02  0.7816164E-02  0.1312668E+00
        -11   -1    0    0    0    0  0.00000000000E+00  0.00000000000E+00  0.45593999997E+02  0.45594000000E+02  0.51100000000E-03 0.  1.
         11   -1    0    0    0    0 -0.00000000000E+00 -0.00000000000E+00 -0.45593999997E+02  0.45594000000E+02  0.51100000000E-03 0. -1.
    9900012    2    1    2    0    0  0.75395945858E+01  0.22050913213E+01  0.42683903539E+02  0.47787268030E+02  0.19999986254E+02 0.  0.
         12    1    1    2    0    0 -0.75395945858E+01 -0.22050913213E+01 -0.42683903539E+02  0.43400731970E+02  0.00000000000E+00 0. -1.
         11    1    3    3    0    0  0.17340926858E+01 -0.20023215567E+01  0.29914686360E+02  0.30031730376E+02  0.51100000000E-03 0. -1.
        -11    1    3    3    0    0 -0.27077508448E+01 -0.12349281894E+00  0.36796260155E+01  0.45702092937E+01  0.51100000000E-03 0.  1.
        -12    1    3    3    0    0  0.85132527448E+01  0.43309056969E+01  0.90895911630E+01  0.13185328360E+02  0.00000000000E+00 0.  1.
</event>
<event>
 7    1  0.2339217E-009  0.4778727E+02  0.7816164E-02  0.1312668E+00
        -11   -1    0    0    0    0  0.00000000000E+00  0.00000000000E+00  0.45593999997E+02  0.45594000000E+02  0.51100000000E-03 0.  1.
         11   -1    0    0    0    0 -0.00000000000E+00 -0.00000000000E+00 -0.45593999997E+02  0.45594000000E+02  0.51100000000E-03 0. -1.
    9900012    2    1    2    0    0  0.66102440062E+01  0.13927777082E+02  0.40570249506E+02  0.47787269070E+02  0.19999991000E+02 0.  0.
         12    1    1    2    0    0 -0.66102440062E+01 -0.13927777082E+02 -0.40570249506E+02  0.43400730930E+02  0.00000000000E+00 0. -1.
         11    1    3    3    0    0  0.33709639406E+01  0.74875569956E+01  0.60431152113E+01  0.10195398441E+02  0.51100000000E-03 0. -1.
        -11    1    3    3    0    0 -0.42211842237E+01  0.29943691504E+01  0.60945255729E+01  0.79954915471E+01  0.51100000000E-03 0.  1.
         12    1    3    3    0    0  0.74604642893E+01  0.34458509361E+01  0.28432608721E+02  0.29596379082E+02  0.00000000000E+00 0. -1.
</event>
<event>
 7    1  0.2339217E-009  0.4778726E+02  0.7816164E-02  0.1312668E+00
        -11   -1    0    0    0    0  0.00000000000E+00  0.00000000000E+00  0.45593999997E+02  0.45594000000E+02  0.51100000000E-03 0.  1.
         11   -1    0    0    0    0 -0.00000000000E+00 -0.00000000000E+00 -0.45593999997E+02  0.45594000000E+02  0.51100000000E-03 0. -1.
    9900012    2    1    2    0    0  0.20898974441E+02  0.37436953382E+02  0.67328717153E+01  0.47787260689E+02  0.19999952785E+02 0.  0.
         12    1    1    2    0    0 -0.20898974441E+02 -0.37436953382E+02 -0.67328717153E+01  0.43400739311E+02  0.00000000000E+00 0. -1.
         11    1    3    3    0    0 -0.25063337107E+01  0.11296507714E+01 -0.14689318460E+01  0.31169826056E+01  0.51100000000E-03 0. -1.
        -11    1    3    3    0    0  0.66589116620E+01  0.12873056880E+02 -0.73749079446E+00  0.14512084306E+02  0.51100000000E-03 0.  1.
         12    1    3    3    0    0  0.16746396489E+02  0.23434245731E+02  0.89392943558E+01  0.30158193778E+02  0.00000000000E+00 0. -1.
</event>
<event>
 7    1  0.2339217E-009  0.4778728E+02  0.7816164E-02  0.1312668E+00
        -11   -1    0    0    0    0  0.00000000000E+00  0.00000000000E+00  0.45593999997E+02  0.45594000000E+02  0.51100000000E-03 0.  1.
         11   -1    0    0    0    0 -0.00000000000E+00 -0.00000000000E+00 -0.45593999997E+02  0.45594000000E+02  0.51100000000E-03 0. -1.
    9900012    2    1    2    0    0 -0.13082631386E+02 -0.19547790355E+01  0.41335774302E+02  0.47787278322E+02  0.20000033179E+02 0.  0.
         12    1    1    2    0    0  0.13082631386E+02  0.19547790355E+01 -0.41335774302E+02  0.43400721678E+02  0.00000000000E+00 0. -1.
         11    1    3    3    0    0 -0.13593121351E+01  0.27838251732E+01  0.17744539017E+01  0.35701679212E+01  0.51100000000E-03 0. -1.
        -11    1    3    3    0    0  0.28552333052E+01 -0.42982032325E+01  0.99294419820E+01  0.11190206727E+02  0.51100000000E-03 0.  1.
        -12    1    3    3    0    0 -0.14578552556E+02 -0.44040097623E+00  0.29631878418E+02  0.33026903673E+02  0.00000000000E+00 0.  1.
</event>
<event>
 7    1  0.2339217E-009  0.4778725E+02  0.7816164E-02  0.1312668E+00
        -11   -1    0    0    0    0  0.00000000000E+00  0.00000000000E+00  0.45593999997E+02  0.45594000000E+02  0.51100000000E-03 0. -1.
         11   -1    0    0    0    0 -0.00000000000E+00 -0.00000000000E+00 -0.45593999997E+02  0.45594000000E+02  0.51100000000E-03 0.  1.
    9900012    2    1    2    0    0 -0.22995500990E+02 -0.10530027871E+02 -0.35269678681E+02  0.47787253613E+02  0.19999920521E+02 0.  0.
         12    1    1    2    0    0  0.22995500990E+02  0.10530027871E+02  0.35269678681E+02  0.43400746387E+02  0.00000000000E+00 0. -1.
         11    1    3    3    0    0 -0.24402670919E+01 -0.58882510304E+01 -0.55786644687E+01  0.84704132835E+01  0.51100000000E-03 0. -1.
        -11    1    3    3    0    0 -0.13944668741E+01  0.43701190286E+01 -0.48417606309E+01  0.66697169696E+01  0.51100000000E-03 0.  1.
         12    1    3    3    0    0 -0.19160767024E+02 -0.90118958696E+01 -0.24849253581E+02  0.32647123359E+02  0.00000000000E+00 0. -1.
</event>
<event>
 7    1  0.2339217E-009  0.4778727E+02  0.7816164E-02  0.1312668E+00
        -11   -1    0    0    0    0  0.00000000000E+00  0.00000000000E+00  0.45593999997E+02  0.45594000000E+02  0.51100000000E-03 0.  1.
         11   -1    0    0    0    0 -0.00000000000E+00 -0.00000000000E+00 -0.45593999997E+02  0.45594000000E+02  0.51100000000E-03 0. -1.
    9900012    2    1    2    0    0  0.18101872973E+02  0.34988071650E+02  0.18214829397E+02  0.47787274512E+02  0.20000015810E+02 0.  0.
         12    1    1    2    0    0 -0.18101872973E+02 -0.34988071650E+02 -0.18214829397E+02  0.43400725488E+02  0.00000000000E+00 0. -1.
         11    1    3    3    0    0  0.95206284512E+01  0.14788383656E+02  0.77491604703E+01  0.19219473081E+02  0.51100000000E-03 0.  1.
        -11    1    3    3    0    0  0.11824742592E+02  0.19046920131E+02  0.11180333158E+02  0.25052136709E+02  0.51100000000E-03 0. -1.
         12    1    3    3    0    0 -0.32434980703E+01  0.11527678626E+01 -0.71466423162E+00  0.35156647225E+01  0.00000000000E+00 0. -1.
</event>
<event>
 7    1  0.2339217E-009  0.4778727E+02  0.7816164E-02  0.1312668E+00
        -11   -1    0    0    0    0  0.00000000000E+00  0.00000000000E+00  0.45593999997E+02  0.45594000000E+02  0.51100000000E-03 0.  1.
         11   -1    0    0    0    0 -0.00000000000E+00 -0.00000000000E+00 -0.45593999997E+02  0.45594000000E+02  0.51100000000E-03 0. -1.
    9900012    2    1    2    0    0  0.27287024383E+02  0.41663373229E+01  0.33491537413E+02  0.47787272533E+02  0.20000006786E+02 0.  0.
         12    1    1    2    0    0 -0.27287024383E+02 -0.41663373229E+01 -0.33491537413E+02  0.43400727467E+02  0.00000000000E+00 0. -1.
         11    1    3    3    0    0  0.25492162379E+01 -0.14294606036E+00  0.65656951983E+01  0.70446639878E+01  0.51100000000E-03 0. -1.
        -11    1    3    3    0    0  0.21664801471E+02  0.10001572546E+02  0.23181597399E+02  0.33268326294E+02  0.51100000000E-03 0.  1.
         12    1    3    3    0    0  0.30730066749E+01 -0.56922891624E+01  0.37442448156E+01  0.74742822512E+01  0.00000000000E+00 0. -1.
</event>
<event>
 7    1  0.2339217E-009  0.4778727E+02  0.7816164E-02  0.1312668E+00
        -11   -1    0    0    0    0  0.00000000000E+00  0.00000000000E+00  0.45593999997E+02  0.45594000000E+02  0.51100000000E-03 0.  1.
         11   -1    0    0    0    0 -0.00000000000E+00 -0.00000000000E+00 -0.45593999997E+02  0.45594000000E+02  0.51100000000E-03 0. -1.
    9900012    2    1    2    0    0 -0.29995619882E+02  0.16828770454E+02  0.26470332467E+02  0.47787271573E+02  0.20000002408E+02 0.  0.
         12    1    1    2    0    0  0.29995619882E+02 -0.16828770454E+02 -0.26470332467E+02  0.43400728427E+02  0.00000000000E+00 0. -1.
         11    1    3    3    0    0 -0.18316416550E+02  0.76702460465E+01  0.69707628958E+01  0.21045553574E+02  0.51100000000E-03 0. -1.
        -11    1    3    3    0    0 -0.11441354763E+01 -0.10232058516E+01 -0.78131168461E+00  0.17223369044E+01  0.51100000000E-03 0.  1.
        -12    1    3    3    0    0 -0.10535067856E+02  0.10181730259E+02  0.20280881256E+02  0.25019381094E+02  0.00000000000E+00 0.  1.
</event>
<event>
 7    1  0.2339217E-009  0.4778730E+02  0.7816164E-02  0.1312668E+00
        -11   -1    0    0    0    0  0.00000000000E+00  0.00000000000E+00  0.45593999997E+02  0.45594000000E+02  0.51100000000E-03 0.  1.
         11   -1    0    0    0    0 -0.00000000000E+00 -0.00000000000E+00 -0.45593999997E+02  0.45594000000E+02  0.51100000000E-03 0. -1.
    9900012    2    1    2    0    0  0.10372902907E+02  0.14259027101E+02  0.39657333516E+02  0.47787296432E+02  0.20000115753E+02 0.  0.
         12    1    1    2    0    0 -0.10372902907E+02 -0.14259027101E+02 -0.39657333516E+02  0.43400703568E+02  0.00000000000E+00 0. -1.
         11    1    3    3    0    0  0.41169892535E+01  0.16649362969E+02  0.26894043865E+02  0.31897342890E+02  0.51100000000E-03 0. -1.
        -11    1    3    3    0    0  0.45864132051E+01  0.17287932480E+01  0.54306622631E+01  0.73154634207E+01  0.51100000000E-03 0.  1.
         12    1    3    3    0    0  0.16695004489E+01 -0.41191291167E+01  0.73326273878E+01  0.85744901211E+01  0.00000000000E+00 0. -1.
</event>
<event>
 7    1  0.2339217E-009  0.4778727E+02  0.7816164E-02  0.1312668E+00
        -11   -1    0    0    0    0  0.00000000000E+00  0.00000000000E+00  0.45593999997E+02  0.45594000000E+02  0.51100000000E-03 0.  1.
         11   -1    0    0    0    0 -0.00000000000E+00 -0.00000000000E+00 -0.45593999997E+02  0.45594000000E+02  0.51100000000E-03 0. -1.
    9900012    2    1    2    0    0  0.15710951497E+02  0.40453592143E+02 -0.54417598897E+00  0.47787271415E+02  0.20000001691E+02 0.  0.
         12    1    1    2    0    0 -0.15710951497E+02 -0.40453592143E+02  0.54417598897E+00  0.43400728585E+02  0.00000000000E+00 0. -1.
         11    1    3    3    0    0  0.49221338145E+01  0.28138956994E+02  0.47723585880E+00  0.28570195244E+02  0.51100000000E-03 0. -1.
        -11    1    3    3    0    0  0.81686285921E+01  0.11122077294E+02  0.31444766640E+01  0.14153262174E+02  0.51100000000E-03 0.  1.
         12    1    3    3    0    0  0.26201890900E+01  0.11925578549E+01 -0.41658885118E+01  0.50638139971E+01  0.00000000000E+00 0. -1.
</event>
<event>
 7    1  0.2339217E-009  0.4778727E+02  0.7816164E-02  0.1312668E+00
        -11   -1    0    0    0    0  0.00000000000E+00  0.00000000000E+00  0.45593999997E+02  0.45594000000E+02  0.51100000000E-03 0.  1.
         11   -1    0    0    0    0 -0.00000000000E+00 -0.00000000000E+00 -0.45593999997E+02  0.45594000000E+02  0.51100000000E-03 0. -1.
    9900012    2    1    2    0    0  0.12599163403E+02 -0.24970249632E+02  0.33186908492E+02  0.47787272121E+02  0.20000004910E+02 0.  0.
         12    1    1    2    0    0 -0.12599163403E+02  0.24970249632E+02 -0.33186908492E+02  0.43400727879E+02  0.00000000000E+00 0. -1.
         11    1    3    3    0    0  0.66820521835E+01 -0.96430767973E+01  0.99018720571E+01  0.15352062467E+02  0.51100000000E-03 0. -1.
        -11    1    3    3    0    0 -0.35522470351E+01 -0.11204002730E+02  0.89804078670E+01  0.14791749791E+02  0.51100000000E-03 0.  1.
         12    1    3    3    0    0  0.94693582546E+01 -0.41231701049E+01  0.14304628568E+02  0.17643459863E+02  0.00000000000E+00 0. -1.
</event>
<event>
 7    1  0.2339217E-009  0.4778727E+02  0.7816164E-02  0.1312668E+00
        -11   -1    0    0    0    0  0.00000000000E+00  0.00000000000E+00  0.45593999997E+02  0.45594000000E+02  0.51100000000E-03 0. -1.
         11   -1    0    0    0    0 -0.00000000000E+00 -0.00000000000E+00 -0.45593999997E+02  0.45594000000E+02  0.51100000000E-03 0.  1.
    9900012    2    1    2    0    0  0.31734853675E+01  0.34285278847E+02 -0.26421049528E+02  0.47787271744E+02  0.20000003190E+02 0.  0.
         12    1    1    2    0    0 -0.31734853675E+01 -0.34285278847E+02  0.26421049528E+02  0.43400728256E+02  0.00000000000E+00 0. -1.
         11    1    3    3    0    0  0.24484507027E+01  0.21203859275E+02 -0.17536535647E+02  0.27624783107E+02  0.51100000000E-03 0. -1.
        -11    1    3    3    0    0  0.38032037504E+01  0.11639143523E+02 -0.10742002702E+02  0.16288788875E+02  0.51100000000E-03 0.  1.
         12    1    3    3    0    0 -0.30781690856E+01  0.14422760496E+01  0.18574888209E+01  0.38736997615E+01  0.00000000000E+00 0. -1.
</event>
<event>
 7    1  0.2339217E-009  0.4778727E+02  0.7816164E-02  0.1312668E+00
        -11   -1    0    0    0    0  0.00000000000E+00  0.00000000000E+00  0.45593999997E+02  0.45594000000E+02  0.51100000000E-03 0.  1.
         11   -1    0    0    0    0 -0.00000000000E+00 -0.00000000000E+00 -0.45593999997E+02  0.45594000000E+02  0.51100000000E-03 0. -1.
    9900012    2    1    2    0    0  0.35815737131E+02  0.16653405661E+02 -0.17986663504E+02  0.47787274081E+02  0.20000013844E+02 0.  0.
         12    1    1    2    0    0 -0.35815737131E+02 -0.16653405661E+02  0.17986663504E+02  0.43400725919E+02  0.00000000000E+00 0. -1.
         11    1    3    3    0    0  0.44938056394E+01 -0.44509263070E+00 -0.41599622961E+01  0.61398439020E+01  0.51100000000E-03 0. -1.
        -11    1    3    3    0    0  0.83854512411E+01 -0.70246350649E+00  0.19018654049E+01  0.86270701733E+01  0.51100000000E-03 0.  1.
         12    1    3    3    0    0  0.22936480250E+02  0.17800961798E+02 -0.15728566613E+02  0.33020360005E+02  0.00000000000E+00 0. -1.
</event>
<event>
 7    1  0.2339217E-009  0.4778727E+02  0.7816164E-02  0.1312668E+00
        -11   -1    0    0    0    0  0.00000000000E+00  0.00000000000E+00  0.45593999997E+02  0.45594000000E+02  0.51100000000E-03 0.  1.
         11   -1    0    0    0    0 -0.00000000000E+00 -0.00000000000E+00 -0.45593999997E+02  0.45594000000E+02  0.51100000000E-03 0. -1.
    9900012    2    1    2    0    0  0.13651206613E+02  0.51892991452E+01  0.40869785583E+02  0.47787266812E+02  0.19999980703E+02 0.  0.
         12    1    1    2    0    0 -0.13651206613E+02 -0.51892991452E+01 -0.40869785583E+02  0.43400733188E+02  0.00000000000E+00 0. -1.
         11    1    3    3    0    0  0.31846151724E+01  0.75203725294E+01  0.48634029369E+01  0.95052861695E+01  0.51100000000E-03 0. -1.
        -11    1    3    3    0    0  0.36974518544E+01  0.26907785480E+01  0.12824958459E+02  0.13615836337E+02  0.51100000000E-03 0.  1.
        -12    1    3    3    0    0  0.67691395861E+01 -0.50218519322E+01  0.23181424187E+02  0.24666144306E+02  0.00000000000E+00 0.  1.
</event>
<event>
 7    1  0.2339217E-009  0.4778727E+02  0.7816164E-02  0.1312668E+00
        -11   -1    0    0    0    0  0.00000000000E+00  0.00000000000E+00  0.45593999997E+02  0.45594000000E+02  0.51100000000E-03 0.  1.
         11   -1    0    0    0    0 -0.00000000000E+00 -0.00000000000E+00 -0.45593999997E+02  0.45594000000E+02  0.51100000000E-03 0. -1.
    9900012    2    1    2    0    0  0.25691008244E+02  0.18628221835E+01  0.34930288593E+02  0.47787273367E+02  0.20000010591E+02 0.  0.
         12    1    1    2    0    0 -0.25691008244E+02 -0.18628221835E+01 -0.34930288593E+02  0.43400726633E+02  0.00000000000E+00 0. -1.
         11    1    3    3    0    0  0.22885813566E+02 -0.52728168880E+01  0.20795859044E+02  0.31369265438E+02  0.51100000000E-03 0.  1.
        -11    1    3    3    0    0 -0.34068789387E-01  0.18047123111E+01  0.12723793949E+01  0.22084149958E+01  0.51100000000E-03 0. -1.
        -12    1    3    3    0    0  0.28392634671E+01  0.53309267604E+01  0.12862050154E+02  0.14209592933E+02  0.00000000000E+00 0.  1.
</event>
<event>
 7    1  0.2339217E-009  0.4778727E+02  0.7816164E-02  0.1312668E+00
        -11   -1    0    0    0    0  0.00000000000E+00  0.00000000000E+00  0.45593999997E+02  0.45594000000E+02  0.51100000000E-03 0.  1.
         11   -1    0    0    0    0 -0.00000000000E+00 -0.00000000000E+00 -0.45593999997E+02  0.45594000000E+02  0.51100000000E-03 0. -1.
    9900012    2    1    2    0    0  0.41157739066E+02  0.13692103532E+02 -0.14799573028E+01  0.47787268926E+02  0.19999990340E+02 0.  0.
         12    1    1    2    0    0 -0.41157739066E+02 -0.13692103532E+02  0.14799573028E+01  0.43400731074E+02  0.00000000000E+00 0. -1.
         11    1    3    3    0    0  0.27279719697E+01  0.13208743912E+01 -0.48088485803E+01  0.56843262709E+01  0.51100000000E-03 0. -1.
        -11    1    3    3    0    0  0.25683250836E+02  0.97294508990E+01 -0.30015301961E+01  0.27627898438E+02  0.51100000000E-03 0.  1.
         12    1    3    3    0    0  0.12746516261E+02  0.26417782415E+01  0.63304214737E+01  0.14475044217E+02  0.00000000000E+00 0. -1.
</event>
<event>
 7    1  0.2339217E-009  0.4778727E+02  0.7816164E-02  0.1312668E+00
        -11   -1    0    0    0    0  0.00000000000E+00  0.00000000000E+00  0.45593999997E+02  0.45594000000E+02  0.51100000000E-03 0. -1.
         11   -1    0    0    0    0 -0.00000000000E+00 -0.00000000000E+00 -0.45593999997E+02  0.45594000000E+02  0.51100000000E-03 0.  1.
    9900012    2    1    2    0    0 -0.11290391252E+02  0.27376270780E+02 -0.31728383045E+02  0.47787269279E+02  0.19999991951E+02 0.  0.
         12    1    1    2    0    0  0.11290391252E+02 -0.27376270780E+02  0.31728383045E+02  0.43400730721E+02  0.00000000000E+00 0. -1.
         11    1    3    3    0    0 -0.23090317836E+01  0.59510715213E+01 -0.60006418527E+01  0.87609692919E+01  0.51100000000E-03 0. -1.
        -11    1    3    3    0    0 -0.96195610503E+01  0.22757908557E+02 -0.27332684026E+02  0.36844727886E+02  0.51100000000E-03 0.  1.
         12    1    3    3    0    0  0.63820158217E+00 -0.13327092982E+01  0.16049428334E+01  0.21815721009E+01  0.00000000000E+00 0. -1.
</event>
<event>
 7    1  0.2339217E-009  0.4778727E+02  0.7816164E-02  0.1312668E+00
        -11   -1    0    0    0    0  0.00000000000E+00  0.00000000000E+00  0.45593999997E+02  0.45594000000E+02  0.51100000000E-03 0. -1.
         11   -1    0    0    0    0 -0.00000000000E+00 -0.00000000000E+00 -0.45593999997E+02  0.45594000000E+02  0.51100000000E-03 0.  1.
    9900012    2    1    2    0    0  0.39394591190E+02  0.20693147371E+01 -0.18094406397E+02  0.47787269345E+02  0.19999992252E+02 0.  0.
         12    1    1    2    0    0 -0.39394591190E+02 -0.20693147371E+01  0.18094406397E+02  0.43400730655E+02  0.00000000000E+00 0. -1.
         11    1    3    3    0    0  0.15446090489E+02 -0.26923163708E+01 -0.78754957693E+00  0.15698742416E+02  0.51100000000E-03 0. -1.
        -11    1    3    3    0    0  0.17499136548E+02  0.41825128395E+01 -0.58336271763E+01  0.18914132279E+02  0.51100000000E-03 0.  1.
         12    1    3    3    0    0  0.64493641535E+01  0.57911826837E+00 -0.11473229644E+02  0.13174394651E+02  0.00000000000E+00 0. -1.
</event>
<event>
 7    1  0.2339217E-009  0.4778727E+02  0.7816164E-02  0.1312668E+00
        -11   -1    0    0    0    0  0.00000000000E+00  0.00000000000E+00  0.45593999997E+02  0.45594000000E+02  0.51100000000E-03 0.  1.
         11   -1    0    0    0    0 -0.00000000000E+00 -0.00000000000E+00 -0.45593999997E+02  0.45594000000E+02  0.51100000000E-03 0. -1.
    9900012    2    1    2    0    0 -0.18906511216E+02 -0.34858101448E+02  0.17637455380E+02  0.47787271490E+02  0.20000002033E+02 0.  0.
         12    1    1    2    0    0  0.18906511216E+02  0.34858101448E+02 -0.17637455380E+02  0.43400728510E+02  0.00000000000E+00 0. -1.
         11    1    3    3    0    0 -0.12179873808E+02 -0.10012769812E+02  0.10251582480E+02  0.18806909073E+02  0.51100000000E-03 0. -1.
        -11    1    3    3    0    0 -0.33362124640E+01 -0.11377529844E+02  0.91555341621E+01  0.14980063585E+02  0.51100000000E-03 0.  1.
         12    1    3    3    0    0 -0.33904249438E+01 -0.13467801792E+02 -0.17696612622E+01  0.14000298832E+02  0.00000000000E+00 0. -1.
</event>
<event>
 7    1  0.2339217E-009  0.4778727E+02  0.7816164E-02  0.1312668E+00
        -11   -1    0    0    0    0  0.00000000000E+00  0.00000000000E+00  0.45593999997E+02  0.45594000000E+02  0.51100000000E-03 0.  1.
         11   -1    0    0    0    0 -0.00000000000E+00 -0.00000000000E+00 -0.45593999997E+02  0.45594000000E+02  0.51100000000E-03 0. -1.
    9900012    2    1    2    0    0  0.17158344805E+02  0.38395477694E+02  0.10723895951E+02  0.47787269036E+02  0.19999990843E+02 0.  0.
         12    1    1    2    0    0 -0.17158344805E+02 -0.38395477694E+02 -0.10723895951E+02  0.43400730964E+02  0.00000000000E+00 0. -1.
         11    1    3    3    0    0  0.30082457380E+01  0.30249349819E+01  0.41220758888E+01  0.59322242000E+01  0.51100000000E-03 0. -1.
        -11    1    3    3    0    0  0.27386349083E+01  0.11477350025E+01  0.49125858747E+01  0.57402889330E+01  0.51100000000E-03 0.  1.
        -12    1    3    3    0    0  0.11411464159E+02  0.34222807710E+02  0.16892341874E+01  0.36114755903E+02  0.00000000000E+00 0.  1.
</event>
<event>
 7    1  0.2339217E-009  0.4778727E+02  0.7816164E-02  0.1312668E+00
        -11   -1    0    0    0    0  0.00000000000E+00  0.00000000000E+00  0.45593999997E+02  0.45594000000E+02  0.51100000000E-03 0.  1.
         11   -1    0    0    0    0 -0.00000000000E+00 -0.00000000000E+00 -0.45593999997E+02  0.45594000000E+02  0.51100000000E-03 0. -1.
    9900012    2    1    2    0    0  0.11193271509E+02 -0.40461559705E+01  0.41736821731E+02  0.47787274275E+02  0.20000014731E+02 0.  0.
         12    1    1    2    0    0 -0.11193271509E+02  0.40461559705E+01 -0.41736821731E+02  0.43400725725E+02  0.00000000000E+00 0. -1.
         11    1    3    3    0    0  0.75053851561E+01 -0.98911907283E+00  0.77165687225E+01  0.10809930434E+02  0.51100000000E-03 0. -1.
        -11    1    3    3    0    0  0.22706507655E+01  0.49209877239E+01  0.20596434604E+02  0.21297537269E+02  0.51100000000E-03 0.  1.
        -12    1    3    3    0    0  0.14172355876E+01 -0.79780246216E+01  0.13423818405E+02  0.15679806572E+02  0.00000000000E+00 0.  1.
</event>
<event>
 7    1  0.2339217E-009  0.4778724E+02  0.7816164E-02  0.1312668E+00
        -11   -1    0    0    0    0  0.00000000000E+00  0.00000000000E+00  0.45593999997E+02  0.45594000000E+02  0.51100000000E-03 0. -1.
         11   -1    0    0    0    0 -0.00000000000E+00 -0.00000000000E+00 -0.45593999997E+02  0.45594000000E+02  0.51100000000E-03 0.  1.
    9900012    2    1    2    0    0  0.88573801934E+01  0.31878183187E+02 -0.28088326593E+02  0.47787241505E+02  0.19999865315E+02 0.  0.
         12    1    1    2    0    0 -0.88573801934E+01 -0.31878183187E+02  0.28088326593E+02  0.43400758495E+02  0.00000000000E+00 0. -1.
         11    1    3    3    0    0 -0.10972581536E+00  0.19701166109E+01 -0.36134232883E+01  0.41170653792E+01  0.51100000000E-03 0. -1.
        -11    1    3    3    0    0  0.73490410555E+01  0.10497159732E+02 -0.55945690941E+00  0.12826213751E+02  0.51100000000E-03 0.  1.
         12    1    3    3    0    0  0.16180649533E+01  0.19410906844E+02 -0.23915446395E+02  0.30843962375E+02  0.00000000000E+00 0. -1.
</event>
<event>
 7    1  0.2339217E-009  0.4778728E+02  0.7816164E-02  0.1312668E+00
        -11   -1    0    0    0    0  0.00000000000E+00  0.00000000000E+00  0.45593999997E+02  0.45594000000E+02  0.51100000000E-03 0.  1.
         11   -1    0    0    0    0 -0.00000000000E+00 -0.00000000000E+00 -0.45593999997E+02  0.45594000000E+02  0.51100000000E-03 0. -1.
    9900012    2    1    2    0    0  0.35898263805E+02 -0.23260058007E+02  0.73421208933E+01  0.47787281320E+02  0.20000046851E+02 0.  0.
         12    1    1    2    0    0 -0.35898263805E+02  0.23260058007E+02 -0.73421208933E+01  0.43400718680E+02  0.00000000000E+00 0. -1.
         11    1    3    3    0    0  0.40943780787E+01 -0.21308826617E+00 -0.10777176862E+01  0.42391997043E+01  0.51100000000E-03 0. -1.
        -11    1    3    3    0    0  0.31043735124E+02 -0.14711060529E+02  0.65698789126E+01  0.34975592941E+02  0.51100000000E-03 0.  1.
        -12    1    3    3    0    0  0.76015060216E+00 -0.83359092112E+01  0.18499596670E+01  0.85724886751E+01  0.00000000000E+00 0.  1.
</event>
<event>
 7    1  0.2669945E-009  0.4778728E+02  0.7816164E-02  0.1312668E+00
        -11   -1    0    0    0    0  0.00000000000E+00  0.00000000000E+00  0.45593999997E+02  0.45594000000E+02  0.51100000000E-03 0. -1.
         11   -1    0    0    0    0 -0.00000000000E+00 -0.00000000000E+00 -0.45593999997E+02  0.45594000000E+02  0.51100000000E-03 0.  1.
    9900012    2    1    2    0    0  0.30877147372E+02 -0.15433306381E+02 -0.26306609819E+02  0.47787275399E+02  0.20000019856E+02 0.  0.
         12    1    1    2    0    0 -0.30877147372E+02  0.15433306381E+02  0.26306609819E+02  0.43400724601E+02  0.00000000000E+00 0. -1.
         11    1    3    3    0    0  0.87817446609E+01 -0.54254872723E+01 -0.32356252290E+00  0.10327615620E+02  0.51100000000E-03 0. -1.
        -11    1    3    3    0    0 -0.21127431060E+00  0.15066505870E+01 -0.32685319911E+01  0.36052648257E+01  0.51100000000E-03 0.  1.
        -12    1    3    3    0    0  0.22306677022E+02 -0.11514469695E+02 -0.22714515305E+02  0.33854394954E+02  0.00000000000E+00 0.  1.
</event>
<event>
 7    1  0.2339217E-009  0.4778727E+02  0.7816164E-02  0.1312668E+00
        -11   -1    0    0    0    0  0.00000000000E+00  0.00000000000E+00  0.45593999997E+02  0.45594000000E+02  0.51100000000E-03 0.  1.
         11   -1    0    0    0    0 -0.00000000000E+00 -0.00000000000E+00 -0.45593999997E+02  0.45594000000E+02  0.51100000000E-03 0. -1.
    9900012    2    1    2    0    0  0.22445377598E+02 -0.29629383615E+02  0.22403754025E+02  0.47787267940E+02  0.19999985845E+02 0.  0.
         12    1    1    2    0    0 -0.22445377598E+02  0.29629383615E+02 -0.22403754025E+02  0.43400732060E+02  0.00000000000E+00 0. -1.
         11    1    3    3    0    0  0.18433513546E+01 -0.63110501910E+01  0.40999312420E+01  0.77483375753E+01  0.51100000000E-03 0. -1.
        -11    1    3    3    0    0  0.11762226635E+02 -0.14849987651E+01  0.81613071557E+01  0.14393127926E+02  0.51100000000E-03 0.  1.
        -12    1    3    3    0    0  0.88397996085E+01 -0.21833334659E+02  0.10142515627E+02  0.25645802438E+02  0.00000000000E+00 0.  1.
</event>
<event>
 7    1  0.2339217E-009  0.4778728E+02  0.7816164E-02  0.1312668E+00
        -11   -1    0    0    0    0  0.00000000000E+00  0.00000000000E+00  0.45593999997E+02  0.45594000000E+02  0.51100000000E-03 0.  1.
         11   -1    0    0    0    0 -0.00000000000E+00 -0.00000000000E+00 -0.45593999997E+02  0.45594000000E+02  0.51100000000E-03 0. -1.
    9900012    2    1    2    0    0 -0.22064066299E+01 -0.94361534570E+01  0.42305006633E+02  0.47787276406E+02  0.20000024446E+02 0.  0.
         12    1    1    2    0    0  0.22064066299E+01  0.94361534570E+01 -0.42305006633E+02  0.43400723594E+02  0.00000000000E+00 0. -1.
         11    1    3    3    0    0 -0.29398140315E+01 -0.61592756856E+01  0.36291790906E+01  0.77298204794E+01  0.51100000000E-03 0. -1.
        -11    1    3    3    0    0  0.27915481097E+01 -0.61708477646E+00  0.27247071209E+01  0.39493750931E+01  0.51100000000E-03 0.  1.
        -12    1    3    3    0    0 -0.20581407080E+01 -0.26597929949E+01  0.35951120421E+02  0.36108080834E+02  0.00000000000E+00 0.  1.
</event>
<event>
 7    1  0.2339217E-009  0.4778727E+02  0.7816164E-02  0.1312668E+00
        -11   -1    0    0    0    0  0.00000000000E+00  0.00000000000E+00  0.45593999997E+02  0.45594000000E+02  0.51100000000E-03 0.  1.
         11   -1    0    0    0    0 -0.00000000000E+00 -0.00000000000E+00 -0.45593999997E+02  0.45594000000E+02  0.51100000000E-03 0. -1.
    9900012    2    1    2    0    0  0.12007483454E+02 -0.71675257496E+01  0.41086130621E+02  0.47787271738E+02  0.20000003161E+02 0.  0.
         12    1    1    2    0    0 -0.12007483454E+02  0.71675257496E+01 -0.41086130621E+02  0.43400728262E+02  0.00000000000E+00 0. -1.
         11    1    3    3    0    0  0.78797753087E+01 -0.39791300124E+01  0.62746853659E+01  0.10830328309E+02  0.51100000000E-03 0. -1.
        -11    1    3    3    0    0  0.74999905950E+01 -0.29530719820E+01  0.16831767373E+02  0.18662231545E+02  0.51100000000E-03 0.  1.
         12    1    3    3    0    0 -0.33722824497E+01 -0.23532375513E+00  0.17979677882E+02  0.18294711884E+02  0.00000000000E+00 0. -1.
</event>
<event>
 7    1  0.2339217E-009  0.4778727E+02  0.7816164E-02  0.1312668E+00
        -11   -1    0    0    0    0  0.00000000000E+00  0.00000000000E+00  0.45593999997E+02  0.45594000000E+02  0.51100000000E-03 0.  1.
         11   -1    0    0    0    0 -0.00000000000E+00 -0.00000000000E+00 -0.45593999997E+02  0.45594000000E+02  0.51100000000E-03 0. -1.
    9900012    2    1    2    0    0 -0.30144839323E+02  0.26028642097E+02  0.17245932361E+02  0.47787265787E+02  0.19999976028E+02 0.  0.
         12    1    1    2    0    0  0.30144839323E+02 -0.26028642097E+02 -0.17245932361E+02  0.43400734213E+02  0.00000000000E+00 0. -1.
         11    1    3    3    0    0 -0.43508385870E+01  0.75753606975E+01  0.45746290404E+01  0.98611924850E+01  0.51100000000E-03 0. -1.
        -11    1    3    3    0    0 -0.16191321889E+02  0.17754525569E+02  0.14586215312E+02  0.28109424755E+02  0.51100000000E-03 0.  1.
         12    1    3    3    0    0 -0.96026788474E+01  0.69875583140E+00 -0.19149119913E+01  0.98166485469E+01  0.00000000000E+00 0. -1.
</event>
<event>
 7    1  0.2339217E-009  0.4778727E+02  0.7816164E-02  0.1312668E+00
        -11   -1    0    0    0    0  0.00000000000E+00  0.00000000000E+00  0.45593999997E+02  0.45594000000E+02  0.51100000000E-03 0. -1.
         11   -1    0    0    0    0 -0.00000000000E+00 -0.00000000000E+00 -0.45593999997E+02  0.45594000000E+02  0.51100000000E-03 0.  1.
    9900012    2    1    2    0    0  0.38587808302E+02  0.10518258071E+02 -0.16851422031E+02  0.47787272738E+02  0.20000007721E+02 0.  0.
         12    1    1    2    0    0 -0.38587808302E+02 -0.10518258071E+02  0.16851422031E+02  0.43400727262E+02  0.00000000000E+00 0. -1.
         11    1    3    3    0    0  0.57104431665E+01 -0.21892084647E+01 -0.15019235060E+01  0.62974256120E+01  0.51100000000E-03 0. -1.
        -11    1    3    3    0    0  0.25144473846E+02  0.77672638708E+01 -0.35697704862E+01  0.26557827746E+02  0.51100000000E-03 0.  1.
         12    1    3    3    0    0  0.77328912897E+01  0.49402026652E+01 -0.11779728039E+02  0.14932019379E+02  0.00000000000E+00 0. -1.
</event>
<event>
 7    1  0.2339217E-009  0.4778727E+02  0.7816164E-02  0.1312668E+00
        -11   -1    0    0    0    0  0.00000000000E+00  0.00000000000E+00  0.45593999997E+02  0.45594000000E+02  0.51100000000E-03 0. -1.
         11   -1    0    0    0    0 -0.00000000000E+00 -0.00000000000E+00 -0.45593999997E+02  0.45594000000E+02  0.51100000000E-03 0.  1.
    9900012    2    1    2    0    0  0.39141030491E+02  0.18276872193E+02 -0.41903305008E+01  0.47787271956E+02  0.20000004155E+02 0.  0.
         12    1    1    2    0    0 -0.39141030491E+02 -0.18276872193E+02  0.41903305008E+01  0.43400728044E+02  0.00000000000E+00 0. -1.
         11    1    3    3    0    0  0.10082048576E+02  0.12373851494E+02  0.48993666629E+01  0.16696218082E+02  0.51100000000E-03 0. -1.
        -11    1    3    3    0    0  0.12193013467E+02  0.16331972095E+01 -0.30486412893E+01  0.12674033474E+02  0.51100000000E-03 0.  1.
         12    1    3    3    0    0  0.16865968447E+02  0.42698234897E+01 -0.60410558743E+01  0.18417020399E+02  0.00000000000E+00 0. -1.
</event>
<event>
 7    1  0.2339217E-009  0.4778727E+02  0.7816164E-02  0.1312668E+00
        -11   -1    0    0    0    0  0.00000000000E+00  0.00000000000E+00  0.45593999997E+02  0.45594000000E+02  0.51100000000E-03 0. -1.
         11   -1    0    0    0    0 -0.00000000000E+00 -0.00000000000E+00 -0.45593999997E+02  0.45594000000E+02  0.51100000000E-03 0.  1.
    9900012    2    1    2    0    0  0.66767399340E+01 -0.26295700162E+02 -0.33875957589E+02  0.47787271830E+02  0.20000003581E+02 0.  0.
         12    1    1    2    0    0 -0.66767399340E+01  0.26295700162E+02  0.33875957589E+02  0.43400728170E+02  0.00000000000E+00 0. -1.
         11    1    3    3    0    0  0.24536887324E+01 -0.80626332314E+01 -0.46195727775E+01  0.96107801934E+01  0.51100000000E-03 0. -1.
        -11    1    3    3    0    0 -0.25034448909E+01 -0.17173758129E+02 -0.17879631636E+02  0.24917592827E+02  0.51100000000E-03 0.  1.
         12    1    3    3    0    0  0.67264960925E+01 -0.10593088009E+01 -0.11376753175E+02  0.13258898809E+02  0.00000000000E+00 0. -1.
</event>
<event>
 7    1  0.2339217E-009  0.4778727E+02  0.7816164E-02  0.1312668E+00
        -11   -1    0    0    0    0  0.00000000000E+00  0.00000000000E+00  0.45593999997E+02  0.45594000000E+02  0.51100000000E-03 0.  1.
         11   -1    0    0    0    0 -0.00000000000E+00 -0.00000000000E+00 -0.45593999997E+02  0.45594000000E+02  0.51100000000E-03 0. -1.
    9900012    2    1    2    0    0  0.24193733602E+02 -0.25109452718E+02 -0.25841872320E+02  0.47787265831E+02  0.19999976231E+02 0.  0.
         12    1    1    2    0    0 -0.24193733602E+02  0.25109452718E+02  0.25841872320E+02  0.43400734169E+02  0.00000000000E+00 0. -1.
         11    1    3    3    0    0  0.16116248629E+01  0.23042415203E+00  0.14130868705E+01  0.21557469131E+01  0.51100000000E-03 0. -1.
        -11    1    3    3    0    0  0.12740545800E+02 -0.94222682935E+01 -0.51357383412E+01  0.16657624550E+02  0.51100000000E-03 0.  1.
         12    1    3    3    0    0  0.98415629388E+01 -0.15917608577E+02 -0.22119220849E+02  0.28973894368E+02  0.00000000000E+00 0. -1.
</event>
<event>
 7    1  0.2339217E-009  0.4778727E+02  0.7816164E-02  0.1312668E+00
        -11   -1    0    0    0    0  0.00000000000E+00  0.00000000000E+00  0.45593999997E+02  0.45594000000E+02  0.51100000000E-03 0. -1.
         11   -1    0    0    0    0 -0.00000000000E+00 -0.00000000000E+00 -0.45593999997E+02  0.45594000000E+02  0.51100000000E-03 0.  1.
    9900012    2    1    2    0    0 -0.96234418219E+01 -0.41956760885E+02  0.55356103573E+01  0.47787269609E+02  0.19999993455E+02 0.  0.
         12    1    1    2    0    0  0.96234418219E+01  0.41956760885E+02 -0.55356103573E+01  0.43400730391E+02  0.00000000000E+00 0. -1.
         11    1    3    3    0    0  0.17843332954E+00  0.96323693673E+00  0.11473183158E+01  0.15086429094E+01  0.51100000000E-03 0.  1.
        -11    1    3    3    0    0  0.29352539121E+01 -0.34575116106E+01 -0.31100116094E+00  0.45460778754E+01  0.51100000000E-03 0. -1.
        -12    1    3    3    0    0 -0.12737129064E+02 -0.39462486211E+02  0.46992932025E+01  0.41732548824E+02  0.00000000000E+00 0.  1.
</event>
<event>
 7    1  0.2339217E-009  0.4778726E+02  0.7816164E-02  0.1312668E+00
        -11   -1    0    0    0    0  0.00000000000E+00  0.00000000000E+00  0.45593999997E+02  0.45594000000E+02  0.51100000000E-03 0.  1.
         11   -1    0    0    0    0 -0.00000000000E+00 -0.00000000000E+00 -0.45593999997E+02  0.45594000000E+02  0.51100000000E-03 0. -1.
    9900012    2    1    2    0    0 -0.11193386259E+02  0.10168057423E+02  0.40680991082E+02  0.47787258957E+02  0.19999944888E+02 0.  0.
         12    1    1    2    0    0  0.11193386259E+02 -0.10168057423E+02 -0.40680991082E+02  0.43400741043E+02  0.00000000000E+00 0. -1.
         11    1    3    3    0    0  0.69045437317E+00 -0.29365807190E+01  0.48489517796E+01  0.57107413864E+01  0.51100000000E-03 0.  1.
        -11    1    3    3    0    0 -0.12585827164E+01  0.30256607465E+01  0.20921591085E+02  0.21176676491E+02  0.51100000000E-03 0. -1.
         12    1    3    3    0    0 -0.10625257916E+02  0.10078977395E+02  0.14910448217E+02  0.20899841079E+02  0.00000000000E+00 0. -1.
</event>
<event>
 7    1  0.2339217E-009  0.4778728E+02  0.7816164E-02  0.1312668E+00
        -11   -1    0    0    0    0  0.00000000000E+00  0.00000000000E+00  0.45593999997E+02  0.45594000000E+02  0.51100000000E-03 0. -1.
         11   -1    0    0    0    0 -0.00000000000E+00 -0.00000000000E+00 -0.45593999997E+02  0.45594000000E+02  0.51100000000E-03 0.  1.
    9900012    2    1    2    0    0  0.92270546608E+01  0.88711319606E+00 -0.42399261676E+02  0.47787275373E+02  0.20000019734E+02 0.  0.
         12    1    1    2    0    0 -0.92270546608E+01 -0.88711319606E+00  0.42399261676E+02  0.43400724627E+02  0.00000000000E+00 0. -1.
         11    1    3    3    0    0  0.70162693654E+01  0.15763123873E+01 -0.13813882291E+02  0.15573571869E+02  0.51100000000E-03 0. -1.
        -11    1    3    3    0    0  0.84115173879E+01  0.74030558260E+00 -0.15046129918E+02  0.17253628688E+02  0.51100000000E-03 0.  1.
         12    1    3    3    0    0 -0.62007320924E+01 -0.14295047738E+01 -0.13539249467E+02  0.14960074816E+02  0.00000000000E+00 0. -1.
</event>
<event>
 7    1  0.2339217E-009  0.4778726E+02  0.7816164E-02  0.1312668E+00
        -11   -1    0    0    0    0  0.00000000000E+00  0.00000000000E+00  0.45593999997E+02  0.45594000000E+02  0.51100000000E-03 0. -1.
         11   -1    0    0    0    0 -0.00000000000E+00 -0.00000000000E+00 -0.45593999997E+02  0.45594000000E+02  0.51100000000E-03 0.  1.
    9900012    2    1    2    0    0  0.89616546508E+01  0.40824505963E+02 -0.11690699433E+02  0.47787262743E+02  0.19999962153E+02 0.  0.
         12    1    1    2    0    0 -0.89616546508E+01 -0.40824505963E+02  0.11690699433E+02  0.43400737257E+02  0.00000000000E+00 0. -1.
         11    1    3    3    0    0 -0.41945125214E+01  0.74349802446E+01 -0.51965133030E+01  0.99938289609E+01  0.51100000000E-03 0. -1.
        -11    1    3    3    0    0  0.38261138884E+01  0.63255150313E+01 -0.53829048683E+01  0.91447773610E+01  0.51100000000E-03 0.  1.
        -12    1    3    3    0    0  0.93300532838E+01  0.27064010687E+02 -0.11112812621E+01  0.28648656422E+02  0.00000000000E+00 0.  1.
</event>
<event>
 7    1  0.2339217E-009  0.4778727E+02  0.7816164E-02  0.1312668E+00
        -11   -1    0    0    0    0  0.00000000000E+00  0.00000000000E+00  0.45593999997E+02  0.45594000000E+02  0.51100000000E-03 0. -1.
         11   -1    0    0    0    0 -0.00000000000E+00 -0.00000000000E+00 -0.45593999997E+02  0.45594000000E+02  0.51100000000E-03 0.  1.
    9900012    2    1    2    0    0 -0.17078616787E+02 -0.88227028008E+01 -0.38911490874E+02  0.47787270074E+02  0.19999995574E+02 0.  0.
         12    1    1    2    0    0  0.17078616787E+02  0.88227028008E+01  0.38911490874E+02  0.43400729926E+02  0.00000000000E+00 0. -1.
         11    1    3    3    0    0  0.19446544283E+01 -0.67627642394E+00 -0.86429983361E+00  0.22329453891E+01  0.51100000000E-03 0. -1.
        -11    1    3    3    0    0  0.10590996310E+01 -0.24650251068E+01 -0.11375171009E+02  0.11687281829E+02  0.51100000000E-03 0.  1.
        -12    1    3    3    0    0 -0.20082370846E+02 -0.56814012701E+01 -0.26672020031E+02  0.33867042855E+02  0.00000000000E+00 0.  1.
</event>
<event>
 7    1  0.2339217E-009  0.4778727E+02  0.7816164E-02  0.1312668E+00
        -11   -1    0    0    0    0  0.00000000000E+00  0.00000000000E+00  0.45593999997E+02  0.45594000000E+02  0.51100000000E-03 0.  1.
         11   -1    0    0    0    0 -0.00000000000E+00 -0.00000000000E+00 -0.45593999997E+02  0.45594000000E+02  0.51100000000E-03 0. -1.
    9900012    2    1    2    0    0 -0.73531779906E+01  0.39899666758E+02  0.15413319334E+02  0.47787273659E+02  0.20000011923E+02 0.  0.
         12    1    1    2    0    0  0.73531779906E+01 -0.39899666758E+02 -0.15413319334E+02  0.43400726341E+02  0.00000000000E+00 0. -1.
         11    1    3    3    0    0  0.44000532319E+01  0.79314656891E+01  0.48272979207E+01  0.10274795467E+02  0.51100000000E-03 0. -1.
        -11    1    3    3    0    0 -0.11623565548E+01  0.29325239506E+01 -0.24246879779E+01  0.39786783650E+01  0.51100000000E-03 0.  1.
        -12    1    3    3    0    0 -0.10590874668E+02  0.29035677119E+02  0.13010709391E+02  0.33533799827E+02  0.00000000000E+00 0.  1.
</event>
<event>
 7    1  0.2339217E-009  0.4778725E+02  0.7816164E-02  0.1312668E+00
        -11   -1    0    0    0    0  0.00000000000E+00  0.00000000000E+00  0.45593999997E+02  0.45594000000E+02  0.51100000000E-03 0. -1.
         11   -1    0    0    0    0 -0.00000000000E+00 -0.00000000000E+00 -0.45593999997E+02  0.45594000000E+02  0.51100000000E-03 0.  1.
    9900012    2    1    2    0    0 -0.18461721273E+02 -0.29757772015E+02 -0.25637179431E+02  0.47787249813E+02  0.19999903197E+02 0.  0.
         12    1    1    2    0    0  0.18461721273E+02  0.29757772015E+02  0.25637179431E+02  0.43400750187E+02  0.00000000000E+00 0. -1.
         11    1    3    3    0    0 -0.13739871434E+01 -0.29921949759E+00 -0.14278287596E+01  0.20040130254E+01  0.51100000000E-03 0. -1.
        -11    1    3    3    0    0  0.37447195242E+00  0.17192519144E+01 -0.48110350328E+01  0.51227058023E+01  0.51100000000E-03 0.  1.
        -12    1    3    3    0    0 -0.17462206082E+02 -0.31177804431E+02 -0.19398315638E+02  0.40660530985E+02  0.00000000000E+00 0.  1.
</event>
<event>
 7    1  0.2499563E-009  0.4778728E+02  0.7816164E-02  0.1312668E+00
        -11   -1    0    0    0    0  0.00000000000E+00  0.00000000000E+00  0.45593999997E+02  0.45594000000E+02  0.51100000000E-03 0. -1.
         11   -1    0    0    0    0 -0.00000000000E+00 -0.00000000000E+00 -0.45593999997E+02  0.45594000000E+02  0.51100000000E-03 0.  1.
    9900012    2    1    2    0    0 -0.13304871300E+02 -0.39926651653E+02 -0.10604957252E+02  0.47787283061E+02  0.20000054787E+02 0.  0.
         12    1    1    2    0    0  0.13304871300E+02  0.39926651653E+02  0.10604957252E+02  0.43400716939E+02  0.00000000000E+00 0. -1.
         11    1    3    3    0    0  0.87474379902E+00  0.67929974237E+00 -0.86250416284E+00  0.14037587207E+01  0.51100000000E-03 0. -1.
        -11    1    3    3    0    0 -0.12071085718E+02 -0.14857175566E+02 -0.70865704984E+01  0.20412404511E+02  0.51100000000E-03 0.  1.
        -12    1    3    3    0    0 -0.21085293805E+01 -0.25748775829E+02 -0.26558825905E+01  0.25971119829E+02  0.00000000000E+00 0.  1.
</event>
<event>
 7    1  0.2339217E-009  0.4778727E+02  0.7816164E-02  0.1312668E+00
        -11   -1    0    0    0    0  0.00000000000E+00  0.00000000000E+00  0.45593999997E+02  0.45594000000E+02  0.51100000000E-03 0.  1.
         11   -1    0    0    0    0 -0.00000000000E+00 -0.00000000000E+00 -0.45593999997E+02  0.45594000000E+02  0.51100000000E-03 0. -1.
    9900012    2    1    2    0    0  0.18119190207E+02 -0.34936556060E+01  0.39282473298E+02  0.47787269687E+02  0.19999993812E+02 0.  0.
         12    1    1    2    0    0 -0.18119190207E+02  0.34936556060E+01 -0.39282473298E+02  0.43400730313E+02  0.00000000000E+00 0. -1.
         11    1    3    3    0    0  0.10438048383E+02 -0.57223342260E+01  0.75229889436E+01  0.14081666306E+02  0.51100000000E-03 0. -1.
        -11    1    3    3    0    0  0.29227641182E+01  0.34167460214E+01  0.60798950714E+01  0.75618666879E+01  0.51100000000E-03 0.  1.
         12    1    3    3    0    0  0.47583777058E+01 -0.11880674014E+01  0.25679589283E+02  0.26143736693E+02  0.00000000000E+00 0. -1.
</event>
<event>
 7    1  0.2339217E-009  0.4778727E+02  0.7816164E-02  0.1312668E+00
        -11   -1    0    0    0    0  0.00000000000E+00  0.00000000000E+00  0.45593999997E+02  0.45594000000E+02  0.51100000000E-03 0.  1.
         11   -1    0    0    0    0 -0.00000000000E+00 -0.00000000000E+00 -0.45593999997E+02  0.45594000000E+02  0.51100000000E-03 0. -1.
    9900012    2    1    2    0    0 -0.32134439391E+02 -0.26255333319E+02 -0.12714490391E+02  0.47787274331E+02  0.20000014986E+02 0.  0.
         12    1    1    2    0    0  0.32134439391E+02  0.26255333319E+02  0.12714490391E+02  0.43400725669E+02  0.00000000000E+00 0. -1.
         11    1    3    3    0    0 -0.21022770932E+02 -0.16201442429E+02 -0.37416165199E+01  0.26803793181E+02  0.51100000000E-03 0.  1.
        -11    1    3    3    0    0 -0.12211097871E+02 -0.11339480222E+02 -0.62898359637E+01  0.17811702884E+02  0.51100000000E-03 0. -1.
         12    1    3    3    0    0  0.10994294110E+01  0.12855893324E+01 -0.26830379070E+01  0.31717782665E+01  0.00000000000E+00 0. -1.
</event>
<event>
 7    1  0.2339217E-009  0.4778727E+02  0.7816164E-02  0.1312668E+00
        -11   -1    0    0    0    0  0.00000000000E+00  0.00000000000E+00  0.45593999997E+02  0.45594000000E+02  0.51100000000E-03 0.  1.
         11   -1    0    0    0    0 -0.00000000000E+00 -0.00000000000E+00 -0.45593999997E+02  0.45594000000E+02  0.51100000000E-03 0. -1.
    9900012    2    1    2    0    0  0.26122080579E+02  0.34005994524E+02  0.66972183017E+01  0.47787268551E+02  0.19999988630E+02 0.  0.
         12    1    1    2    0    0 -0.26122080579E+02 -0.34005994524E+02 -0.66972183017E+01  0.43400731449E+02  0.00000000000E+00 0. -1.
         11    1    3    3    0    0  0.68738026220E+00  0.47410081529E+01  0.30330552749E+01  0.56700153873E+01  0.51100000000E-03 0. -1.
        -11    1    3    3    0    0  0.74861394845E+01  0.20385894031E+02 -0.22611308937E+00  0.21718151100E+02  0.51100000000E-03 0.  1.
         12    1    3    3    0    0  0.17948560832E+02  0.88790923408E+01  0.38902761163E+01  0.20399102063E+02  0.00000000000E+00 0. -1.
</event>
<event>
 7    1  0.2339217E-009  0.4778727E+02  0.7816164E-02  0.1312668E+00
        -11   -1    0    0    0    0  0.00000000000E+00  0.00000000000E+00  0.45593999997E+02  0.45594000000E+02  0.51100000000E-03 0.  1.
         11   -1    0    0    0    0 -0.00000000000E+00 -0.00000000000E+00 -0.45593999997E+02  0.45594000000E+02  0.51100000000E-03 0. -1.
    9900012    2    1    2    0    0 -0.42046158895E+02  0.10357377660E+02  0.29101066017E+01  0.47787268783E+02  0.19999989687E+02 0.  0.
         12    1    1    2    0    0  0.42046158895E+02 -0.10357377660E+02 -0.29101066017E+01  0.43400731217E+02  0.00000000000E+00 0. -1.
         11    1    3    3    0    0 -0.52045140661E+01  0.55093417866E+01 -0.44570070883E+01  0.87923106196E+01  0.51100000000E-03 0.  1.
        -11    1    3    3    0    0 -0.10259233165E+01 -0.70702503322E+00 -0.12241301340E+01  0.17466819673E+01  0.51100000000E-03 0. -1.
        -12    1    3    3    0    0 -0.35815721512E+02  0.55550609065E+01  0.85912438240E+01  0.37248276196E+02  0.00000000000E+00 0.  1.
</event>
<event>
 7    1  0.2339217E-009  0.4778727E+02  0.7816164E-02  0.1312668E+00
        -11   -1    0    0    0    0  0.00000000000E+00  0.00000000000E+00  0.45593999997E+02  0.45594000000E+02  0.51100000000E-03 0.  1.
         11   -1    0    0    0    0 -0.00000000000E+00 -0.00000000000E+00 -0.45593999997E+02  0.45594000000E+02  0.51100000000E-03 0. -1.
    9900012    2    1    2    0    0  0.25298743864E+02  0.10841135703E+02  0.33556916673E+02  0.47787270501E+02  0.19999997522E+02 0.  0.
         12    1    1    2    0    0 -0.25298743864E+02 -0.10841135703E+02 -0.33556916673E+02  0.43400729499E+02  0.00000000000E+00 0. -1.
         11    1    3    3    0    0  0.24672593196E+01 -0.16580592818E+01  0.93658133729E+01  0.98262398469E+01  0.51100000000E-03 0. -1.
        -11    1    3    3    0    0  0.15379216558E+00  0.53728622122E+01  0.32480387815E+01  0.62802115067E+01  0.51100000000E-03 0.  1.
        -12    1    3    3    0    0  0.22677692379E+02  0.71263327723E+01  0.20943064519E+02  0.31680819147E+02  0.00000000000E+00 0.  1.
</event>
<event>
 7    1  0.2339217E-009  0.4778728E+02  0.7816164E-02  0.1312668E+00
        -11   -1    0    0    0    0  0.00000000000E+00  0.00000000000E+00  0.45593999997E+02  0.45594000000E+02  0.51100000000E-03 0.  1.
         11   -1    0    0    0    0 -0.00000000000E+00 -0.00000000000E+00 -0.45593999997E+02  0.45594000000E+02  0.51100000000E-03 0. -1.
    9900012    2    1    2    0    0 -0.11193651463E+02  0.22499227644E+02  0.35385156414E+02  0.47787281433E+02  0.20000047367E+02 0.  0.
         12    1    1    2    0    0  0.11193651463E+02 -0.22499227644E+02 -0.35385156414E+02  0.43400718567E+02  0.00000000000E+00 0. -1.
         11    1    3    3    0    0  0.33346205632E+01 -0.39543430919E+00  0.37547812632E+01  0.50373053500E+01  0.51100000000E-03 0. -1.
        -11    1    3    3    0    0 -0.24770635095E-01 -0.13174770894E+00  0.38820121958E+01  0.38843261954E+01  0.51100000000E-03 0.  1.
        -12    1    3    3    0    0 -0.14503501391E+02  0.23026409662E+02  0.27748362955E+02  0.38865649888E+02  0.00000000000E+00 0.  1.
</event>
<event>
 7    1  0.2339217E-009  0.4778727E+02  0.7816164E-02  0.1312668E+00
        -11   -1    0    0    0    0  0.00000000000E+00  0.00000000000E+00  0.45593999997E+02  0.45594000000E+02  0.51100000000E-03 0.  1.
         11   -1    0    0    0    0 -0.00000000000E+00 -0.00000000000E+00 -0.45593999997E+02  0.45594000000E+02  0.51100000000E-03 0. -1.
    9900012    2    1    2    0    0  0.41389478379E+02 -0.12658963005E+02  0.32070347576E+01  0.47787270319E+02  0.19999996694E+02 0.  0.
         12    1    1    2    0    0 -0.41389478379E+02  0.12658963005E+02 -0.32070347576E+01  0.43400729681E+02  0.00000000000E+00 0. -1.
         11    1    3    3    0    0  0.20057591691E+01 -0.11710513370E+01 -0.10826557429E+01  0.25625328870E+01  0.51100000000E-03 0. -1.
        -11    1    3    3    0    0  0.37826535533E+02 -0.54638141311E+01  0.11052458976E+01  0.38235083680E+02  0.51100000000E-03 0.  1.
        -12    1    3    3    0    0  0.15571836770E+01 -0.60240975372E+01  0.31844446028E+01  0.69896537518E+01  0.00000000000E+00 0.  1.
</event>
<event>
 7    1  0.2339217E-009  0.4778727E+02  0.7816164E-02  0.1312668E+00
        -11   -1    0    0    0    0  0.00000000000E+00  0.00000000000E+00  0.45593999997E+02  0.45594000000E+02  0.51100000000E-03 0. -1.
         11   -1    0    0    0    0 -0.00000000000E+00 -0.00000000000E+00 -0.45593999997E+02  0.45594000000E+02  0.51100000000E-03 0.  1.
    9900012    2    1    2    0    0  0.17317355623E+02  0.39796134272E+02  0.13169278868E-01  0.47787270949E+02  0.19999999564E+02 0.  0.
         12    1    1    2    0    0 -0.17317355623E+02 -0.39796134272E+02 -0.13169278868E-01  0.43400729051E+02  0.00000000000E+00 0. -1.
         11    1    3    3    0    0  0.63506843277E+01  0.71591980477E+01  0.80390482934E+00  0.96037269511E+01  0.51100000000E-03 0. -1.
        -11    1    3    3    0    0  0.13079724318E+02  0.13741715870E+02  0.15122280544E+01  0.19031573168E+02  0.51100000000E-03 0.  1.
        -12    1    3    3    0    0 -0.21130530234E+01  0.18895220354E+02 -0.23029636049E+01  0.19151970830E+02  0.00000000000E+00 0.  1.
</event>
<event>
 7    1  0.2339217E-009  0.4778727E+02  0.7816164E-02  0.1312668E+00
        -11   -1    0    0    0    0  0.00000000000E+00  0.00000000000E+00  0.45593999997E+02  0.45594000000E+02  0.51100000000E-03 0.  1.
         11   -1    0    0    0    0 -0.00000000000E+00 -0.00000000000E+00 -0.45593999997E+02  0.45594000000E+02  0.51100000000E-03 0. -1.
    9900012    2    1    2    0    0  0.22342225008E+01 -0.20643455079E+00  0.43342688553E+02  0.47787274010E+02  0.20000013523E+02 0.  0.
         12    1    1    2    0    0 -0.22342225008E+01  0.20643455079E+00 -0.43342688553E+02  0.43400725990E+02  0.00000000000E+00 0. -1.
         11    1    3    3    0    0  0.20273534538E+01  0.22639436854E+01  0.17290300700E+01  0.34964479521E+01  0.51100000000E-03 0. -1.
        -11    1    3    3    0    0  0.20926032423E+01  0.60600447159E+01  0.18673572274E+02  0.19743490877E+02  0.51100000000E-03 0.  1.
         12    1    3    3    0    0 -0.18857341953E+01 -0.85304229521E+01  0.22940086209E+02  0.24547335181E+02  0.00000000000E+00 0. -1.
</event>
<event>
 7    1  0.2339217E-009  0.4778726E+02  0.7816164E-02  0.1312668E+00
        -11   -1    0    0    0    0  0.00000000000E+00  0.00000000000E+00  0.45593999997E+02  0.45594000000E+02  0.51100000000E-03 0.  1.
         11   -1    0    0    0    0 -0.00000000000E+00 -0.00000000000E+00 -0.45593999997E+02  0.45594000000E+02  0.51100000000E-03 0. -1.
    9900012    2    1    2    0    0 -0.28413425075E+02  0.31372594019E+02 -0.95948728275E+01  0.47787263087E+02  0.19999963719E+02 0.  0.
         12    1    1    2    0    0  0.28413425075E+02 -0.31372594019E+02  0.95948728275E+01  0.43400736913E+02  0.00000000000E+00 0. -1.
         11    1    3    3    0    0 -0.16842500149E+02  0.82832447456E+01 -0.65400369164E+01  0.19875966339E+02  0.51100000000E-03 0.  1.
        -11    1    3    3    0    0 -0.98433751594E+01  0.98145782006E+01  0.96589618236E+00  0.13933805492E+02  0.51100000000E-03 0. -1.
         12    1    3    3    0    0 -0.17275497665E+01  0.13274771073E+02 -0.40207320935E+01  0.13977491256E+02  0.00000000000E+00 0. -1.
</event>
<event>
 7    1  0.2339217E-009  0.4778727E+02  0.7816164E-02  0.1312668E+00
        -11   -1    0    0    0    0  0.00000000000E+00  0.00000000000E+00  0.45593999997E+02  0.45594000000E+02  0.51100000000E-03 0. -1.
         11   -1    0    0    0    0 -0.00000000000E+00 -0.00000000000E+00 -0.45593999997E+02  0.45594000000E+02  0.51100000000E-03 0.  1.
    9900012    2    1    2    0    0 -0.15071865025E+01 -0.42750487514E+02 -0.73312636951E+01  0.47787271652E+02  0.20000002769E+02 0.  0.
         12    1    1    2    0    0  0.15071865025E+01  0.42750487514E+02  0.73312636951E+01  0.43400728348E+02  0.00000000000E+00 0. -1.
         11    1    3    3    0    0 -0.33491501246E+01 -0.28060918860E+02 -0.47327221329E+01  0.28653632106E+02  0.51100000000E-03 0. -1.
        -11    1    3    3    0    0  0.45773119872E+01 -0.14690042828E+02 -0.42186560599E+01  0.15954504146E+02  0.51100000000E-03 0.  1.
         12    1    3    3    0    0 -0.27353483651E+01  0.47417496729E-03  0.16201144977E+01  0.31791353996E+01  0.00000000000E+00 0. -1.
</event>
<event>
 7    1  0.2339217E-009  0.4778727E+02  0.7816164E-02  0.1312668E+00
        -11   -1    0    0    0    0  0.00000000000E+00  0.00000000000E+00  0.45593999997E+02  0.45594000000E+02  0.51100000000E-03 0.  1.
         11   -1    0    0    0    0 -0.00000000000E+00 -0.00000000000E+00 -0.45593999997E+02  0.45594000000E+02  0.51100000000E-03 0. -1.
    9900012    2    1    2    0    0 -0.22189609756E+02 -0.15321114584E+02  0.34007469979E+02  0.47787270195E+02  0.19999996125E+02 0.  0.
         12    1    1    2    0    0  0.22189609756E+02  0.15321114584E+02 -0.34007469979E+02  0.43400729805E+02  0.00000000000E+00 0. -1.
         11    1    3    3    0    0 -0.48068016453E+01 -0.22133326652E+01 -0.12693500959E+01  0.54420063829E+01  0.51100000000E-03 0. -1.
        -11    1    3    3    0    0 -0.77949582584E+01 -0.24118566481E+01  0.75410200549E+01  0.11110599015E+02  0.51100000000E-03 0.  1.
        -12    1    3    3    0    0 -0.95878498525E+01 -0.10695925271E+02  0.27735800020E+02  0.31234664797E+02  0.00000000000E+00 0.  1.
</event>
<event>
 7    1  0.2339217E-009  0.4778727E+02  0.7816164E-02  0.1312668E+00
        -11   -1    0    0    0    0  0.00000000000E+00  0.00000000000E+00  0.45593999997E+02  0.45594000000E+02  0.51100000000E-03 0.  1.
         11   -1    0    0    0    0 -0.00000000000E+00 -0.00000000000E+00 -0.45593999997E+02  0.45594000000E+02  0.51100000000E-03 0. -1.
    9900012    2    1    2    0    0  0.12036202718E+02 -0.18473285349E+02  0.37383029442E+02  0.47787270309E+02  0.19999996647E+02 0.  0.
         12    1    1    2    0    0 -0.12036202718E+02  0.18473285349E+02 -0.37383029442E+02  0.43400729691E+02  0.00000000000E+00 0. -1.
         11    1    3    3    0    0  0.17540217425E+01 -0.13681120607E+02  0.29101184297E+02  0.32204480761E+02  0.51100000000E-03 0. -1.
        -11    1    3    3    0    0  0.62739317956E+01 -0.39554502819E+01  0.87397764583E+01  0.11462613136E+02  0.51100000000E-03 0.  1.
         12    1    3    3    0    0  0.40082491794E+01 -0.83671446000E+00 -0.45793131356E+00  0.41201764113E+01  0.00000000000E+00 0. -1.
</event>
<event>
 7    1  0.2339217E-009  0.4778728E+02  0.7816164E-02  0.1312668E+00
        -11   -1    0    0    0    0  0.00000000000E+00  0.00000000000E+00  0.45593999997E+02  0.45594000000E+02  0.51100000000E-03 0.  1.
         11   -1    0    0    0    0 -0.00000000000E+00 -0.00000000000E+00 -0.45593999997E+02  0.45594000000E+02  0.51100000000E-03 0. -1.
    9900012    2    1    2    0    0 -0.31771579275E+02 -0.17330553425E+02  0.23954982503E+02  0.47787279749E+02  0.20000039686E+02 0.  0.
         12    1    1    2    0    0  0.31771579275E+02  0.17330553425E+02 -0.23954982503E+02  0.43400720251E+02  0.00000000000E+00 0. -1.
         11    1    3    3    0    0 -0.95743618950E+01 -0.70681136737E+01  0.17866940170E+02  0.21467514712E+02  0.51100000000E-03 0. -1.
        -11    1    3    3    0    0 -0.21253111113E+01 -0.34373051860E+01 -0.60826285539E+00  0.40868078281E+01  0.51100000000E-03 0.  1.
        -12    1    3    3    0    0 -0.20071906268E+02 -0.68251345652E+01  0.66963051889E+01  0.22232957209E+02  0.00000000000E+00 0.  1.
</event>
<event>
 7    1  0.2339217E-009  0.4778728E+02  0.7816164E-02  0.1312668E+00
        -11   -1    0    0    0    0  0.00000000000E+00  0.00000000000E+00  0.45593999997E+02  0.45594000000E+02  0.51100000000E-03 0.  1.
         11   -1    0    0    0    0 -0.00000000000E+00 -0.00000000000E+00 -0.45593999997E+02  0.45594000000E+02  0.51100000000E-03 0. -1.
    9900012    2    1    2    0    0  0.71823627930E+01  0.36018493372E+02  0.23123670924E+02  0.47787281607E+02  0.20000048158E+02 0.  0.
         12    1    1    2    0    0 -0.71823627930E+01 -0.36018493372E+02 -0.23123670924E+02  0.43400718393E+02  0.00000000000E+00 0. -1.
         11    1    3    3    0    0  0.16365335682E+01  0.48671650578E+01  0.65582581938E+01  0.83293630379E+01  0.51100000000E-03 0. -1.
        -11    1    3    3    0    0  0.10290760848E+02  0.28097519747E+02  0.15559072924E+02  0.33726178635E+02  0.51100000000E-03 0.  1.
        -12    1    3    3    0    0 -0.47449316230E+01  0.30538085667E+01  0.10063398053E+01  0.57317399341E+01  0.00000000000E+00 0.  1.
</event>
<event>
 7    1  0.2339217E-009  0.4778727E+02  0.7816164E-02  0.1312668E+00
        -11   -1    0    0    0    0  0.00000000000E+00  0.00000000000E+00  0.45593999997E+02  0.45594000000E+02  0.51100000000E-03 0.  1.
         11   -1    0    0    0    0 -0.00000000000E+00 -0.00000000000E+00 -0.45593999997E+02  0.45594000000E+02  0.51100000000E-03 0. -1.
    9900012    2    1    2    0    0  0.10598675907E+02 -0.22491002812E+02  0.35573108791E+02  0.47787271809E+02  0.20000003486E+02 0.  0.
         12    1    1    2    0    0 -0.10598675907E+02  0.22491002812E+02 -0.35573108791E+02  0.43400728191E+02  0.00000000000E+00 0. -1.
         11    1    3    3    0    0  0.88846214758E+01 -0.88057676683E+01  0.43417715127E+01  0.13241186621E+02  0.51100000000E-03 0. -1.
        -11    1    3    3    0    0  0.82163866700E-01  0.13308268365E-01 -0.20213313838E+00  0.21860026933E+00  0.51100000000E-03 0.  1.
        -12    1    3    3    0    0  0.16318905648E+01 -0.13698543412E+02  0.31433470417E+02  0.34327484919E+02  0.00000000000E+00 0.  1.
</event>
<event>
 7    1  0.2339217E-009  0.4778727E+02  0.7816164E-02  0.1312668E+00
        -11   -1    0    0    0    0  0.00000000000E+00  0.00000000000E+00  0.45593999997E+02  0.45594000000E+02  0.51100000000E-03 0.  1.
         11   -1    0    0    0    0 -0.00000000000E+00 -0.00000000000E+00 -0.45593999997E+02  0.45594000000E+02  0.51100000000E-03 0. -1.
    9900012    2    1    2    0    0 -0.87595959291E+01 -0.42229292668E+02  0.48558745948E+01  0.47787271917E+02  0.20000003979E+02 0.  0.
         12    1    1    2    0    0  0.87595959291E+01  0.42229292668E+02 -0.48558745948E+01  0.43400728083E+02  0.00000000000E+00 0. -1.
         11    1    3    3    0    0 -0.16826058150E+01 -0.29427520264E+02 -0.25329876016E+01  0.29584221093E+02  0.51100000000E-03 0. -1.
        -11    1    3    3    0    0  0.50026402468E-03 -0.77810629431E+01  0.21735984095E+01  0.80789523505E+01  0.51100000000E-03 0.  1.
        -12    1    3    3    0    0 -0.70774903781E+01 -0.50207094606E+01  0.52152637870E+01  0.10124098474E+02  0.00000000000E+00 0.  1.
</event>
<event>
 7    1  0.2339217E-009  0.4778727E+02  0.7816164E-02  0.1312668E+00
        -11   -1    0    0    0    0  0.00000000000E+00  0.00000000000E+00  0.45593999997E+02  0.45594000000E+02  0.51100000000E-03 0.  1.
         11   -1    0    0    0    0 -0.00000000000E+00 -0.00000000000E+00 -0.45593999997E+02  0.45594000000E+02  0.51100000000E-03 0. -1.
    9900012    2    1    2    0    0 -0.39189818298E+01 -0.10159044099E+02  0.42012601360E+02  0.47787271105E+02  0.20000000276E+02 0.  0.
         12    1    1    2    0    0  0.39189818298E+01  0.10159044099E+02 -0.42012601360E+02  0.43400728895E+02  0.00000000000E+00 0. -1.
         11    1    3    3    0    0  0.29726258037E+01 -0.35421812757E+01  0.20481466641E+01  0.50575149409E+01  0.51100000000E-03 0. -1.
        -11    1    3    3    0    0  0.24205709724E+01  0.87532964114E+00  0.12737699634E+02  0.12995166718E+02  0.51100000000E-03 0.  1.
         12    1    3    3    0    0 -0.93121786059E+01 -0.74921924642E+01  0.27226755062E+02  0.29734589446E+02  0.00000000000E+00 0. -1.
</event>
<event>
 7    1  0.2339217E-009  0.4778727E+02  0.7816164E-02  0.1312668E+00
        -11   -1    0    0    0    0  0.00000000000E+00  0.00000000000E+00  0.45593999997E+02  0.45594000000E+02  0.51100000000E-03 0.  1.
         11   -1    0    0    0    0 -0.00000000000E+00 -0.00000000000E+00 -0.45593999997E+02  0.45594000000E+02  0.51100000000E-03 0. -1.
    9900012    2    1    2    0    0  0.29674356796E+02  0.26876169539E+02 -0.16754918551E+02  0.47787271480E+02  0.20000001988E+02 0.  0.
         12    1    1    2    0    0 -0.29674356796E+02 -0.26876169539E+02  0.16754918551E+02  0.43400728520E+02  0.00000000000E+00 0. -1.
         11    1    3    3    0    0  0.81631936318E+01  0.13478084009E+02 -0.92232980431E+01  0.18258305121E+02  0.51100000000E-03 0. -1.
        -11    1    3    3    0    0  0.19547820702E+02  0.15834114447E+02 -0.79263525338E+01  0.26375434390E+02  0.51100000000E-03 0.  1.
        -12    1    3    3    0    0  0.19633424625E+01 -0.24360289170E+01  0.39473202589E+00  0.31535319694E+01  0.00000000000E+00 0.  1.
</event>
<event>
 7    1  0.2339217E-009  0.4778727E+02  0.7816164E-02  0.1312668E+00
        -11   -1    0    0    0    0  0.00000000000E+00  0.00000000000E+00  0.45593999997E+02  0.45594000000E+02  0.51100000000E-03 0.  1.
         11   -1    0    0    0    0 -0.00000000000E+00 -0.00000000000E+00 -0.45593999997E+02  0.45594000000E+02  0.51100000000E-03 0. -1.
    9900012    2    1    2    0    0  0.26940844289E+01  0.37915358548E+02  0.20947335154E+02  0.47787270112E+02  0.19999995751E+02 0.  0.
         12    1    1    2    0    0 -0.26940844289E+01 -0.37915358548E+02 -0.20947335154E+02  0.43400729888E+02  0.00000000000E+00 0. -1.
         11    1    3    3    0    0  0.36683556182E+01  0.20829169662E+02  0.11561071194E+02  0.24103309092E+02  0.51100000000E-03 0. -1.
        -11    1    3    3    0    0  0.78677156203E+00  0.96992049033E+01  0.12182168112E+02  0.15591626131E+02  0.51100000000E-03 0.  1.
        -12    1    3    3    0    0 -0.17610427514E+01  0.73869839827E+01 -0.27959041526E+01  0.80923348894E+01  0.00000000000E+00 0.  1.
</event>
<event>
 7    1  0.2339217E-009  0.4778727E+02  0.7816164E-02  0.1312668E+00
        -11   -1    0    0    0    0  0.00000000000E+00  0.00000000000E+00  0.45593999997E+02  0.45594000000E+02  0.51100000000E-03 0. -1.
         11   -1    0    0    0    0 -0.00000000000E+00 -0.00000000000E+00 -0.45593999997E+02  0.45594000000E+02  0.51100000000E-03 0.  1.
    9900012    2    1    2    0    0  0.74649953037E+01  0.41895143921E+02 -0.85260880531E+01  0.47787269401E+02  0.19999992508E+02 0.  0.
         12    1    1    2    0    0 -0.74649953037E+01 -0.41895143921E+02  0.85260880531E+01  0.43400730599E+02  0.00000000000E+00 0. -1.
         11    1    3    3    0    0 -0.39622113918E+01  0.21634093923E+01  0.71019680444E+00  0.45698839235E+01  0.51100000000E-03 0. -1.
        -11    1    3    3    0    0 -0.13156895126E+01  0.63627465809E+01 -0.12629757164E+01  0.66189644861E+01  0.51100000000E-03 0.  1.
        -12    1    3    3    0    0  0.12742896208E+02  0.33368987948E+02 -0.79733091412E+01  0.36598420992E+02  0.00000000000E+00 0.  1.
</event>
<event>
 7    1  0.2339217E-009  0.4778727E+02  0.7816164E-02  0.1312668E+00
        -11   -1    0    0    0    0  0.00000000000E+00  0.00000000000E+00  0.45593999997E+02  0.45594000000E+02  0.51100000000E-03 0. -1.
         11   -1    0    0    0    0 -0.00000000000E+00 -0.00000000000E+00 -0.45593999997E+02  0.45594000000E+02  0.51100000000E-03 0.  1.
    9900012    2    1    2    0    0 -0.34871973605E+02 -0.22474946193E+02 -0.12745412711E+02  0.47787270805E+02  0.19999998908E+02 0.  0.
         12    1    1    2    0    0  0.34871973605E+02  0.22474946193E+02  0.12745412711E+02  0.43400729195E+02  0.00000000000E+00 0. -1.
         11    1    3    3    0    0 -0.40553910308E+01 -0.27173147297E+01 -0.60728725657E+01  0.77916479139E+01  0.51100000000E-03 0. -1.
        -11    1    3    3    0    0 -0.19614792647E+02 -0.17362057627E+02 -0.10044088564E+02  0.28054676098E+02  0.51100000000E-03 0.  1.
         12    1    3    3    0    0 -0.11201789927E+02 -0.23955738362E+01  0.33715484184E+01  0.11940946793E+02  0.00000000000E+00 0. -1.
</event>
<event>
 7    1  0.2339217E-009  0.4778727E+02  0.7816164E-02  0.1312668E+00
        -11   -1    0    0    0    0  0.00000000000E+00  0.00000000000E+00  0.45593999997E+02  0.45594000000E+02  0.51100000000E-03 0. -1.
         11   -1    0    0    0    0 -0.00000000000E+00 -0.00000000000E+00 -0.45593999997E+02  0.45594000000E+02  0.51100000000E-03 0.  1.
    9900012    2    1    2    0    0  0.37936571131E+02  0.14602133519E+02 -0.15205838887E+02  0.47787271103E+02  0.20000000268E+02 0.  0.
         12    1    1    2    0    0 -0.37936571131E+02 -0.14602133519E+02  0.15205838887E+02  0.43400728897E+02  0.00000000000E+00 0. -1.
         11    1    3    3    0    0  0.10832031266E+02  0.64093111837E+01 -0.74195465873E+01  0.14610333433E+02  0.51100000000E-03 0. -1.
        -11    1    3    3    0    0  0.20444327345E+02  0.67053264489E+01 -0.12499617625E+02  0.24883174323E+02  0.51100000000E-03 0.  1.
         12    1    3    3    0    0  0.66602125204E+01  0.14874958861E+01  0.47133253256E+01  0.82937633468E+01  0.00000000000E+00 0. -1.
</event>
<event>
 7    1  0.2339217E-009  0.4778727E+02  0.7816164E-02  0.1312668E+00
        -11   -1    0    0    0    0  0.00000000000E+00  0.00000000000E+00  0.45593999997E+02  0.45594000000E+02  0.51100000000E-03 0.  1.
         11   -1    0    0    0    0 -0.00000000000E+00 -0.00000000000E+00 -0.45593999997E+02  0.45594000000E+02  0.51100000000E-03 0. -1.
    9900012    2    1    2    0    0 -0.17612811568E+02 -0.20081491235E+02  0.34207393888E+02  0.47787271686E+02  0.20000002927E+02 0.  0.
         12    1    1    2    0    0  0.17612811568E+02  0.20081491235E+02 -0.34207393888E+02  0.43400728314E+02  0.00000000000E+00 0. -1.
         11    1    3    3    0    0 -0.11547194213E+02 -0.15990005086E+02  0.19902800410E+02  0.28020339421E+02  0.51100000000E-03 0.  1.
        -11    1    3    3    0    0  0.39147018678E+00 -0.63424807352E+01  0.94215964834E+01  0.11364276983E+02  0.51100000000E-03 0. -1.
        -12    1    3    3    0    0 -0.64570875422E+01  0.22509945864E+01  0.48829969941E+01  0.84026552827E+01  0.00000000000E+00 0.  1.
</event>
<event>
 7    1  0.2339217E-009  0.4778727E+02  0.7816164E-02  0.1312668E+00
        -11   -1    0    0    0    0  0.00000000000E+00  0.00000000000E+00  0.45593999997E+02  0.45594000000E+02  0.51100000000E-03 0. -1.
         11   -1    0    0    0    0 -0.00000000000E+00 -0.00000000000E+00 -0.45593999997E+02  0.45594000000E+02  0.51100000000E-03 0.  1.
    9900012    2    1    2    0    0  0.26408725413E+02 -0.14921501006E+02 -0.31041122403E+02  0.47787271316E+02  0.20000001240E+02 0.  0.
         12    1    1    2    0    0 -0.26408725413E+02  0.14921501006E+02  0.31041122403E+02  0.43400728684E+02  0.00000000000E+00 0. -1.
         11    1    3    3    0    0  0.21459375537E+02 -0.88969306870E+01 -0.15294862646E+02  0.27813539827E+02  0.51100000000E-03 0. -1.
        -11    1    3    3    0    0  0.64810361246E+01 -0.75260100109E+01 -0.11349012251E+02  0.15081271010E+02  0.51100000000E-03 0.  1.
        -12    1    3    3    0    0 -0.15316862487E+01  0.15014396922E+01 -0.43972475062E+01  0.48924604796E+01  0.00000000000E+00 0.  1.
</event>
<event>
 7    1  0.2339217E-009  0.4778727E+02  0.7816164E-02  0.1312668E+00
        -11   -1    0    0    0    0  0.00000000000E+00  0.00000000000E+00  0.45593999997E+02  0.45594000000E+02  0.51100000000E-03 0.  1.
         11   -1    0    0    0    0 -0.00000000000E+00 -0.00000000000E+00 -0.45593999997E+02  0.45594000000E+02  0.51100000000E-03 0. -1.
    9900012    2    1    2    0    0 -0.40856104019E+02  0.14419856958E+02  0.25436759802E+01  0.47787265008E+02  0.19999972480E+02 0.  0.
         12    1    1    2    0    0  0.40856104019E+02 -0.14419856958E+02 -0.25436759802E+01  0.43400734992E+02  0.00000000000E+00 0. -1.
         11    1    3    3    0    0 -0.55904289321E+01 -0.84776823826E+00 -0.68547846066E+00  0.56957429376E+01  0.51100000000E-03 0.  1.
        -11    1    3    3    0    0 -0.25574657179E+02  0.55281387570E+01  0.82937563490E+01  0.27448311471E+02  0.51100000000E-03 0. -1.
         12    1    3    3    0    0 -0.96910179077E+01  0.97394864394E+01 -0.50646019081E+01  0.14643210600E+02  0.00000000000E+00 0. -1.
</event>
<event>
 7    1  0.2339217E-009  0.4778727E+02  0.7816164E-02  0.1312668E+00
        -11   -1    0    0    0    0  0.00000000000E+00  0.00000000000E+00  0.45593999997E+02  0.45594000000E+02  0.51100000000E-03 0.  1.
         11   -1    0    0    0    0 -0.00000000000E+00 -0.00000000000E+00 -0.45593999997E+02  0.45594000000E+02  0.51100000000E-03 0. -1.
    9900012    2    1    2    0    0 -0.34198402492E+02  0.19040178068E+02  0.18750049975E+02  0.47787268578E+02  0.19999988757E+02 0.  0.
         12    1    1    2    0    0  0.34198402492E+02 -0.19040178068E+02 -0.18750049975E+02  0.43400731422E+02  0.00000000000E+00 0. -1.
         11    1    3    3    0    0  0.71503405563E+00  0.30679191161E+00  0.29657669821E+00  0.83267819521E+00  0.51100000000E-03 0. -1.
        -11    1    3    3    0    0 -0.29252272049E+02  0.21654276410E+02  0.13259443333E+02  0.38735202912E+02  0.51100000000E-03 0.  1.
        -12    1    3    3    0    0 -0.56611644987E+01 -0.29208902531E+01  0.51940299434E+01  0.82193874714E+01  0.00000000000E+00 0.  1.
</event>
<event>
 7    1  0.2339217E-009  0.4778727E+02  0.7816164E-02  0.1312668E+00
        -11   -1    0    0    0    0  0.00000000000E+00  0.00000000000E+00  0.45593999997E+02  0.45594000000E+02  0.51100000000E-03 0. -1.
         11   -1    0    0    0    0 -0.00000000000E+00 -0.00000000000E+00 -0.45593999997E+02  0.45594000000E+02  0.51100000000E-03 0.  1.
    9900012    2    1    2    0    0  0.43257422104E+02  0.11449598672E+01  0.33328246311E+01  0.47787271663E+02  0.20000002821E+02 0.  0.
         12    1    1    2    0    0 -0.43257422104E+02 -0.11449598672E+01 -0.33328246311E+01  0.43400728337E+02  0.00000000000E+00 0. -1.
         11    1    3    3    0    0  0.22625907425E+02 -0.80328390992E+00  0.34183614689E+01  0.22896771546E+02  0.51100000000E-03 0. -1.
        -11    1    3    3    0    0  0.77118741670E+01  0.40882655259E+01  0.58550455177E+01  0.10510398492E+02  0.51100000000E-03 0.  1.
        -12    1    3    3    0    0  0.12919640511E+02 -0.21400217488E+01 -0.59405823555E+01  0.14380101625E+02  0.00000000000E+00 0.  1.
</event>
<event>
 7    1  0.2339217E-009  0.4778727E+02  0.7816164E-02  0.1312668E+00
        -11   -1    0    0    0    0  0.00000000000E+00  0.00000000000E+00  0.45593999997E+02  0.45594000000E+02  0.51100000000E-03 0.  1.
         11   -1    0    0    0    0 -0.00000000000E+00 -0.00000000000E+00 -0.45593999997E+02  0.45594000000E+02  0.51100000000E-03 0. -1.
    9900012    2    1    2    0    0 -0.16977595846E+02  0.39300870004E+02  0.71292517295E+01  0.47787269891E+02  0.19999994742E+02 0.  0.
         12    1    1    2    0    0  0.16977595846E+02 -0.39300870004E+02 -0.71292517295E+01  0.43400730109E+02  0.00000000000E+00 0. -1.
         11    1    3    3    0    0 -0.87537438230E+01  0.97434324205E+01  0.46992546537E+01  0.13915656679E+02  0.51100000000E-03 0. -1.
        -11    1    3    3    0    0 -0.24341154833E+01  0.15249270107E+02  0.80878968759E+01  0.17432132202E+02  0.51100000000E-03 0.  1.
         12    1    3    3    0    0 -0.57897365399E+01  0.14308167477E+02 -0.56578998000E+01  0.16439481010E+02  0.00000000000E+00 0. -1.
</event>
<event>
 7    1  0.2339217E-009  0.4778728E+02  0.7816164E-02  0.1312668E+00
        -11   -1    0    0    0    0  0.00000000000E+00  0.00000000000E+00  0.45593999997E+02  0.45594000000E+02  0.51100000000E-03 0. -1.
         11   -1    0    0    0    0 -0.00000000000E+00 -0.00000000000E+00 -0.45593999997E+02  0.45594000000E+02  0.51100000000E-03 0.  1.
    9900012    2    1    2    0    0 -0.23929018201E+02 -0.28456320372E+02 -0.22388893102E+02  0.47787278629E+02  0.20000034581E+02 0.  0.
         12    1    1    2    0    0  0.23929018201E+02  0.28456320372E+02  0.22388893102E+02  0.43400721371E+02  0.00000000000E+00 0. -1.
         11    1    3    3    0    0  0.17540233440E+01 -0.63459393589E+01 -0.18900539798E+01  0.68498064604E+01  0.51100000000E-03 0. -1.
        -11    1    3    3    0    0 -0.48543122198E+01 -0.75157924648E+01 -0.12341012017E+01  0.90318596944E+01  0.51100000000E-03 0.  1.
        -12    1    3    3    0    0 -0.20828729325E+02 -0.14594588549E+02 -0.19264737921E+02  0.31905612474E+02  0.00000000000E+00 0.  1.
</event>
<event>
 7    1  0.2339217E-009  0.4778727E+02  0.7816164E-02  0.1312668E+00
        -11   -1    0    0    0    0  0.00000000000E+00  0.00000000000E+00  0.45593999997E+02  0.45594000000E+02  0.51100000000E-03 0. -1.
         11   -1    0    0    0    0 -0.00000000000E+00 -0.00000000000E+00 -0.45593999997E+02  0.45594000000E+02  0.51100000000E-03 0.  1.
    9900012    2    1    2    0    0  0.39985117229E+02  0.16874366035E+02  0.26292079974E+00  0.47787274704E+02  0.20000016685E+02 0.  0.
         12    1    1    2    0    0 -0.39985117229E+02 -0.16874366035E+02 -0.26292079974E+00  0.43400725296E+02  0.00000000000E+00 0. -1.
         11    1    3    3    0    0  0.76562443404E+01  0.40515416965E+01 -0.43387161813E+01  0.96880093869E+01  0.51100000000E-03 0. -1.
        -11    1    3    3    0    0  0.27922293955E+02  0.11091281247E+02 -0.18446866884E+01  0.30101061255E+02  0.51100000000E-03 0.  1.
         12    1    3    3    0    0  0.44065789330E+01  0.17315430910E+01  0.64463236694E+01  0.79982040621E+01  0.00000000000E+00 0. -1.
</event>
<event>
 7    1  0.2339217E-009  0.4778727E+02  0.7816164E-02  0.1312668E+00
        -11   -1    0    0    0    0  0.00000000000E+00  0.00000000000E+00  0.45593999997E+02  0.45594000000E+02  0.51100000000E-03 0.  1.
         11   -1    0    0    0    0 -0.00000000000E+00 -0.00000000000E+00 -0.45593999997E+02  0.45594000000E+02  0.51100000000E-03 0. -1.
    9900012    2    1    2    0    0 -0.88438363165E+01 -0.13566856053E+02  0.40265989774E+02  0.47787274701E+02  0.20000016673E+02 0.  0.
         12    1    1    2    0    0  0.88438363165E+01  0.13566856053E+02 -0.40265989774E+02  0.43400725299E+02  0.00000000000E+00 0. -1.
         11    1    3    3    0    0  0.12839908404E+01  0.47180169843E+00  0.91569798975E+01  0.92585911685E+01  0.51100000000E-03 0. -1.
        -11    1    3    3    0    0 -0.32907915385E+01 -0.91545970811E+01  0.27877939698E+02  0.29526521616E+02  0.51100000000E-03 0.  1.
         12    1    3    3    0    0 -0.68370356184E+01 -0.48840606704E+01  0.32310701788E+01  0.90021619170E+01  0.00000000000E+00 0. -1.
</event>
<event>
 7    1  0.2339217E-009  0.4778728E+02  0.7816164E-02  0.1312668E+00
        -11   -1    0    0    0    0  0.00000000000E+00  0.00000000000E+00  0.45593999997E+02  0.45594000000E+02  0.51100000000E-03 0.  1.
         11   -1    0    0    0    0 -0.00000000000E+00 -0.00000000000E+00 -0.45593999997E+02  0.45594000000E+02  0.51100000000E-03 0. -1.
    9900012    2    1    2    0    0  0.41253071257E+01 -0.18783957344E+02  0.38907167189E+02  0.47787275685E+02  0.20000021160E+02 0.  0.
         12    1    1    2    0    0 -0.41253071257E+01  0.18783957344E+02 -0.38907167189E+02  0.43400724315E+02  0.00000000000E+00 0. -1.
         11    1    3    3    0    0  0.36217445927E+01 -0.43460487465E+01  0.34504233256E+01  0.66265069975E+01  0.51100000000E-03 0. -1.
        -11    1    3    3    0    0  0.73362932117E+01 -0.58680012212E+01  0.11756852439E+02  0.15049193199E+02  0.51100000000E-03 0.  1.
        -12    1    3    3    0    0 -0.68327306787E+01 -0.85699073768E+01  0.23699891424E+02  0.26111575489E+02  0.00000000000E+00 0.  1.
</event>
<event>
 7    1  0.2339217E-009  0.4778727E+02  0.7816164E-02  0.1312668E+00
        -11   -1    0    0    0    0  0.00000000000E+00  0.00000000000E+00  0.45593999997E+02  0.45594000000E+02  0.51100000000E-03 0. -1.
         11   -1    0    0    0    0 -0.00000000000E+00 -0.00000000000E+00 -0.45593999997E+02  0.45594000000E+02  0.51100000000E-03 0.  1.
    9900012    2    1    2    0    0  0.42846886554E+02 -0.25159974392E+01  0.64371613745E+01  0.47787274464E+02  0.20000015591E+02 0.  0.
         12    1    1    2    0    0 -0.42846886554E+02  0.25159974392E+01 -0.64371613745E+01  0.43400725536E+02  0.00000000000E+00 0. -1.
         11    1    3    3    0    0  0.44060254554E+01 -0.13653356247E+01 -0.29062810697E+01  0.54519420026E+01  0.51100000000E-03 0. -1.
        -11    1    3    3    0    0  0.13497659859E+02 -0.74700660354E+01  0.51551200152E+01  0.16265422554E+02  0.51100000000E-03 0.  1.
         12    1    3    3    0    0  0.24943201240E+02  0.63194042210E+01  0.41883224290E+01  0.26069909907E+02  0.00000000000E+00 0. -1.
</event>
<event>
 7    1  0.2339217E-009  0.4778727E+02  0.7816164E-02  0.1312668E+00
        -11   -1    0    0    0    0  0.00000000000E+00  0.00000000000E+00  0.45593999997E+02  0.45594000000E+02  0.51100000000E-03 0.  1.
         11   -1    0    0    0    0 -0.00000000000E+00 -0.00000000000E+00 -0.45593999997E+02  0.45594000000E+02  0.51100000000E-03 0. -1.
    9900012    2    1    2    0    0  0.17611608511E+02  0.29780384217E+01  0.39554845471E+02  0.47787271118E+02  0.20000000337E+02 0.  0.
         12    1    1    2    0    0 -0.17611608511E+02 -0.29780384217E+01 -0.39554845471E+02  0.43400728882E+02  0.00000000000E+00 0. -1.
         11    1    3    3    0    0  0.51160994141E+01  0.16008649999E+01  0.77801108912E+01  0.94481409654E+01  0.51100000000E-03 0. -1.
        -11    1    3    3    0    0  0.50396056855E+01 -0.59609885984E+01  0.24188088952E+02  0.25416424964E+02  0.51100000000E-03 0.  1.
        -12    1    3    3    0    0  0.74559034115E+01  0.73381620203E+01  0.75866456283E+01  0.12922705189E+02  0.00000000000E+00 0.  1.
</event>
<event>
 7    1  0.2339217E-009  0.4778724E+02  0.7816164E-02  0.1312668E+00
        -11   -1    0    0    0    0  0.00000000000E+00  0.00000000000E+00  0.45593999997E+02  0.45594000000E+02  0.51100000000E-03 0. -1.
         11   -1    0    0    0    0 -0.00000000000E+00 -0.00000000000E+00 -0.45593999997E+02  0.45594000000E+02  0.51100000000E-03 0.  1.
    9900012    2    1    2    0    0  0.82433351850E+01 -0.32288393879E+02 -0.27805271736E+02  0.47787238594E+02  0.19999852046E+02 0.  0.
         12    1    1    2    0    0 -0.82433351850E+01  0.32288393879E+02  0.27805271736E+02  0.43400761406E+02  0.00000000000E+00 0. -1.
         11    1    3    3    0    0 -0.37781272909E+01 -0.72800115028E+01 -0.80069587732E+01  0.11462294812E+02  0.51100000000E-03 0. -1.
        -11    1    3    3    0    0  0.47478040286E+01 -0.16826208190E+02 -0.18241734681E+02  0.25267049879E+02  0.51100000000E-03 0.  1.
         12    1    3    3    0    0  0.72736584474E+01 -0.81821741862E+01 -0.15565782821E+01  0.11057893903E+02  0.00000000000E+00 0. -1.
</event>
<event>
 7    1  0.2339217E-009  0.4778724E+02  0.7816164E-02  0.1312668E+00
        -11   -1    0    0    0    0  0.00000000000E+00  0.00000000000E+00  0.45593999997E+02  0.45594000000E+02  0.51100000000E-03 0.  1.
         11   -1    0    0    0    0 -0.00000000000E+00 -0.00000000000E+00 -0.45593999997E+02  0.45594000000E+02  0.51100000000E-03 0. -1.
    9900012    2    1    2    0    0 -0.22559551254E+02  0.36419623118E+01  0.36897540399E+02  0.47787242751E+02  0.19999870998E+02 0.  0.
         12    1    1    2    0    0  0.22559551254E+02 -0.36419623118E+01 -0.36897540399E+02  0.43400757249E+02  0.00000000000E+00 0. -1.
         11    1    3    3    0    0 -0.22672492456E+01  0.34628447355E+01  0.36434945083E+01  0.55142329745E+01  0.51100000000E-03 0. -1.
        -11    1    3    3    0    0 -0.79766567826E+01  0.81133837961E+01  0.12998169716E+02  0.17274445469E+02  0.51100000000E-03 0.  1.
        -12    1    3    3    0    0 -0.12315645226E+02 -0.79342662199E+01  0.20255876176E+02  0.24998564307E+02  0.00000000000E+00 0.  1.
</event>
<event>
 7    1  0.2339217E-009  0.4778728E+02  0.7816164E-02  0.1312668E+00
        -11   -1    0    0    0    0  0.00000000000E+00  0.00000000000E+00  0.45593999997E+02  0.45594000000E+02  0.51100000000E-03 0.  1.
         11   -1    0    0    0    0 -0.00000000000E+00 -0.00000000000E+00 -0.45593999997E+02  0.45594000000E+02  0.51100000000E-03 0. -1.
    9900012    2    1    2    0    0 -0.32691980929E+02 -0.20360046897E+02  0.20008132949E+02  0.47787279835E+02  0.20000040079E+02 0.  0.
         12    1    1    2    0    0  0.32691980929E+02  0.20360046897E+02 -0.20008132949E+02  0.43400720165E+02  0.00000000000E+00 0. -1.
         11    1    3    3    0    0 -0.18084127366E+01 -0.26145583144E+01  0.18808374646E+01  0.36937544091E+01  0.51100000000E-03 0. -1.
        -11    1    3    3    0    0 -0.14795513387E+02 -0.97483777018E+01  0.19161258759E+02  0.26097737865E+02  0.51100000000E-03 0.  1.
         12    1    3    3    0    0 -0.16088054806E+02 -0.79971108808E+01 -0.10339632741E+01  0.17995787561E+02  0.00000000000E+00 0. -1.
</event>
<event>
 7    1  0.2339217E-009  0.4778727E+02  0.7816164E-02  0.1312668E+00
        -11   -1    0    0    0    0  0.00000000000E+00  0.00000000000E+00  0.45593999997E+02  0.45594000000E+02  0.51100000000E-03 0. -1.
         11   -1    0    0    0    0 -0.00000000000E+00 -0.00000000000E+00 -0.45593999997E+02  0.45594000000E+02  0.51100000000E-03 0.  1.
    9900012    2    1    2    0    0  0.87658257136E-01 -0.29400785023E+02 -0.31925061246E+02  0.47787269828E+02  0.19999994454E+02 0.  0.
         12    1    1    2    0    0 -0.87658257136E-01  0.29400785023E+02  0.31925061246E+02  0.43400730172E+02  0.00000000000E+00 0. -1.
         11    1    3    3    0    0  0.31332776090E+01 -0.38595664007E+00 -0.38172738113E+01  0.49535816048E+01  0.51100000000E-03 0. -1.
        -11    1    3    3    0    0 -0.23773239418E-01 -0.14193981016E+02 -0.46768327561E+01  0.14944645433E+02  0.51100000000E-03 0.  1.
        -12    1    3    3    0    0 -0.30218461125E+01 -0.14820847367E+02 -0.23430954678E+02  0.27889042790E+02  0.00000000000E+00 0.  1.
</event>
<event>
 7    1  0.2339217E-009  0.4778727E+02  0.7816164E-02  0.1312668E+00
        -11   -1    0    0    0    0  0.00000000000E+00  0.00000000000E+00  0.45593999997E+02  0.45594000000E+02  0.51100000000E-03 0.  1.
         11   -1    0    0    0    0 -0.00000000000E+00 -0.00000000000E+00 -0.45593999997E+02  0.45594000000E+02  0.51100000000E-03 0. -1.
    9900012    2    1    2    0    0  0.23461844512E+02  0.82819864731E+01  0.35560847180E+02  0.47787270744E+02  0.19999998629E+02 0.  0.
         12    1    1    2    0    0 -0.23461844512E+02 -0.82819864731E+01 -0.35560847180E+02  0.43400729256E+02  0.00000000000E+00 0. -1.
         11    1    3    3    0    0  0.31096060229E+00 -0.17270757885E+01  0.11502473369E+02  0.11635565356E+02  0.51100000000E-03 0. -1.
        -11    1    3    3    0    0  0.14909608859E+02  0.13504467392E+01  0.12176298928E+02  0.19297212197E+02  0.51100000000E-03 0.  1.
        -12    1    3    3    0    0  0.82412750504E+01  0.86586155224E+01  0.11882074882E+02  0.16854493191E+02  0.00000000000E+00 0.  1.
</event>
<event>
 7    1  0.2339217E-009  0.4778727E+02  0.7816164E-02  0.1312668E+00
        -11   -1    0    0    0    0  0.00000000000E+00  0.00000000000E+00  0.45593999997E+02  0.45594000000E+02  0.51100000000E-03 0.  1.
         11   -1    0    0    0    0 -0.00000000000E+00 -0.00000000000E+00 -0.45593999997E+02  0.45594000000E+02  0.51100000000E-03 0. -1.
    9900012    2    1    2    0    0  0.45491888952E+01 -0.28304450846E+02  0.32585056040E+02  0.47787274955E+02  0.20000017831E+02 0.  0.
         12    1    1    2    0    0 -0.45491888952E+01  0.28304450846E+02 -0.32585056040E+02  0.43400725045E+02  0.00000000000E+00 0. -1.
         11    1    3    3    0    0  0.63598895051E+01 -0.17068567315E+02  0.17281202327E+02  0.25108248423E+02  0.51100000000E-03 0. -1.
        -11    1    3    3    0    0  0.19303953487E+01 -0.11377502579E+02  0.68171833953E+01  0.13403282466E+02  0.51100000000E-03 0.  1.
        -12    1    3    3    0    0 -0.37410959586E+01  0.14161904863E+00  0.84866703169E+01  0.92757440668E+01  0.00000000000E+00 0.  1.
</event>
<event>
 7    1  0.2339217E-009  0.4778727E+02  0.7816164E-02  0.1312668E+00
        -11   -1    0    0    0    0  0.00000000000E+00  0.00000000000E+00  0.45593999997E+02  0.45594000000E+02  0.51100000000E-03 0. -1.
         11   -1    0    0    0    0 -0.00000000000E+00 -0.00000000000E+00 -0.45593999997E+02  0.45594000000E+02  0.51100000000E-03 0.  1.
    9900012    2    1    2    0    0 -0.39514381582E+02 -0.17410072594E+02 -0.43733579904E+01  0.47787271439E+02  0.20000001797E+02 0.  0.
         12    1    1    2    0    0  0.39514381582E+02  0.17410072594E+02  0.43733579904E+01  0.43400728561E+02  0.00000000000E+00 0. -1.
         11    1    3    3    0    0 -0.13744087163E+02 -0.10908601924E+02 -0.24230461754E+01  0.17713516899E+02  0.51100000000E-03 0. -1.
        -11    1    3    3    0    0 -0.18681085250E+02 -0.10925885632E+02 -0.17925805623E+01  0.21715691752E+02  0.51100000000E-03 0.  1.
         12    1    3    3    0    0 -0.70892091693E+01  0.44244149626E+01 -0.15773125265E+00  0.83580627873E+01  0.00000000000E+00 0. -1.
</event>
<event>
 7    1  0.2339217E-009  0.4778727E+02  0.7816164E-02  0.1312668E+00
        -11   -1    0    0    0    0  0.00000000000E+00  0.00000000000E+00  0.45593999997E+02  0.45594000000E+02  0.51100000000E-03 0.  1.
         11   -1    0    0    0    0 -0.00000000000E+00 -0.00000000000E+00 -0.45593999997E+02  0.45594000000E+02  0.51100000000E-03 0. -1.
    9900012    2    1    2    0    0 -0.30181593199E+02 -0.13967421785E+02  0.27885588790E+02  0.47787268421E+02  0.19999988041E+02 0.  0.
         12    1    1    2    0    0  0.30181593199E+02  0.13967421785E+02 -0.27885588790E+02  0.43400731579E+02  0.00000000000E+00 0. -1.
         11    1    3    3    0    0 -0.55804655636E+01  0.29286662173E+01  0.39296434812E+01  0.74270303533E+01  0.51100000000E-03 0. -1.
        -11    1    3    3    0    0 -0.14293242015E+02 -0.21462528669E+01  0.11584296506E+02  0.18522934283E+02  0.51100000000E-03 0.  1.
        -12    1    3    3    0    0 -0.10307885621E+02 -0.14749835135E+02  0.12371648803E+02  0.21837303785E+02  0.00000000000E+00 0.  1.
</event>
<event>
 7    1  0.2339217E-009  0.4778727E+02  0.7816164E-02  0.1312668E+00
        -11   -1    0    0    0    0  0.00000000000E+00  0.00000000000E+00  0.45593999997E+02  0.45594000000E+02  0.51100000000E-03 0.  1.
         11   -1    0    0    0    0 -0.00000000000E+00 -0.00000000000E+00 -0.45593999997E+02  0.45594000000E+02  0.51100000000E-03 0. -1.
    9900012    2    1    2    0    0  0.66086231732E+01 -0.20998510650E+02  0.37403369491E+02  0.47787269603E+02  0.19999993426E+02 0.  0.
         12    1    1    2    0    0 -0.66086231732E+01  0.20998510650E+02 -0.37403369491E+02  0.43400730397E+02  0.00000000000E+00 0. -1.
         11    1    3    3    0    0  0.47099399102E+00  0.32689352388E+01  0.20368826892E+01  0.38802917784E+01  0.51100000000E-03 0. -1.
        -11    1    3    3    0    0 -0.13185040032E+01 -0.70842678977E+01  0.11444759123E+02  0.13524341614E+02  0.51100000000E-03 0.  1.
        -12    1    3    3    0    0  0.74561331854E+01 -0.17183177991E+02  0.23921727678E+02  0.30382636210E+02  0.00000000000E+00 0.  1.
</event>
<event>
 7    1  0.2339217E-009  0.4778727E+02  0.7816164E-02  0.1312668E+00
        -11   -1    0    0    0    0  0.00000000000E+00  0.00000000000E+00  0.45593999997E+02  0.45594000000E+02  0.51100000000E-03 0. -1.
         11   -1    0    0    0    0 -0.00000000000E+00 -0.00000000000E+00 -0.45593999997E+02  0.45594000000E+02  0.51100000000E-03 0.  1.
    9900012    2    1    2    0    0  0.41393893700E+02  0.11513238060E+02 -0.61330298807E+01  0.47787272566E+02  0.20000006937E+02 0.  0.
         12    1    1    2    0    0 -0.41393893700E+02 -0.11513238060E+02  0.61330298807E+01  0.43400727434E+02  0.00000000000E+00 0. -1.
         11    1    3    3    0    0  0.30199766056E+02 -0.86152806044E+00 -0.15575576912E+01  0.30252174908E+02  0.51100000000E-03 0. -1.
        -11    1    3    3    0    0  0.47295112246E+01  0.33709930570E+01 -0.10366785008E+01  0.58997095851E+01  0.51100000000E-03 0.  1.
         12    1    3    3    0    0  0.64646164200E+01  0.90037730638E+01 -0.35387936888E+01  0.11635388073E+02  0.00000000000E+00 0. -1.
</event>
<event>
 7    1  0.2339217E-009  0.4778727E+02  0.7816164E-02  0.1312668E+00
        -11   -1    0    0    0    0  0.00000000000E+00  0.00000000000E+00  0.45593999997E+02  0.45594000000E+02  0.51100000000E-03 0.  1.
         11   -1    0    0    0    0 -0.00000000000E+00 -0.00000000000E+00 -0.45593999997E+02  0.45594000000E+02  0.51100000000E-03 0. -1.
    9900012    2    1    2    0    0 -0.22368197005E+02  0.68273896758E+01  0.36560548282E+02  0.47787272152E+02  0.20000005050E+02 0.  0.
         12    1    1    2    0    0  0.22368197005E+02 -0.68273896758E+01 -0.36560548282E+02  0.43400727848E+02  0.00000000000E+00 0. -1.
         11    1    3    3    0    0 -0.10777132669E+01  0.63539839726E+01  0.57444715907E+01  0.86332805079E+01  0.51100000000E-03 0. -1.
        -11    1    3    3    0    0  0.10815331656E+01 -0.70630908654E+00  0.40420094364E+01  0.42433980557E+01  0.51100000000E-03 0.  1.
         12    1    3    3    0    0 -0.22372016904E+02  0.11797147897E+01  0.26774067255E+02  0.34910593588E+02  0.00000000000E+00 0. -1.
</event>
<event>
 7    1  0.2339217E-009  0.4778727E+02  0.7816164E-02  0.1312668E+00
        -11   -1    0    0    0    0  0.00000000000E+00  0.00000000000E+00  0.45593999997E+02  0.45594000000E+02  0.51100000000E-03 0.  1.
         11   -1    0    0    0    0 -0.00000000000E+00 -0.00000000000E+00 -0.45593999997E+02  0.45594000000E+02  0.51100000000E-03 0. -1.
    9900012    2    1    2    0    0  0.28742654057E+02  0.24087833634E+02  0.21846267843E+02  0.47787270627E+02  0.19999998099E+02 0.  0.
         12    1    1    2    0    0 -0.28742654057E+02 -0.24087833634E+02 -0.21846267843E+02  0.43400729373E+02  0.00000000000E+00 0. -1.
         11    1    3    3    0    0  0.30194472789E+01  0.26403961299E+01 -0.27113150492E+01  0.48414856346E+01  0.51100000000E-03 0. -1.
        -11    1    3    3    0    0 -0.81075109298E-01  0.39788033921E+01  0.38105995132E+01  0.55098201892E+01  0.51100000000E-03 0.  1.
        -12    1    3    3    0    0  0.25804281887E+02  0.17468634112E+02  0.20746983379E+02  0.37435964804E+02  0.00000000000E+00 0.  1.
</event>
<event>
 7    1  0.2339217E-009  0.4778727E+02  0.7816164E-02  0.1312668E+00
        -11   -1    0    0    0    0  0.00000000000E+00  0.00000000000E+00  0.45593999997E+02  0.45594000000E+02  0.51100000000E-03 0.  1.
         11   -1    0    0    0    0 -0.00000000000E+00 -0.00000000000E+00 -0.45593999997E+02  0.45594000000E+02  0.51100000000E-03 0. -1.
    9900012    2    1    2    0    0  0.11464458926E+02  0.28865822204E+02  0.30314248637E+02  0.47787272121E+02  0.20000004909E+02 0.  0.
         12    1    1    2    0    0 -0.11464458926E+02 -0.28865822204E+02 -0.30314248637E+02  0.43400727879E+02  0.00000000000E+00 0. -1.
         11    1    3    3    0    0  0.12317494927E+01  0.20631416879E+02  0.11572464557E+02  0.23687433492E+02  0.51100000000E-03 0.  1.
        -11    1    3    3    0    0  0.36742469533E+01  0.56761219861E+01  0.14184705821E+02  0.15713826108E+02  0.51100000000E-03 0. -1.
         12    1    3    3    0    0  0.65584624798E+01  0.25582833389E+01  0.45570782592E+01  0.83860125210E+01  0.00000000000E+00 0. -1.
</event>
<event>
 7    1  0.3024345E-009  0.4778728E+02  0.7816164E-02  0.1312668E+00
        -11   -1    0    0    0    0  0.00000000000E+00  0.00000000000E+00  0.45593999997E+02  0.45594000000E+02  0.51100000000E-03 0.  1.
         11   -1    0    0    0    0 -0.00000000000E+00 -0.00000000000E+00 -0.45593999997E+02  0.45594000000E+02  0.51100000000E-03 0. -1.
    9900012    2    1    2    0    0 -0.39519613126E+02  0.41875912509E+01  0.17443827053E+02  0.47787275993E+02  0.20000022561E+02 0.  0.
         12    1    1    2    0    0  0.39519613126E+02 -0.41875912509E+01 -0.17443827053E+02  0.43400724007E+02  0.00000000000E+00 0. -1.
         11    1    3    3    0    0  0.39224134526E+00  0.91685714921E-01  0.28790092474E+01  0.29070524679E+01  0.51100000000E-03 0. -1.
        -11    1    3    3    0    0 -0.24389402394E+02  0.20846031158E+00  0.15419413230E+02  0.28855583679E+02  0.51100000000E-03 0.  1.
        -12    1    3    3    0    0 -0.15522452077E+02  0.38874452244E+01 -0.85459542377E+00  0.16024639846E+02  0.00000000000E+00 0.  1.
</event>
<event>
 7    1  0.2339217E-009  0.4778728E+02  0.7816164E-02  0.1312668E+00
        -11   -1    0    0    0    0  0.00000000000E+00  0.00000000000E+00  0.45593999997E+02  0.45594000000E+02  0.51100000000E-03 0. -1.
         11   -1    0    0    0    0 -0.00000000000E+00 -0.00000000000E+00 -0.45593999997E+02  0.45594000000E+02  0.51100000000E-03 0.  1.
    9900012    2    1    2    0    0  0.24824582599E+02  0.26821702945E+02  0.23408528790E+02  0.47787275695E+02  0.20000021203E+02 0.  0.
         12    1    1    2    0    0 -0.24824582599E+02 -0.26821702945E+02 -0.23408528790E+02  0.43400724305E+02  0.00000000000E+00 0. -1.
         11    1    3    3    0    0  0.15315870492E+02  0.12063867126E+02  0.10081371779E+02  0.21948731995E+02  0.51100000000E-03 0. -1.
        -11    1    3    3    0    0  0.31464978987E+01  0.13005925895E+01 -0.24141461445E+01  0.41737383696E+01  0.51100000000E-03 0.  1.
         12    1    3    3    0    0  0.63622142086E+01  0.13457243230E+02  0.15741303155E+02  0.21664805331E+02  0.00000000000E+00 0. -1.
</event>
<event>
 7    1  0.2339217E-009  0.4778727E+02  0.7816164E-02  0.1312668E+00
        -11   -1    0    0    0    0  0.00000000000E+00  0.00000000000E+00  0.45593999997E+02  0.45594000000E+02  0.51100000000E-03 0. -1.
         11   -1    0    0    0    0 -0.00000000000E+00 -0.00000000000E+00 -0.45593999997E+02  0.45594000000E+02  0.51100000000E-03 0.  1.
    9900012    2    1    2    0    0 -0.42787879871E+02  0.56211823732E+01  0.46068553941E+01  0.47787268765E+02  0.19999989606E+02 0.  0.
         12    1    1    2    0    0  0.42787879871E+02 -0.56211823732E+01 -0.46068553941E+01  0.43400731235E+02  0.00000000000E+00 0. -1.
         11    1    3    3    0    0 -0.35436551616E+01 -0.12253846085E+01  0.51892686172E+00  0.37852800018E+01  0.51100000000E-03 0. -1.
        -11    1    3    3    0    0 -0.14791122841E+00 -0.23065855316E+01  0.30606960664E+01  0.38353715880E+01  0.51100000000E-03 0.  1.
        -12    1    3    3    0    0 -0.39096313481E+02  0.91531525133E+01  0.10272324660E+01  0.40166617175E+02  0.00000000000E+00 0.  1.
</event>
<event>
 7    1  0.2339217E-009  0.4778727E+02  0.7816164E-02  0.1312668E+00
        -11   -1    0    0    0    0  0.00000000000E+00  0.00000000000E+00  0.45593999997E+02  0.45594000000E+02  0.51100000000E-03 0.  1.
         11   -1    0    0    0    0 -0.00000000000E+00 -0.00000000000E+00 -0.45593999997E+02  0.45594000000E+02  0.51100000000E-03 0. -1.
    9900012    2    1    2    0    0 -0.56214901099E+01  0.29414488081E+01  0.42934485387E+02  0.47787270656E+02  0.19999998228E+02 0.  0.
         12    1    1    2    0    0  0.56214901099E+01 -0.29414488081E+01 -0.42934485387E+02  0.43400729344E+02  0.00000000000E+00 0. -1.
         11    1    3    3    0    0 -0.22355720114E+01 -0.46716426514E+01  0.13474563140E+02  0.14435576863E+02  0.51100000000E-03 0. -1.
        -11    1    3    3    0    0 -0.62543981793E+01 -0.10355817455E+01  0.96427057039E+01  0.11540004319E+02  0.51100000000E-03 0.  1.
        -12    1    3    3    0    0  0.28684800808E+01  0.86486732051E+01  0.19817216543E+02  0.21811689474E+02  0.00000000000E+00 0.  1.
</event>
<event>
 7    1  0.2339217E-009  0.4778727E+02  0.7816164E-02  0.1312668E+00
        -11   -1    0    0    0    0  0.00000000000E+00  0.00000000000E+00  0.45593999997E+02  0.45594000000E+02  0.51100000000E-03 0.  1.
         11   -1    0    0    0    0 -0.00000000000E+00 -0.00000000000E+00 -0.45593999997E+02  0.45594000000E+02  0.51100000000E-03 0. -1.
    9900012    2    1    2    0    0  0.14428327856E+02  0.97809069799E+01  0.39746452870E+02  0.47787270723E+02  0.19999998534E+02 0.  0.
         12    1    1    2    0    0 -0.14428327856E+02 -0.97809069799E+01 -0.39746452870E+02  0.43400729277E+02  0.00000000000E+00 0. -1.
         11    1    3    3    0    0 -0.36114484260E+01  0.14279799235E+01  0.55354066499E+01  0.67618350642E+01  0.51100000000E-03 0. -1.
        -11    1    3    3    0    0  0.39660514376E+01  0.68896338910E+00  0.99629295646E+00  0.41469066150E+01  0.51100000000E-03 0.  1.
        -12    1    3    3    0    0  0.14073724844E+02  0.76639636673E+01  0.33214753263E+02  0.36878529044E+02  0.00000000000E+00 0.  1.
</event>
<event>
 7    1  0.2339217E-009  0.4778727E+02  0.7816164E-02  0.1312668E+00
        -11   -1    0    0    0    0  0.00000000000E+00  0.00000000000E+00  0.45593999997E+02  0.45594000000E+02  0.51100000000E-03 0.  1.
         11   -1    0    0    0    0 -0.00000000000E+00 -0.00000000000E+00 -0.45593999997E+02  0.45594000000E+02  0.51100000000E-03 0. -1.
    9900012    2    1    2    0    0 -0.33226670700E+01  0.42323423616E+02  0.90172642527E+01  0.47787270079E+02  0.19999995600E+02 0.  0.
         12    1    1    2    0    0  0.33226670700E+01 -0.42323423616E+02 -0.90172642527E+01  0.43400729921E+02  0.00000000000E+00 0. -1.
         11    1    3    3    0    0 -0.94328681397E+00 -0.89926389420E-01  0.12717571561E+01  0.15859518575E+01  0.51100000000E-03 0. -1.
        -11    1    3    3    0    0 -0.91928595745E+01  0.20645777030E+02  0.20549161861E+01  0.22693158818E+02  0.51100000000E-03 0.  1.
         12    1    3    3    0    0  0.68134793185E+01  0.21767572975E+02  0.56905909105E+01  0.23508159404E+02  0.00000000000E+00 0. -1.
</event>
<event>
 7    1  0.2339217E-009  0.4778729E+02  0.7816164E-02  0.1312668E+00
        -11   -1    0    0    0    0  0.00000000000E+00  0.00000000000E+00  0.45593999997E+02  0.45594000000E+02  0.51100000000E-03 0. -1.
         11   -1    0    0    0    0 -0.00000000000E+00 -0.00000000000E+00 -0.45593999997E+02  0.45594000000E+02  0.51100000000E-03 0.  1.
    9900012    2    1    2    0    0  0.99110360338E+01  0.40727024343E+02 -0.11256229404E+02  0.47787287477E+02  0.20000074922E+02 0.  0.
         12    1    1    2    0    0 -0.99110360338E+01 -0.40727024343E+02  0.11256229404E+02  0.43400712523E+02  0.00000000000E+00 0. -1.
         11    1    3    3    0    0  0.33263916971E+00  0.23498808918E+02 -0.99670457247E+01  0.25527370999E+02  0.51100000000E-03 0. -1.
        -11    1    3    3    0    0  0.30071208604E+01  0.14247946849E+02  0.12386714612E+01  0.14614413178E+02  0.51100000000E-03 0.  1.
        -12    1    3    3    0    0  0.65712760037E+01  0.29802685764E+01 -0.25278551405E+01  0.76455033003E+01  0.00000000000E+00 0.  1.
</event>
<event>
 7    1  0.2339217E-009  0.4778724E+02  0.7816164E-02  0.1312668E+00
        -11   -1    0    0    0    0  0.00000000000E+00  0.00000000000E+00  0.45593999997E+02  0.45594000000E+02  0.51100000000E-03 0.  1.
         11   -1    0    0    0    0 -0.00000000000E+00 -0.00000000000E+00 -0.45593999997E+02  0.45594000000E+02  0.51100000000E-03 0. -1.
    9900012    2    1    2    0    0 -0.12490927231E+02 -0.96308729941E+01  0.40433261543E+02  0.47787244053E+02  0.19999876935E+02 0.  0.
         12    1    1    2    0    0  0.12490927231E+02  0.96308729941E+01 -0.40433261543E+02  0.43400755947E+02  0.00000000000E+00 0. -1.
         11    1    3    3    0    0 -0.73614137834E-01  0.19211766603E+01  0.43237884533E+01  0.47319642487E+01  0.51100000000E-03 0. -1.
        -11    1    3    3    0    0 -0.11192491925E+02 -0.81813894905E+01  0.11018107566E+02  0.17708915949E+02  0.51100000000E-03 0.  1.
        -12    1    3    3    0    0 -0.12248211684E+01 -0.33706601639E+01  0.25091365524E+02  0.25346363855E+02  0.00000000000E+00 0.  1.
</event>
<event>
 7    1  0.2339217E-009  0.4778727E+02  0.7816164E-02  0.1312668E+00
        -11   -1    0    0    0    0  0.00000000000E+00  0.00000000000E+00  0.45593999997E+02  0.45594000000E+02  0.51100000000E-03 0.  1.
         11   -1    0    0    0    0 -0.00000000000E+00 -0.00000000000E+00 -0.45593999997E+02  0.45594000000E+02  0.51100000000E-03 0. -1.
    9900012    2    1    2    0    0 -0.17717669503E+02  0.13810803396E+02  0.37134474698E+02  0.47787270581E+02  0.19999997886E+02 0.  0.
         12    1    1    2    0    0  0.17717669503E+02 -0.13810803396E+02 -0.37134474698E+02  0.43400729419E+02  0.00000000000E+00 0. -1.
         11    1    3    3    0    0  0.76961323803E-01  0.69835759363E+00 -0.13773686543E+01  0.15462118370E+01  0.51100000000E-03 0. -1.
        -11    1    3    3    0    0 -0.88164564313E+00  0.78234684743E+01  0.12009245131E+02  0.14359872105E+02  0.51100000000E-03 0.  1.
        -12    1    3    3    0    0 -0.16912985183E+02  0.52889773279E+01  0.26502598221E+02  0.31881186638E+02  0.00000000000E+00 0.  1.
</event>
<event>
 7    1  0.2339217E-009  0.4778727E+02  0.7816164E-02  0.1312668E+00
        -11   -1    0    0    0    0  0.00000000000E+00  0.00000000000E+00  0.45593999997E+02  0.45594000000E+02  0.51100000000E-03 0. -1.
         11   -1    0    0    0    0 -0.00000000000E+00 -0.00000000000E+00 -0.45593999997E+02  0.45594000000E+02  0.51100000000E-03 0.  1.
    9900012    2    1    2    0    0 -0.21972936483E+01  0.28696057404E+02 -0.32485869440E+02  0.47787268172E+02  0.19999986905E+02 0.  0.
         12    1    1    2    0    0  0.21972936483E+01 -0.28696057404E+02  0.32485869440E+02  0.43400731828E+02  0.00000000000E+00 0. -1.
         11    1    3    3    0    0  0.18340468036E+01  0.48337370503E+01 -0.57203944656E+00  0.52015354405E+01  0.51100000000E-03 0. -1.
        -11    1    3    3    0    0 -0.62489867306E+01  0.13655579119E+02 -0.92676987496E+01  0.17646952049E+02  0.51100000000E-03 0.  1.
        -12    1    3    3    0    0  0.22176462787E+01  0.10206741234E+02 -0.22646131244E+02  0.24938780683E+02  0.00000000000E+00 0.  1.
</event>
<event>
 7    1  0.2339217E-009  0.4778727E+02  0.7816164E-02  0.1312668E+00
        -11   -1    0    0    0    0  0.00000000000E+00  0.00000000000E+00  0.45593999997E+02  0.45594000000E+02  0.51100000000E-03 0. -1.
         11   -1    0    0    0    0 -0.00000000000E+00 -0.00000000000E+00 -0.45593999997E+02  0.45594000000E+02  0.51100000000E-03 0.  1.
    9900012    2    1    2    0    0 -0.68424582032E+01 -0.23855931778E+02 -0.35604760255E+02  0.47787266503E+02  0.19999979293E+02 0.  0.
         12    1    1    2    0    0  0.68424582032E+01  0.23855931778E+02  0.35604760255E+02  0.43400733497E+02  0.00000000000E+00 0. -1.
         11    1    3    3    0    0 -0.23505294650E+01 -0.48663242675E+01 -0.63187938745E+00  0.54410819203E+01  0.51100000000E-03 0. -1.
        -11    1    3    3    0    0  0.41259484920E-01  0.20992425317E+01 -0.17417659792E+01  0.27280525177E+01  0.51100000000E-03 0.  1.
         12    1    3    3    0    0 -0.45331882232E+01 -0.21088850042E+02 -0.33231114889E+02  0.39618132065E+02  0.00000000000E+00 0. -1.
</event>
<event>
 7    1  0.2339217E-009  0.4778728E+02  0.7816164E-02  0.1312668E+00
        -11   -1    0    0    0    0  0.00000000000E+00  0.00000000000E+00  0.45593999997E+02  0.45594000000E+02  0.51100000000E-03 0.  1.
         11   -1    0    0    0    0 -0.00000000000E+00 -0.00000000000E+00 -0.45593999997E+02  0.45594000000E+02  0.51100000000E-03 0. -1.
    9900012    2    1    2    0    0  0.42097219450E+02  0.10529667534E+02  0.75690319103E+00  0.47787277814E+02  0.20000030867E+02 0.  0.
         12    1    1    2    0    0 -0.42097219450E+02 -0.10529667534E+02 -0.75690319103E+00  0.43400722186E+02  0.00000000000E+00 0. -1.
         11    1    3    3    0    0  0.59063205425E+01  0.43039462556E+01 -0.90569103960E-01  0.73086783173E+01  0.51100000000E-03 0. -1.
        -11    1    3    3    0    0  0.16899336392E+02  0.11352536836E+02  0.21691612661E+01  0.20473712999E+02  0.51100000000E-03 0.  1.
         12    1    3    3    0    0  0.19291562516E+02 -0.51268155580E+01 -0.13216889712E+01  0.20004886498E+02  0.00000000000E+00 0. -1.
</event>
<event>
 7    1  0.2339217E-009  0.4778727E+02  0.7816164E-02  0.1312668E+00
        -11   -1    0    0    0    0  0.00000000000E+00  0.00000000000E+00  0.45593999997E+02  0.45594000000E+02  0.51100000000E-03 0.  1.
         11   -1    0    0    0    0 -0.00000000000E+00 -0.00000000000E+00 -0.45593999997E+02  0.45594000000E+02  0.51100000000E-03 0. -1.
    9900012    2    1    2    0    0 -0.26963959919E+02 -0.18889299579E+01  0.33955856549E+02  0.47787269766E+02  0.19999994172E+02 0.  0.
         12    1    1    2    0    0  0.26963959919E+02  0.18889299579E+01 -0.33955856549E+02  0.43400730234E+02  0.00000000000E+00 0. -1.
         11    1    3    3    0    0 -0.13843498400E+02 -0.64696726239E+01  0.15587813759E+02  0.21828400075E+02  0.51100000000E-03 0. -1.
        -11    1    3    3    0    0 -0.14165400095E+02  0.54665547356E+00  0.14241393884E+02  0.20094145717E+02  0.51100000000E-03 0.  1.
         12    1    3    3    0    0  0.10449385762E+01  0.40340871924E+01  0.41266489052E+01  0.58647239740E+01  0.00000000000E+00 0. -1.
</event>
<event>
 7    1  0.2339217E-009  0.4778726E+02  0.7816164E-02  0.1312668E+00
        -11   -1    0    0    0    0  0.00000000000E+00  0.00000000000E+00  0.45593999997E+02  0.45594000000E+02  0.51100000000E-03 0.  1.
         11   -1    0    0    0    0 -0.00000000000E+00 -0.00000000000E+00 -0.45593999997E+02  0.45594000000E+02  0.51100000000E-03 0. -1.
    9900012    2    1    2    0    0  0.20617023036E+02  0.70745533759E+01  0.37530162541E+02  0.47787262164E+02  0.19999959513E+02 0.  0.
         12    1    1    2    0    0 -0.20617023036E+02 -0.70745533759E+01 -0.37530162541E+02  0.43400737836E+02  0.00000000000E+00 0. -1.
         11    1    3    3    0    0  0.80128821666E+01 -0.20201803758E+01  0.11250471997E+02  0.13959245316E+02  0.51100000000E-03 0. -1.
        -11    1    3    3    0    0  0.43751367123E+01  0.17834799046E+01  0.21172356806E+02  0.21693116761E+02  0.51100000000E-03 0.  1.
        -12    1    3    3    0    0  0.82290041567E+01  0.73112538471E+01  0.51073337375E+01  0.12134900088E+02  0.00000000000E+00 0.  1.
</event>
<event>
 7    1  0.2339217E-009  0.4778727E+02  0.7816164E-02  0.1312668E+00
        -11   -1    0    0    0    0  0.00000000000E+00  0.00000000000E+00  0.45593999997E+02  0.45594000000E+02  0.51100000000E-03 0. -1.
         11   -1    0    0    0    0 -0.00000000000E+00 -0.00000000000E+00 -0.45593999997E+02  0.45594000000E+02  0.51100000000E-03 0.  1.
    9900012    2    1    2    0    0  0.15898347003E+01  0.15558333409E+02 -0.40484984552E+02  0.47787270893E+02  0.19999999309E+02 0.  0.
         12    1    1    2    0    0 -0.15898347003E+01 -0.15558333409E+02  0.40484984552E+02  0.43400729107E+02  0.00000000000E+00 0. -1.
         11    1    3    3    0    0  0.54955939041E+00  0.40258163600E+01 -0.20116919405E+02  0.20523149356E+02  0.51100000000E-03 0. -1.
        -11    1    3    3    0    0 -0.38557700062E+00  0.63093300521E+01 -0.20889341461E+02  0.21824777256E+02  0.51100000000E-03 0.  1.
         12    1    3    3    0    0  0.14258523105E+01  0.52231869965E+01  0.52127631350E+00  0.54393442810E+01  0.00000000000E+00 0. -1.
</event>
<event>
 7    1  0.2339217E-009  0.4778727E+02  0.7816164E-02  0.1312668E+00
        -11   -1    0    0    0    0  0.00000000000E+00  0.00000000000E+00  0.45593999997E+02  0.45594000000E+02  0.51100000000E-03 0.  1.
         11   -1    0    0    0    0 -0.00000000000E+00 -0.00000000000E+00 -0.45593999997E+02  0.45594000000E+02  0.51100000000E-03 0. -1.
    9900012    2    1    2    0    0  0.10632351742E+02 -0.41306250003E+01  0.41874980175E+02  0.47787274993E+02  0.20000018005E+02 0.  0.
         12    1    1    2    0    0 -0.10632351742E+02  0.41306250003E+01 -0.41874980175E+02  0.43400725007E+02  0.00000000000E+00 0. -1.
         11    1    3    3    0    0  0.21231373218E+00 -0.47829472673E+01  0.69362562245E+01  0.84281262660E+01  0.51100000000E-03 0. -1.
        -11    1    3    3    0    0  0.31963011878E+01 -0.67004378555E+01  0.18765048208E+02  0.20180169555E+02  0.51100000000E-03 0.  1.
        -12    1    3    3    0    0  0.72237368218E+01  0.73527601225E+01  0.16173675742E+02  0.19178979173E+02  0.00000000000E+00 0.  1.
</event>
<event>
 7    1  0.2339217E-009  0.4778727E+02  0.7816164E-02  0.1312668E+00
        -11   -1    0    0    0    0  0.00000000000E+00  0.00000000000E+00  0.45593999997E+02  0.45594000000E+02  0.51100000000E-03 0.  1.
         11   -1    0    0    0    0 -0.00000000000E+00 -0.00000000000E+00 -0.45593999997E+02  0.45594000000E+02  0.51100000000E-03 0. -1.
    9900012    2    1    2    0    0 -0.41524165331E+02  0.59055213413E+01  0.11157607062E+02  0.47787266319E+02  0.19999978454E+02 0.  0.
         12    1    1    2    0    0  0.41524165331E+02 -0.59055213413E+01 -0.11157607062E+02  0.43400733681E+02  0.00000000000E+00 0. -1.
         11    1    3    3    0    0 -0.46273236272E+00  0.15080068657E+01 -0.11580012338E+01  0.19568272957E+01  0.51100000000E-03 0. -1.
        -11    1    3    3    0    0 -0.15556526521E+02  0.75912861634E+00 -0.29962229524E+01  0.15860616189E+02  0.51100000000E-03 0.  1.
        -12    1    3    3    0    0 -0.25504906447E+02  0.36383858593E+01  0.15311831248E+02  0.29969822834E+02  0.00000000000E+00 0.  1.
</event>
<event>
 7    1  0.2339217E-009  0.4778727E+02  0.7816164E-02  0.1312668E+00
        -11   -1    0    0    0    0  0.00000000000E+00  0.00000000000E+00  0.45593999997E+02  0.45594000000E+02  0.51100000000E-03 0.  1.
         11   -1    0    0    0    0 -0.00000000000E+00 -0.00000000000E+00 -0.45593999997E+02  0.45594000000E+02  0.51100000000E-03 0. -1.
    9900012    2    1    2    0    0  0.17860081719E+02  0.34871680056E+02  0.18671011891E+02  0.47787271043E+02  0.19999999994E+02 0.  0.
         12    1    1    2    0    0 -0.17860081719E+02 -0.34871680056E+02 -0.18671011891E+02  0.43400728957E+02  0.00000000000E+00 0. -1.
         11    1    3    3    0    0 -0.90967727918E+00  0.81616755870E+00  0.17194076289E+01  0.21095035178E+01  0.51100000000E-03 0. -1.
        -11    1    3    3    0    0 -0.23432440580E+00  0.10582529680E+02 -0.85170177681E+00  0.10619333244E+02  0.51100000000E-03 0.  1.
         12    1    3    3    0    0  0.19004083404E+02  0.23472982817E+02  0.17803306039E+02  0.35058434282E+02  0.00000000000E+00 0. -1.
</event>
<event>
 7    1  0.2339217E-009  0.4778727E+02  0.7816164E-02  0.1312668E+00
        -11   -1    0    0    0    0  0.00000000000E+00  0.00000000000E+00  0.45593999997E+02  0.45594000000E+02  0.51100000000E-03 0.  1.
         11   -1    0    0    0    0 -0.00000000000E+00 -0.00000000000E+00 -0.45593999997E+02  0.45594000000E+02  0.51100000000E-03 0. -1.
    9900012    2    1    2    0    0  0.34787020174E+02  0.15408152828E+02  0.20882420479E+02  0.47787269232E+02  0.19999991734E+02 0.  0.
         12    1    1    2    0    0 -0.34787020174E+02 -0.15408152828E+02 -0.20882420479E+02  0.43400730768E+02  0.00000000000E+00 0. -1.
         11    1    3    3    0    0  0.13108712796E+01  0.59827624588E+00 -0.11003783962E+01  0.18130501521E+01  0.51100000000E-03 0. -1.
        -11    1    3    3    0    0  0.26795358394E+02  0.14217147565E+02  0.24312215364E+02  0.38874185940E+02  0.51100000000E-03 0.  1.
        -12    1    3    3    0    0  0.66807905005E+01  0.59272901743E+00 -0.23294164888E+01  0.71000331392E+01  0.00000000000E+00 0.  1.
</event>
<event>
 7    1  0.2339217E-009  0.4778727E+02  0.7816164E-02  0.1312668E+00
        -11   -1    0    0    0    0  0.00000000000E+00  0.00000000000E+00  0.45593999997E+02  0.45594000000E+02  0.51100000000E-03 0. -1.
         11   -1    0    0    0    0 -0.00000000000E+00 -0.00000000000E+00 -0.45593999997E+02  0.45594000000E+02  0.51100000000E-03 0.  1.
    9900012    2    1    2    0    0  0.60333329581E+01  0.32605928762E+02 -0.28001349398E+02  0.47787271145E+02  0.20000000460E+02 0.  0.
         12    1    1    2    0    0 -0.60333329581E+01 -0.32605928762E+02  0.28001349398E+02  0.43400728855E+02  0.00000000000E+00 0. -1.
         11    1    3    3    0    0  0.35916411562E+01  0.33723779292E+01 -0.27682113214E+01  0.56511780430E+01  0.51100000000E-03 0. -1.
        -11    1    3    3    0    0  0.79609724288E+01  0.18869555348E+02 -0.96916278652E+01  0.22657556179E+02  0.51100000000E-03 0.  1.
        -12    1    3    3    0    0 -0.55192806268E+01  0.10363995484E+02 -0.15541510211E+02  0.19478536924E+02  0.00000000000E+00 0.  1.
</event>
<event>
 7    1  0.2339217E-009  0.4778727E+02  0.7816164E-02  0.1312668E+00
        -11   -1    0    0    0    0  0.00000000000E+00  0.00000000000E+00  0.45593999997E+02  0.45594000000E+02  0.51100000000E-03 0.  1.
         11   -1    0    0    0    0 -0.00000000000E+00 -0.00000000000E+00 -0.45593999997E+02  0.45594000000E+02  0.51100000000E-03 0. -1.
    9900012    2    1    2    0    0 -0.17035338762E+02  0.73692405288E+01  0.39231549290E+02  0.47787274978E+02  0.20000017937E+02 0.  0.
         12    1    1    2    0    0  0.17035338762E+02 -0.73692405288E+01 -0.39231549290E+02  0.43400725022E+02  0.00000000000E+00 0. -1.
         11    1    3    3    0    0 -0.52421482729E+01 -0.45272649863E+01  0.40645742557E+01  0.80310031075E+01  0.51100000000E-03 0. -1.
        -11    1    3    3    0    0 -0.77966940472E+01  0.57699306413E+01  0.27496238270E+02  0.29156880096E+02  0.51100000000E-03 0.  1.
        -12    1    3    3    0    0 -0.39964964415E+01  0.61265748737E+01  0.76707367643E+01  0.10599391775E+02  0.00000000000E+00 0.  1.
</event>
<event>
 7    1  0.2339217E-009  0.4778727E+02  0.7816164E-02  0.1312668E+00
        -11   -1    0    0    0    0  0.00000000000E+00  0.00000000000E+00  0.45593999997E+02  0.45594000000E+02  0.51100000000E-03 0.  1.
         11   -1    0    0    0    0 -0.00000000000E+00 -0.00000000000E+00 -0.45593999997E+02  0.45594000000E+02  0.51100000000E-03 0. -1.
    9900012    2    1    2    0    0  0.29648678007E+02 -0.52230498634E+00  0.31690795284E+02  0.47787269410E+02  0.19999992546E+02 0.  0.
         12    1    1    2    0    0 -0.29648678007E+02  0.52230498634E+00 -0.31690795284E+02  0.43400730590E+02  0.00000000000E+00 0. -1.
         11    1    3    3    0    0 -0.43577450998E-01  0.29855882374E+01  0.88458797295E+01  0.93362318185E+01  0.51100000000E-03 0. -1.
        -11    1    3    3    0    0  0.12745791517E+02  0.11581999323E+01  0.13266265739E+02  0.18433405421E+02  0.51100000000E-03 0.  1.
         12    1    3    3    0    0  0.16946463940E+02 -0.46660931561E+01  0.95786498151E+01  0.20017632170E+02  0.00000000000E+00 0. -1.
</event>
<event>
 7    1  0.2339217E-009  0.4778727E+02  0.7816164E-02  0.1312668E+00
        -11   -1    0    0    0    0  0.00000000000E+00  0.00000000000E+00  0.45593999997E+02  0.45594000000E+02  0.51100000000E-03 0. -1.
         11   -1    0    0    0    0 -0.00000000000E+00 -0.00000000000E+00 -0.45593999997E+02  0.45594000000E+02  0.51100000000E-03 0.  1.
    9900012    2    1    2    0    0 -0.29050735328E+02 -0.16242497372E+02 -0.27854250654E+02  0.47787271626E+02  0.20000002651E+02 0.  0.
         12    1    1    2    0    0  0.29050735328E+02  0.16242497372E+02  0.27854250654E+02  0.43400728374E+02  0.00000000000E+00 0. -1.
         11    1    3    3    0    0 -0.31677064683E+01 -0.51091828086E+01 -0.10096629535E+02  0.11750746422E+02  0.51100000000E-03 0. -1.
        -11    1    3    3    0    0 -0.64365404028E+01  0.89947924798E-01 -0.10724326787E+02  0.12507930615E+02  0.51100000000E-03 0.  1.
         12    1    3    3    0    0 -0.19446488456E+02 -0.11223262488E+02 -0.70332943317E+01  0.23528594589E+02  0.00000000000E+00 0. -1.
</event>
<event>
 7    1  0.2339217E-009  0.4778727E+02  0.7816164E-02  0.1312668E+00
        -11   -1    0    0    0    0  0.00000000000E+00  0.00000000000E+00  0.45593999997E+02  0.45594000000E+02  0.51100000000E-03 0.  1.
         11   -1    0    0    0    0 -0.00000000000E+00 -0.00000000000E+00 -0.45593999997E+02  0.45594000000E+02  0.51100000000E-03 0. -1.
    9900012    2    1    2    0    0 -0.28868214091E+02 -0.26381804806E+02  0.18821529100E+02  0.47787269968E+02  0.19999995093E+02 0.  0.
         12    1    1    2    0    0  0.28868214091E+02  0.26381804806E+02 -0.18821529100E+02  0.43400730032E+02  0.00000000000E+00 0. -1.
         11    1    3    3    0    0 -0.52726112948E+01 -0.38565124067E+01 -0.17951421686E+01  0.67746330879E+01  0.51100000000E-03 0. -1.
        -11    1    3    3    0    0  0.93246655565E+00  0.75866906936E+00  0.21915637115E+01  0.24996048482E+01  0.51100000000E-03 0.  1.
        -12    1    3    3    0    0 -0.24528069352E+02 -0.23283961469E+02  0.18425107558E+02  0.38513032032E+02  0.00000000000E+00 0.  1.
</event>
<event>
 7    1  0.2339217E-009  0.4778727E+02  0.7816164E-02  0.1312668E+00
        -11   -1    0    0    0    0  0.00000000000E+00  0.00000000000E+00  0.45593999997E+02  0.45594000000E+02  0.51100000000E-03 0. -1.
         11   -1    0    0    0    0 -0.00000000000E+00 -0.00000000000E+00 -0.45593999997E+02  0.45594000000E+02  0.51100000000E-03 0.  1.
    9900012    2    1    2    0    0  0.17675108449E+01  0.53484871854E+01 -0.43033622224E+02  0.47787273606E+02  0.20000011680E+02 0.  0.
         12    1    1    2    0    0 -0.17675108449E+01 -0.53484871854E+01  0.43033622224E+02  0.43400726394E+02  0.00000000000E+00 0. -1.
         11    1    3    3    0    0  0.27463981334E+01  0.37842860301E+00 -0.36212476135E+00  0.27958979807E+01  0.51100000000E-03 0. -1.
        -11    1    3    3    0    0  0.83260957227E+00 -0.31658682355E+01 -0.29560341172E+01  0.44106800323E+01  0.51100000000E-03 0.  1.
        -12    1    3    3    0    0 -0.18114968608E+01  0.81359268179E+01 -0.39715463346E+02  0.40580695593E+02  0.00000000000E+00 0.  1.
</event>
<event>
 7    1  0.2339217E-009  0.4778728E+02  0.7816164E-02  0.1312668E+00
        -11   -1    0    0    0    0  0.00000000000E+00  0.00000000000E+00  0.45593999997E+02  0.45594000000E+02  0.51100000000E-03 0.  1.
         11   -1    0    0    0    0 -0.00000000000E+00 -0.00000000000E+00 -0.45593999997E+02  0.45594000000E+02  0.51100000000E-03 0. -1.
    9900012    2    1    2    0    0  0.19173372049E+02 -0.24875388579E+02  0.29953623823E+02  0.47787277278E+02  0.20000028419E+02 0.  0.
         12    1    1    2    0    0 -0.19173372049E+02  0.24875388579E+02 -0.29953623823E+02  0.43400722722E+02  0.00000000000E+00 0. -1.
         11    1    3    3    0    0  0.12533430463E+02 -0.95795360443E+01  0.12348683547E+02  0.20033581197E+02  0.51100000000E-03 0. -1.
        -11    1    3    3    0    0  0.40691381293E+01 -0.51546913080E+01  0.15835374908E+02  0.17143156837E+02  0.51100000000E-03 0.  1.
         12    1    3    3    0    0  0.25708034573E+01 -0.10141161227E+02  0.17695653682E+01  0.10610539243E+02  0.00000000000E+00 0. -1.
</event>
<event>
 7    1  0.2339217E-009  0.4778727E+02  0.7816164E-02  0.1312668E+00
        -11   -1    0    0    0    0  0.00000000000E+00  0.00000000000E+00  0.45593999997E+02  0.45594000000E+02  0.51100000000E-03 0.  1.
         11   -1    0    0    0    0 -0.00000000000E+00 -0.00000000000E+00 -0.45593999997E+02  0.45594000000E+02  0.51100000000E-03 0. -1.
    9900012    2    1    2    0    0  0.42551589302E+02 -0.78851708340E+01 -0.32877526273E+01  0.47787274332E+02  0.20000014988E+02 0.  0.
         12    1    1    2    0    0 -0.42551589302E+02  0.78851708340E+01  0.32877526273E+01  0.43400725668E+02  0.00000000000E+00 0. -1.
         11    1    3    3    0    0  0.77689438819E+01  0.28927193575E+01  0.18532187980E+01  0.84946297445E+01  0.51100000000E-03 0. -1.
        -11    1    3    3    0    0  0.10870560837E+01  0.18101038332E+01 -0.24319519123E+01  0.32206454603E+01  0.51100000000E-03 0.  1.
        -12    1    3    3    0    0  0.33695589336E+02 -0.12587994025E+02 -0.27090195130E+01  0.36071999127E+02  0.00000000000E+00 0.  1.
</event>
<event>
 7    1  0.2339217E-009  0.4778727E+02  0.7816164E-02  0.1312668E+00
        -11   -1    0    0    0    0  0.00000000000E+00  0.00000000000E+00  0.45593999997E+02  0.45594000000E+02  0.51100000000E-03 0. -1.
         11   -1    0    0    0    0 -0.00000000000E+00 -0.00000000000E+00 -0.45593999997E+02  0.45594000000E+02  0.51100000000E-03 0.  1.
    9900012    2    1    2    0    0 -0.36424293470E+02  0.71566023946E+01 -0.22487264656E+02  0.47787272076E+02  0.20000004703E+02 0.  0.
         12    1    1    2    0    0  0.36424293470E+02 -0.71566023946E+01  0.22487264656E+02  0.43400727924E+02  0.00000000000E+00 0. -1.
         11    1    3    3    0    0 -0.21018413673E+02  0.64024030118E+01 -0.17775764382E+02  0.28262028896E+02  0.51100000000E-03 0. -1.
        -11    1    3    3    0    0 -0.12085350056E+01  0.40934624767E+01 -0.19001399077E+01  0.46719935614E+01  0.51100000000E-03 0.  1.
         12    1    3    3    0    0 -0.14197344791E+02 -0.33392630940E+01 -0.28113603663E+01  0.14853249619E+02  0.00000000000E+00 0. -1.
</event>
<event>
 7    1  0.2339217E-009  0.4778727E+02  0.7816164E-02  0.1312668E+00
        -11   -1    0    0    0    0  0.00000000000E+00  0.00000000000E+00  0.45593999997E+02  0.45594000000E+02  0.51100000000E-03 0.  1.
         11   -1    0    0    0    0 -0.00000000000E+00 -0.00000000000E+00 -0.45593999997E+02  0.45594000000E+02  0.51100000000E-03 0. -1.
    9900012    2    1    2    0    0  0.24846461077E+02  0.20347666132E+02  0.29193309898E+02  0.47787268579E+02  0.19999988759E+02 0.  0.
         12    1    1    2    0    0 -0.24846461077E+02 -0.20347666132E+02 -0.29193309898E+02  0.43400731421E+02  0.00000000000E+00 0. -1.
         11    1    3    3    0    0 -0.15216834426E+01  0.41820160086E+01 -0.29365820037E+00  0.44599342815E+01  0.51100000000E-03 0. -1.
        -11    1    3    3    0    0  0.99991978877E+01  0.71104778185E+01  0.71846603271E+01  0.14218375346E+02  0.51100000000E-03 0.  1.
         12    1    3    3    0    0  0.16368946632E+02  0.90551723046E+01  0.22302307772E+02  0.29108958951E+02  0.00000000000E+00 0. -1.
</event>
<event>
 7    1  0.2339217E-009  0.4778727E+02  0.7816164E-02  0.1312668E+00
        -11   -1    0    0    0    0  0.00000000000E+00  0.00000000000E+00  0.45593999997E+02  0.45594000000E+02  0.51100000000E-03 0.  1.
         11   -1    0    0    0    0 -0.00000000000E+00 -0.00000000000E+00 -0.45593999997E+02  0.45594000000E+02  0.51100000000E-03 0. -1.
    9900012    2    1    2    0    0 -0.31259176635E+02 -0.36351407897E+01  0.29887673742E+02  0.47787269429E+02  0.19999992634E+02 0.  0.
         12    1    1    2    0    0  0.31259176635E+02  0.36351407897E+01 -0.29887673742E+02  0.43400730571E+02  0.00000000000E+00 0. -1.
         11    1    3    3    0    0 -0.17927422771E+00 -0.26368949176E+01  0.17279032346E+01  0.31576896466E+01  0.51100000000E-03 0. -1.
        -11    1    3    3    0    0 -0.31142899393E+02  0.74329679286E+00  0.29117490626E+02  0.42641070969E+02  0.51100000000E-03 0.  1.
        -12    1    3    3    0    0  0.62996986089E-01 -0.17415426650E+01 -0.95772011941E+00  0.19885088135E+01  0.00000000000E+00 0.  1.
</event>
<event>
 7    1  0.2339217E-009  0.4778727E+02  0.7816164E-02  0.1312668E+00
        -11   -1    0    0    0    0  0.00000000000E+00  0.00000000000E+00  0.45593999997E+02  0.45594000000E+02  0.51100000000E-03 0.  1.
         11   -1    0    0    0    0 -0.00000000000E+00 -0.00000000000E+00 -0.45593999997E+02  0.45594000000E+02  0.51100000000E-03 0. -1.
    9900012    2    1    2    0    0  0.23741079259E+02 -0.24247808058E+02  0.27056022922E+02  0.47787269403E+02  0.19999992516E+02 0.  0.
         12    1    1    2    0    0 -0.23741079259E+02  0.24247808058E+02 -0.27056022922E+02  0.43400730597E+02  0.00000000000E+00 0. -1.
         11    1    3    3    0    0  0.42798801024E+01 -0.13294086490E+02  0.75060308823E+01  0.15855302241E+02  0.51100000000E-03 0. -1.
        -11    1    3    3    0    0  0.27590948063E+01 -0.48506037388E+01  0.10703184543E+02  0.12070589066E+02  0.51100000000E-03 0.  1.
        -12    1    3    3    0    0  0.16702104350E+02 -0.61031178291E+01  0.88468074969E+01  0.19861378096E+02  0.00000000000E+00 0.  1.
</event>
<event>
 7    1  0.2339217E-009  0.4778727E+02  0.7816164E-02  0.1312668E+00
        -11   -1    0    0    0    0  0.00000000000E+00  0.00000000000E+00  0.45593999997E+02  0.45594000000E+02  0.51100000000E-03 0.  1.
         11   -1    0    0    0    0 -0.00000000000E+00 -0.00000000000E+00 -0.45593999997E+02  0.45594000000E+02  0.51100000000E-03 0. -1.
    9900012    2    1    2    0    0  0.28151170075E+02 -0.24525972672E+02  0.22127165595E+02  0.47787272248E+02  0.20000005489E+02 0.  0.
         12    1    1    2    0    0 -0.28151170075E+02  0.24525972672E+02 -0.22127165595E+02  0.43400727752E+02  0.00000000000E+00 0. -1.
         11    1    3    3    0    0  0.48794431368E+01 -0.45590772468E+01 -0.23811042563E+01  0.70896973425E+01  0.51100000000E-03 0. -1.
        -11    1    3    3    0    0  0.43538830617E+01 -0.98178495895E+01  0.57164025523E+01  0.12166500182E+02  0.51100000000E-03 0.  1.
        -12    1    3    3    0    0  0.18917843877E+02 -0.10149045836E+02  0.18791867299E+02  0.28531074724E+02  0.00000000000E+00 0.  1.
</event>
<event>
 7    1  0.2339217E-009  0.4778727E+02  0.7816164E-02  0.1312668E+00
        -11   -1    0    0    0    0  0.00000000000E+00  0.00000000000E+00  0.45593999997E+02  0.45594000000E+02  0.51100000000E-03 0.  1.
         11   -1    0    0    0    0 -0.00000000000E+00 -0.00000000000E+00 -0.45593999997E+02  0.45594000000E+02  0.51100000000E-03 0. -1.
    9900012    2    1    2    0    0 -0.36141816933E+02 -0.20627981322E+01  0.23940280420E+02  0.47787273117E+02  0.20000009451E+02 0.  0.
         12    1    1    2    0    0  0.36141816933E+02  0.20627981322E+01 -0.23940280420E+02  0.43400726883E+02  0.00000000000E+00 0. -1.
         11    1    3    3    0    0 -0.10589508209E+01 -0.16039024253E+01 -0.55925233883E+00  0.20016601287E+01  0.51100000000E-03 0. -1.
        -11    1    3    3    0    0 -0.18420920344E+02  0.61545343086E+01  0.18656577929E+02  0.26930958007E+02  0.51100000000E-03 0.  1.
        -12    1    3    3    0    0 -0.16661945768E+02 -0.66134300154E+01  0.58429548300E+01  0.18854654982E+02  0.00000000000E+00 0.  1.
</event>
<event>
 7    1  0.2339217E-009  0.4778727E+02  0.7816164E-02  0.1312668E+00
        -11   -1    0    0    0    0  0.00000000000E+00  0.00000000000E+00  0.45593999997E+02  0.45594000000E+02  0.51100000000E-03 0. -1.
         11   -1    0    0    0    0 -0.00000000000E+00 -0.00000000000E+00 -0.45593999997E+02  0.45594000000E+02  0.51100000000E-03 0.  1.
    9900012    2    1    2    0    0  0.66720696883E+01 -0.60029323792E+01 -0.42462588775E+02  0.47787272396E+02  0.20000006163E+02 0.  0.
         12    1    1    2    0    0 -0.66720696883E+01  0.60029323792E+01  0.42462588775E+02  0.43400727604E+02  0.00000000000E+00 0. -1.
         11    1    3    3    0    0  0.50755240636E+01  0.16796859885E+01 -0.13764471733E+02  0.14766278200E+02  0.51100000000E-03 0. -1.
        -11    1    3    3    0    0  0.62401612082E+01  0.30603454850E+00 -0.17012993754E+02  0.18123885505E+02  0.51100000000E-03 0.  1.
         12    1    3    3    0    0 -0.46436155836E+01 -0.79886529162E+01 -0.11685123287E+02  0.14897108691E+02  0.00000000000E+00 0. -1.
</event>
<event>
 7    1  0.2339217E-009  0.4778728E+02  0.7816164E-02  0.1312668E+00
        -11   -1    0    0    0    0  0.00000000000E+00  0.00000000000E+00  0.45593999997E+02  0.45594000000E+02  0.51100000000E-03 0.  1.
         11   -1    0    0    0    0 -0.00000000000E+00 -0.00000000000E+00 -0.45593999997E+02  0.45594000000E+02  0.51100000000E-03 0. -1.
    9900012    2    1    2    0    0 -0.41651552125E+01  0.39673469088E+02 -0.17096492273E+02  0.47787277478E+02  0.20000029333E+02 0.  0.
         12    1    1    2    0    0  0.41651552125E+01 -0.39673469088E+02  0.17096492273E+02  0.43400722522E+02  0.00000000000E+00 0. -1.
         11    1    3    3    0    0  0.39653433170E+01  0.19856854116E+01 -0.20362398843E+00  0.44394095514E+01  0.51100000000E-03 0. -1.
        -11    1    3    3    0    0  0.15839786203E+01  0.15919203675E+01  0.18074651170E+00  0.22529687722E+01  0.51100000000E-03 0.  1.
        -12    1    3    3    0    0 -0.97144771498E+01  0.36095863309E+02 -0.17073614796E+02  0.41094899154E+02  0.00000000000E+00 0.  1.
</event>
<event>
 7    1  0.2339217E-009  0.4778727E+02  0.7816164E-02  0.1312668E+00
        -11   -1    0    0    0    0  0.00000000000E+00  0.00000000000E+00  0.45593999997E+02  0.45594000000E+02  0.51100000000E-03 0.  1.
         11   -1    0    0    0    0 -0.00000000000E+00 -0.00000000000E+00 -0.45593999997E+02  0.45594000000E+02  0.51100000000E-03 0. -1.
    9900012    2    1    2    0    0  0.15772869075E+02  0.57575050764E+01  0.40021129137E+02  0.47787273728E+02  0.20000012235E+02 0.  0.
         12    1    1    2    0    0 -0.15772869075E+02 -0.57575050764E+01 -0.40021129137E+02  0.43400726272E+02  0.00000000000E+00 0. -1.
         11    1    3    3    0    0 -0.17804624763E+01  0.75828766218E+01  0.14126738385E+02  0.16131794759E+02  0.51100000000E-03 0. -1.
        -11    1    3    3    0    0  0.14362116513E+01 -0.13853048606E+01  0.39425763632E+01  0.44187874021E+01  0.51100000000E-03 0.  1.
         12    1    3    3    0    0  0.16117119900E+02 -0.44006668477E+00  0.21951814388E+02  0.27236691567E+02  0.00000000000E+00 0. -1.
</event>
<event>
 7    1  0.2339217E-009  0.4778727E+02  0.7816164E-02  0.1312668E+00
        -11   -1    0    0    0    0  0.00000000000E+00  0.00000000000E+00  0.45593999997E+02  0.45594000000E+02  0.51100000000E-03 0. -1.
         11   -1    0    0    0    0 -0.00000000000E+00 -0.00000000000E+00 -0.45593999997E+02  0.45594000000E+02  0.51100000000E-03 0.  1.
    9900012    2    1    2    0    0  0.18197922527E+02 -0.28831437648E+02 -0.26855308643E+02  0.47787265174E+02  0.19999973232E+02 0.  0.
         12    1    1    2    0    0 -0.18197922527E+02  0.28831437648E+02  0.26855308643E+02  0.43400734826E+02  0.00000000000E+00 0. -1.
         11    1    3    3    0    0  0.14575911507E+01 -0.73103042615E+01 -0.18875152296E+01  0.76894625535E+01  0.51100000000E-03 0. -1.
        -11    1    3    3    0    0  0.17368551333E+02 -0.23531640473E+02 -0.22897156855E+02  0.37144104122E+02  0.51100000000E-03 0.  1.
         12    1    3    3    0    0 -0.62821995652E+00  0.20105070864E+01 -0.20706365585E+01  0.29536984977E+01  0.00000000000E+00 0. -1.
</event>
<event>
 7    1  0.2339217E-009  0.4778727E+02  0.7816164E-02  0.1312668E+00
        -11   -1    0    0    0    0  0.00000000000E+00  0.00000000000E+00  0.45593999997E+02  0.45594000000E+02  0.51100000000E-03 0. -1.
         11   -1    0    0    0    0 -0.00000000000E+00 -0.00000000000E+00 -0.45593999997E+02  0.45594000000E+02  0.51100000000E-03 0.  1.
    9900012    2    1    2    0    0 -0.14114424316E+02 -0.35715679648E+02 -0.20218719726E+02  0.47787269893E+02  0.19999994749E+02 0.  0.
         12    1    1    2    0    0  0.14114424316E+02  0.35715679648E+02  0.20218719726E+02  0.43400730107E+02  0.00000000000E+00 0. -1.
         11    1    3    3    0    0 -0.40960656669E+01  0.10908717087E+01 -0.33415107685E+01  0.53975410614E+01  0.51100000000E-03 0. -1.
        -11    1    3    3    0    0 -0.62187624378E-01 -0.73748390747E+01 -0.83404204929E+00  0.74221119016E+01  0.51100000000E-03 0.  1.
         12    1    3    3    0    0 -0.99561710246E+01 -0.29431712282E+02 -0.16043166909E+02  0.34967616930E+02  0.00000000000E+00 0. -1.
</event>
<event>
 7    1  0.2339217E-009  0.4778727E+02  0.7816164E-02  0.1312668E+00
        -11   -1    0    0    0    0  0.00000000000E+00  0.00000000000E+00  0.45593999997E+02  0.45594000000E+02  0.51100000000E-03 0. -1.
         11   -1    0    0    0    0 -0.00000000000E+00 -0.00000000000E+00 -0.45593999997E+02  0.45594000000E+02  0.51100000000E-03 0.  1.
    9900012    2    1    2    0    0 -0.29742429711E+02 -0.28136467409E+02  0.14399674849E+02  0.47787267758E+02  0.19999985015E+02 0.  0.
         12    1    1    2    0    0  0.29742429711E+02  0.28136467409E+02 -0.14399674849E+02  0.43400732242E+02  0.00000000000E+00 0. -1.
         11    1    3    3    0    0 -0.18878254854E+02 -0.18747548520E+02  0.13130043767E+02  0.29669127581E+02  0.51100000000E-03 0. -1.
        -11    1    3    3    0    0 -0.11250370652E+02 -0.11159060431E+02 -0.10100572639E+00  0.15846314143E+02  0.51100000000E-03 0.  1.
         12    1    3    3    0    0  0.38619579428E+00  0.17701415413E+01  0.13706368086E+01  0.22718260340E+01  0.00000000000E+00 0. -1.
</event>
<event>
 7    1  0.2339217E-009  0.4778727E+02  0.7816164E-02  0.1312668E+00
        -11   -1    0    0    0    0  0.00000000000E+00  0.00000000000E+00  0.45593999997E+02  0.45594000000E+02  0.51100000000E-03 0.  1.
         11   -1    0    0    0    0 -0.00000000000E+00 -0.00000000000E+00 -0.45593999997E+02  0.45594000000E+02  0.51100000000E-03 0. -1.
    9900012    2    1    2    0    0  0.32772905347E+02  0.53596005786E+01  0.27943424061E+02  0.47787267385E+02  0.19999983315E+02 0.  0.
         12    1    1    2    0    0 -0.32772905347E+02 -0.53596005786E+01 -0.27943424061E+02  0.43400732615E+02  0.00000000000E+00 0. -1.
         11    1    3    3    0    0  0.22716296948E+01 -0.16667399898E+01  0.45487680574E+01  0.53506648900E+01  0.51100000000E-03 0. -1.
        -11    1    3    3    0    0  0.67379810049E+01 -0.50868811766E+01  0.80491689692E+01  0.11664727579E+02  0.51100000000E-03 0.  1.
         12    1    3    3    0    0  0.23763294648E+02  0.12113221745E+02  0.15345487034E+02  0.30771874916E+02  0.00000000000E+00 0. -1.
</event>
<event>
 7    1  0.2339217E-009  0.4778727E+02  0.7816164E-02  0.1312668E+00
        -11   -1    0    0    0    0  0.00000000000E+00  0.00000000000E+00  0.45593999997E+02  0.45594000000E+02  0.51100000000E-03 0.  1.
         11   -1    0    0    0    0 -0.00000000000E+00 -0.00000000000E+00 -0.45593999997E+02  0.45594000000E+02  0.51100000000E-03 0. -1.
    9900012    2    1    2    0    0 -0.22611882548E+02 -0.30723916322E+02  0.20697033234E+02  0.47787269002E+02  0.19999990686E+02 0.  0.
         12    1    1    2    0    0  0.22611882548E+02  0.30723916322E+02 -0.20697033234E+02  0.43400730998E+02  0.00000000000E+00 0. -1.
         11    1    3    3    0    0  0.12700101749E+01 -0.32815959966E+01 -0.52489381330E+00  0.35577116108E+01  0.51100000000E-03 0. -1.
        -11    1    3    3    0    0 -0.12482740171E+02 -0.17970327195E+02  0.53728124065E+01  0.22530392254E+02  0.51100000000E-03 0.  1.
         12    1    3    3    0    0 -0.11399152551E+02 -0.94719931299E+01  0.15849114641E+02  0.21699165137E+02  0.00000000000E+00 0. -1.
</event>
<event>
 7    1  0.2575747E-009  0.4778726E+02  0.7816164E-02  0.1312668E+00
        -11   -1    0    0    0    0  0.00000000000E+00  0.00000000000E+00  0.45593999997E+02  0.45594000000E+02  0.51100000000E-03 0. -1.
         11   -1    0    0    0    0 -0.00000000000E+00 -0.00000000000E+00 -0.45593999997E+02  0.45594000000E+02  0.51100000000E-03 0.  1.
    9900012    2    1    2    0    0 -0.25637440653E+02  0.30238290218E+02 -0.17663278273E+02  0.47787263164E+02  0.19999964071E+02 0.  0.
         12    1    1    2    0    0  0.25637440653E+02 -0.30238290218E+02  0.17663278273E+02  0.43400736836E+02  0.00000000000E+00 0. -1.
         11    1    3    3    0    0 -0.55399779710E+01  0.31415741460E+01  0.21140956351E+01  0.67104578570E+01  0.51100000000E-03 0.  1.
        -11    1    3    3    0    0 -0.81727573741E+01  0.31599428499E+01 -0.79653123902E+01  0.11841680778E+02  0.51100000000E-03 0. -1.
        -12    1    3    3    0    0 -0.11924705308E+02  0.23936773222E+02 -0.11812061518E+02  0.29235124530E+02  0.00000000000E+00 0.  1.
</event>
<event>
 7    1  0.2339217E-009  0.4778727E+02  0.7816164E-02  0.1312668E+00
        -11   -1    0    0    0    0  0.00000000000E+00  0.00000000000E+00  0.45593999997E+02  0.45594000000E+02  0.51100000000E-03 0.  1.
         11   -1    0    0    0    0 -0.00000000000E+00 -0.00000000000E+00 -0.45593999997E+02  0.45594000000E+02  0.51100000000E-03 0. -1.
    9900012    2    1    2    0    0  0.82901567571E+01 -0.10886560387E+02  0.41187128053E+02  0.47787269438E+02  0.19999992674E+02 0.  0.
         12    1    1    2    0    0 -0.82901567571E+01  0.10886560387E+02 -0.41187128053E+02  0.43400730562E+02  0.00000000000E+00 0. -1.
         11    1    3    3    0    0  0.35074536915E+01  0.31631308685E+01  0.13532972634E+02  0.14333491440E+02  0.51100000000E-03 0.  1.
        -11    1    3    3    0    0  0.67949087203E+01 -0.14121141677E+02  0.27197462671E+02  0.31389160594E+02  0.51100000000E-03 0. -1.
         12    1    3    3    0    0 -0.20122056547E+01  0.71450421960E-01  0.45669274846E+00  0.20646174043E+01  0.00000000000E+00 0. -1.
</event>
<event>
 7    1  0.2339217E-009  0.4778728E+02  0.7816164E-02  0.1312668E+00
        -11   -1    0    0    0    0  0.00000000000E+00  0.00000000000E+00  0.45593999997E+02  0.45594000000E+02  0.51100000000E-03 0.  1.
         11   -1    0    0    0    0 -0.00000000000E+00 -0.00000000000E+00 -0.45593999997E+02  0.45594000000E+02  0.51100000000E-03 0. -1.
    9900012    2    1    2    0    0 -0.22390856156E+02  0.12504752899E+02  0.35012897936E+02  0.47787282191E+02  0.20000050823E+02 0.  0.
         12    1    1    2    0    0  0.22390856156E+02 -0.12504752899E+02 -0.35012897936E+02  0.43400717809E+02  0.00000000000E+00 0. -1.
         11    1    3    3    0    0  0.44934838259E+00  0.56197996294E-01  0.44219204024E+01  0.44450480864E+01  0.51100000000E-03 0. -1.
        -11    1    3    3    0    0 -0.10719193499E+02 -0.11926036163E+01  0.18619221706E+02  0.21517407600E+02  0.51100000000E-03 0.  1.
        -12    1    3    3    0    0 -0.12121011039E+02  0.13641158519E+02  0.11971755828E+02  0.21824826504E+02  0.00000000000E+00 0.  1.
</event>
<event>
 7    1  0.2339217E-009  0.4778727E+02  0.7816164E-02  0.1312668E+00
        -11   -1    0    0    0    0  0.00000000000E+00  0.00000000000E+00  0.45593999997E+02  0.45594000000E+02  0.51100000000E-03 0.  1.
         11   -1    0    0    0    0 -0.00000000000E+00 -0.00000000000E+00 -0.45593999997E+02  0.45594000000E+02  0.51100000000E-03 0. -1.
    9900012    2    1    2    0    0 -0.39512500170E+01 -0.36687177354E+02  0.22848671955E+02  0.47787272252E+02  0.20000005507E+02 0.  0.
         12    1    1    2    0    0  0.39512500170E+01  0.36687177354E+02 -0.22848671955E+02  0.43400727748E+02  0.00000000000E+00 0. -1.
         11    1    3    3    0    0 -0.34797132836E+01 -0.11804660932E+02  0.61484112563E+01  0.13757230299E+02  0.51100000000E-03 0. -1.
        -11    1    3    3    0    0 -0.29543964958E+01 -0.24918431066E+02  0.18316832317E+02  0.31067072791E+02  0.51100000000E-03 0.  1.
         12    1    3    3    0    0  0.24828597624E+01  0.35914643526E-01 -0.16165716177E+01  0.29629691623E+01  0.00000000000E+00 0. -1.
</event>
<event>
 7    1  0.2339217E-009  0.4778727E+02  0.7816164E-02  0.1312668E+00
        -11   -1    0    0    0    0  0.00000000000E+00  0.00000000000E+00  0.45593999997E+02  0.45594000000E+02  0.51100000000E-03 0.  1.
         11   -1    0    0    0    0 -0.00000000000E+00 -0.00000000000E+00 -0.45593999997E+02  0.45594000000E+02  0.51100000000E-03 0. -1.
    9900012    2    1    2    0    0  0.34616327852E+01  0.44465833625E+01  0.43033336886E+02  0.47787273178E+02  0.20000009728E+02 0.  0.
         12    1    1    2    0    0 -0.34616327852E+01 -0.44465833625E+01 -0.43033336886E+02  0.43400726822E+02  0.00000000000E+00 0. -1.
         11    1    3    3    0    0  0.50963402356E+01  0.45869517277E+01  0.20612440268E+02  0.21722925770E+02  0.51100000000E-03 0. -1.
        -11    1    3    3    0    0  0.53813783732E+01 -0.10953909045E+01  0.57458451222E+01  0.79481979630E+01  0.51100000000E-03 0.  1.
         12    1    3    3    0    0 -0.70160858236E+01  0.95502253937E+00  0.16675051496E+02  0.18116149445E+02  0.00000000000E+00 0. -1.
</event>
<event>
 7    1  0.2339217E-009  0.4778727E+02  0.7816164E-02  0.1312668E+00
        -11   -1    0    0    0    0  0.00000000000E+00  0.00000000000E+00  0.45593999997E+02  0.45594000000E+02  0.51100000000E-03 0. -1.
         11   -1    0    0    0    0 -0.00000000000E+00 -0.00000000000E+00 -0.45593999997E+02  0.45594000000E+02  0.51100000000E-03 0.  1.
    9900012    2    1    2    0    0 -0.42874805721E+02 -0.14391833581E+01 -0.65805010076E+01  0.47787271805E+02  0.20000003466E+02 0.  0.
         12    1    1    2    0    0  0.42874805721E+02  0.14391833581E+01  0.65805010076E+01  0.43400728195E+02  0.00000000000E+00 0. -1.
         11    1    3    3    0    0 -0.48479158322E+01  0.58161169054E+01  0.97088991074E+00  0.76336184902E+01  0.51100000000E-03 0. -1.
        -11    1    3    3    0    0 -0.47595659796E+01 -0.35477925146E+01 -0.16783949143E+01  0.61690606895E+01  0.51100000000E-03 0.  1.
        -12    1    3    3    0    0 -0.33267323910E+02 -0.37075077489E+01 -0.58729960040E+01  0.33984592625E+02  0.00000000000E+00 0.  1.
</event>
<event>
 7    1  0.2339217E-009  0.4778727E+02  0.7816164E-02  0.1312668E+00
        -11   -1    0    0    0    0  0.00000000000E+00  0.00000000000E+00  0.45593999997E+02  0.45594000000E+02  0.51100000000E-03 0. -1.
         11   -1    0    0    0    0 -0.00000000000E+00 -0.00000000000E+00 -0.45593999997E+02  0.45594000000E+02  0.51100000000E-03 0.  1.
    9900012    2    1    2    0    0 -0.86787314395E+01 -0.15941969735E+02 -0.39422788841E+02  0.47787273526E+02  0.20000011314E+02 0.  0.
         12    1    1    2    0    0  0.86787314395E+01  0.15941969735E+02  0.39422788841E+02  0.43400726474E+02  0.00000000000E+00 0. -1.
         11    1    3    3    0    0 -0.37046659715E+01 -0.81162890695E+01 -0.21015103922E+02  0.22830534189E+02  0.51100000000E-03 0. -1.
        -11    1    3    3    0    0 -0.75864671399E+01 -0.43485854965E+00 -0.14087175993E+02  0.16006002416E+02  0.51100000000E-03 0.  1.
         12    1    3    3    0    0  0.26124016719E+01 -0.73908221162E+01 -0.43205089259E+01  0.89507369209E+01  0.00000000000E+00 0. -1.
</event>
<event>
 7    1  0.2339217E-009  0.4778727E+02  0.7816164E-02  0.1312668E+00
        -11   -1    0    0    0    0  0.00000000000E+00  0.00000000000E+00  0.45593999997E+02  0.45594000000E+02  0.51100000000E-03 0.  1.
         11   -1    0    0    0    0 -0.00000000000E+00 -0.00000000000E+00 -0.45593999997E+02  0.45594000000E+02  0.51100000000E-03 0. -1.
    9900012    2    1    2    0    0 -0.12418566806E+02 -0.27841459249E+02  0.30891026337E+02  0.47787272324E+02  0.20000005834E+02 0.  0.
         12    1    1    2    0    0  0.12418566806E+02  0.27841459249E+02 -0.30891026337E+02  0.43400727676E+02  0.00000000000E+00 0. -1.
         11    1    3    3    0    0 -0.14647204237E+02 -0.25599071725E+02  0.19935502325E+02  0.35598838722E+02  0.51100000000E-03 0.  1.
        -11    1    3    3    0    0  0.83774194273E+00 -0.33301547887E+01  0.58163670291E+01  0.67543962097E+01  0.51100000000E-03 0. -1.
         12    1    3    3    0    0  0.13908954875E+01  0.10877672652E+01  0.51391569836E+01  0.54340373925E+01  0.00000000000E+00 0. -1.
</event>
<event>
 7    1  0.2339217E-009  0.4778727E+02  0.7816164E-02  0.1312668E+00
        -11   -1    0    0    0    0  0.00000000000E+00  0.00000000000E+00  0.45593999997E+02  0.45594000000E+02  0.51100000000E-03 0.  1.
         11   -1    0    0    0    0 -0.00000000000E+00 -0.00000000000E+00 -0.45593999997E+02  0.45594000000E+02  0.51100000000E-03 0. -1.
    9900012    2    1    2    0    0  0.35727505782E+02  0.15535658532E+02  0.19126208944E+02  0.47787271619E+02  0.20000002619E+02 0.  0.
         12    1    1    2    0    0 -0.35727505782E+02 -0.15535658532E+02 -0.19126208944E+02  0.43400728381E+02  0.00000000000E+00 0. -1.
         11    1    3    3    0    0  0.86756452665E+01  0.44603177596E+01 -0.17174625877E+01  0.99050963300E+01  0.51100000000E-03 0. -1.
        -11    1    3    3    0    0  0.27893442789E+01  0.24845343677E+01 -0.12732975958E+01  0.39464717861E+01  0.51100000000E-03 0.  1.
        -12    1    3    3    0    0  0.24262516237E+02  0.85908064047E+01  0.22116969128E+02  0.33935703503E+02  0.00000000000E+00 0.  1.
</event>
<event>
 7    1  0.2339217E-009  0.4778727E+02  0.7816164E-02  0.1312668E+00
        -11   -1    0    0    0    0  0.00000000000E+00  0.00000000000E+00  0.45593999997E+02  0.45594000000E+02  0.51100000000E-03 0.  1.
         11   -1    0    0    0    0 -0.00000000000E+00 -0.00000000000E+00 -0.45593999997E+02  0.45594000000E+02  0.51100000000E-03 0. -1.
    9900012    2    1    2    0    0 -0.22694935345E+02  0.34333488722E+02  0.13775877809E+02  0.47787270196E+02  0.19999996130E+02 0.  0.
         12    1    1    2    0    0  0.22694935345E+02 -0.34333488722E+02 -0.13775877809E+02  0.43400729804E+02  0.00000000000E+00 0. -1.
         11    1    3    3    0    0 -0.12343255066E+02  0.16595860899E+02  0.93893992205E+01  0.22714298637E+02  0.51100000000E-03 0. -1.
        -11    1    3    3    0    0 -0.12945066229E+02  0.96168141286E+01  0.35035739616E+01  0.16502511458E+02  0.51100000000E-03 0.  1.
         12    1    3    3    0    0  0.25933859505E+01  0.81208136944E+01  0.88290462673E+00  0.85704601001E+01  0.00000000000E+00 0. -1.
</event>
<event>
 7    1  0.2339217E-009  0.4778727E+02  0.7816164E-02  0.1312668E+00
        -11   -1    0    0    0    0  0.00000000000E+00  0.00000000000E+00  0.45593999997E+02  0.45594000000E+02  0.51100000000E-03 0. -1.
         11   -1    0    0    0    0 -0.00000000000E+00 -0.00000000000E+00 -0.45593999997E+02  0.45594000000E+02  0.51100000000E-03 0.  1.
    9900012    2    1    2    0    0  0.42615531871E+02 -0.80893030273E+01  0.14501052879E+01  0.47787272063E+02  0.20000004645E+02 0.  0.
         12    1    1    2    0    0 -0.42615531871E+02  0.80893030273E+01 -0.14501052879E+01  0.43400727937E+02  0.00000000000E+00 0. -1.
         11    1    3    3    0    0  0.98874625239E+01  0.21468813858E+01  0.14737757892E+01  0.10224628609E+02  0.51100000000E-03 0. -1.
        -11    1    3    3    0    0  0.10896101307E+02  0.22779285083E+01  0.44786156972E+01  0.11998832477E+02  0.51100000000E-03 0.  1.
        -12    1    3    3    0    0  0.21831968040E+02 -0.12514112921E+02 -0.45022861985E+01  0.25563810978E+02  0.00000000000E+00 0.  1.
</event>
<event>
 7    1  0.2339217E-009  0.4778729E+02  0.7816164E-02  0.1312668E+00
        -11   -1    0    0    0    0  0.00000000000E+00  0.00000000000E+00  0.45593999997E+02  0.45594000000E+02  0.51100000000E-03 0.  1.
         11   -1    0    0    0    0 -0.00000000000E+00 -0.00000000000E+00 -0.45593999997E+02  0.45594000000E+02  0.51100000000E-03 0. -1.
    9900012    2    1    2    0    0  0.13437777673E+02  0.39043838069E+02  0.13365136230E+02  0.47787285416E+02  0.20000065526E+02 0.  0.
         12    1    1    2    0    0 -0.13437777673E+02 -0.39043838069E+02 -0.13365136230E+02  0.43400714584E+02  0.00000000000E+00 0. -1.
         11    1    3    3    0    0  0.53381965898E+01  0.90876416934E+01 -0.12306711117E+01  0.10611132175E+02  0.51100000000E-03 0. -1.
        -11    1    3    3    0    0  0.65941207899E+00  0.92037548730E+01 -0.21703463258E+01  0.94791524667E+01  0.51100000000E-03 0.  1.
         12    1    3    3    0    0  0.74401690046E+01  0.20752441503E+02  0.16766153667E+02  0.27697000775E+02  0.00000000000E+00 0. -1.
</event>
<event>
 7    1  0.2339217E-009  0.4778727E+02  0.7816164E-02  0.1312668E+00
        -11   -1    0    0    0    0  0.00000000000E+00  0.00000000000E+00  0.45593999997E+02  0.45594000000E+02  0.51100000000E-03 0. -1.
         11   -1    0    0    0    0 -0.00000000000E+00 -0.00000000000E+00 -0.45593999997E+02  0.45594000000E+02  0.51100000000E-03 0.  1.
    9900012    2    1    2    0    0 -0.16689115132E+02  0.36789122299E+02  0.15863699410E+02  0.47787273712E+02  0.20000012161E+02 0.  0.
         12    1    1    2    0    0  0.16689115132E+02 -0.36789122299E+02 -0.15863699410E+02  0.43400726288E+02  0.00000000000E+00 0. -1.
         11    1    3    3    0    0 -0.49907562871E+01  0.16038117635E+01  0.37694558509E+00  0.52556587337E+01  0.51100000000E-03 0. -1.
        -11    1    3    3    0    0 -0.87139811742E+01  0.17373806938E+02  0.14850563227E+02  0.24460618631E+02  0.51100000000E-03 0.  1.
         12    1    3    3    0    0 -0.29843776703E+01  0.17811503598E+02  0.63619059812E+00  0.18070996347E+02  0.00000000000E+00 0. -1.
</event>
<event>
 7    1  0.2339217E-009  0.4778728E+02  0.7816164E-02  0.1312668E+00
        -11   -1    0    0    0    0  0.00000000000E+00  0.00000000000E+00  0.45593999997E+02  0.45594000000E+02  0.51100000000E-03 0. -1.
         11   -1    0    0    0    0 -0.00000000000E+00 -0.00000000000E+00 -0.45593999997E+02  0.45594000000E+02  0.51100000000E-03 0.  1.
    9900012    2    1    2    0    0 -0.36264257064E+02 -0.94357448711E+01  0.21897328703E+02  0.47787278508E+02  0.20000034030E+02 0.  0.
         12    1    1    2    0    0  0.36264257064E+02  0.94357448711E+01 -0.21897328703E+02  0.43400721492E+02  0.00000000000E+00 0. -1.
         11    1    3    3    0    0 -0.28655903292E+01 -0.24014837513E+01  0.43926144959E+01  0.57683441743E+01  0.51100000000E-03 0. -1.
        -11    1    3    3    0    0 -0.31432949423E+02 -0.10332729010E+02  0.18688605447E+02  0.38000783834E+02  0.51100000000E-03 0.  1.
         12    1    3    3    0    0 -0.19657173116E+01  0.32984678898E+01 -0.11838912396E+01  0.40181504994E+01  0.00000000000E+00 0. -1.
</event>
<event>
 7    1  0.2339217E-009  0.4778727E+02  0.7816164E-02  0.1312668E+00
        -11   -1    0    0    0    0  0.00000000000E+00  0.00000000000E+00  0.45593999997E+02  0.45594000000E+02  0.51100000000E-03 0. -1.
         11   -1    0    0    0    0 -0.00000000000E+00 -0.00000000000E+00 -0.45593999997E+02  0.45594000000E+02  0.51100000000E-03 0.  1.
    9900012    2    1    2    0    0 -0.25218195416E+02  0.33958624980E+02  0.97199696512E+01  0.47787269585E+02  0.19999993346E+02 0.  0.
         12    1    1    2    0    0  0.25218195416E+02 -0.33958624980E+02 -0.97199696512E+01  0.43400730415E+02  0.00000000000E+00 0. -1.
         11    1    3    3    0    0 -0.10447020629E+00  0.68399546977E+01  0.63525254230E+01  0.93354418107E+01  0.51100000000E-03 0. -1.
        -11    1    3    3    0    0 -0.11412031667E+01 -0.85686487044E+00 -0.18592956291E+00  0.14391428481E+01  0.51100000000E-03 0.  1.
        -12    1    3    3    0    0 -0.23972522043E+02  0.27975535152E+02  0.35533737911E+01  0.37012684926E+02  0.00000000000E+00 0.  1.
</event>
<event>
 7    1  0.2339217E-009  0.4778727E+02  0.7816164E-02  0.1312668E+00
        -11   -1    0    0    0    0  0.00000000000E+00  0.00000000000E+00  0.45593999997E+02  0.45594000000E+02  0.51100000000E-03 0.  1.
         11   -1    0    0    0    0 -0.00000000000E+00 -0.00000000000E+00 -0.45593999997E+02  0.45594000000E+02  0.51100000000E-03 0. -1.
    9900012    2    1    2    0    0 -0.21771657152E+02 -0.32733152502E+01  0.37401917536E+02  0.47787273241E+02  0.20000010013E+02 0.  0.
         12    1    1    2    0    0  0.21771657152E+02  0.32733152502E+01 -0.37401917536E+02  0.43400726759E+02  0.00000000000E+00 0. -1.
         11    1    3    3    0    0 -0.86960739896E+01  0.13989033486E+01  0.51108759378E+01  0.10183304303E+02  0.51100000000E-03 0. -1.
        -11    1    3    3    0    0 -0.13526240084E+02 -0.70578926777E+01  0.20436728722E+02  0.25503586041E+02  0.51100000000E-03 0.  1.
         12    1    3    3    0    0  0.45065692127E+00  0.23856740789E+01  0.11854312876E+02  0.12100382897E+02  0.00000000000E+00 0. -1.
</event>
<event>
 7    1  0.2339217E-009  0.4778723E+02  0.7816164E-02  0.1312668E+00
        -11   -1    0    0    0    0  0.00000000000E+00  0.00000000000E+00  0.45593999997E+02  0.45594000000E+02  0.51100000000E-03 0.  1.
         11   -1    0    0    0    0 -0.00000000000E+00 -0.00000000000E+00 -0.45593999997E+02  0.45594000000E+02  0.51100000000E-03 0. -1.
    9900012    2    1    2    0    0 -0.20722752736E+02  0.34708462335E+02  0.15796119478E+02  0.47787225477E+02  0.19999792237E+02 0.  0.
         12    1    1    2    0    0  0.20722752736E+02 -0.34708462335E+02 -0.15796119478E+02  0.43400774523E+02  0.00000000000E+00 0. -1.
         11    1    3    3    0    0 -0.29971703057E+01  0.15151641108E+01 -0.12954763692E+01  0.35995848939E+01  0.51100000000E-03 0. -1.
        -11    1    3    3    0    0 -0.75380239345E+01  0.32298166160E+01 -0.38721804387E-01  0.82009157934E+01  0.51100000000E-03 0.  1.
        -12    1    3    3    0    0 -0.10187558496E+02  0.29963481609E+02  0.17130317652E+02  0.35986724789E+02  0.00000000000E+00 0.  1.
</event>
<event>
 7    1  0.2339217E-009  0.4778727E+02  0.7816164E-02  0.1312668E+00
        -11   -1    0    0    0    0  0.00000000000E+00  0.00000000000E+00  0.45593999997E+02  0.45594000000E+02  0.51100000000E-03 0.  1.
         11   -1    0    0    0    0 -0.00000000000E+00 -0.00000000000E+00 -0.45593999997E+02  0.45594000000E+02  0.51100000000E-03 0. -1.
    9900012    2    1    2    0    0  0.29864920849E+02  0.27740633289E+02  0.14905263120E+02  0.47787273032E+02  0.20000009064E+02 0.  0.
         12    1    1    2    0    0 -0.29864920849E+02 -0.27740633289E+02 -0.14905263120E+02  0.43400726968E+02  0.00000000000E+00 0. -1.
         11    1    3    3    0    0 -0.62290484895E+00 -0.26859845500E+00  0.14477225243E+01  0.15987671342E+01  0.51100000000E-03 0. -1.
        -11    1    3    3    0    0  0.66152230097E+01 -0.79849099748E+00  0.32137613782E+01  0.73977716779E+01  0.51100000000E-03 0.  1.
        -12    1    3    3    0    0  0.23872602688E+02  0.28807722742E+02  0.10243779218E+02  0.38790734220E+02  0.00000000000E+00 0.  1.
</event>
<event>
 7    1  0.2339217E-009  0.4778727E+02  0.7816164E-02  0.1312668E+00
        -11   -1    0    0    0    0  0.00000000000E+00  0.00000000000E+00  0.45593999997E+02  0.45594000000E+02  0.51100000000E-03 0.  1.
         11   -1    0    0    0    0 -0.00000000000E+00 -0.00000000000E+00 -0.45593999997E+02  0.45594000000E+02  0.51100000000E-03 0. -1.
    9900012    2    1    2    0    0  0.32749254361E+01  0.24224365982E+02  0.35861932061E+02  0.47787271723E+02  0.20000003092E+02 0.  0.
         12    1    1    2    0    0 -0.32749254361E+01 -0.24224365982E+02 -0.35861932061E+02  0.43400728277E+02  0.00000000000E+00 0. -1.
         11    1    3    3    0    0  0.14855068186E+01 -0.86808354257E+00  0.31037978541E+01  0.35487830204E+01  0.51100000000E-03 0. -1.
        -11    1    3    3    0    0  0.68448886988E+00  0.16182954005E+02  0.31161692051E+02  0.35119902863E+02  0.51100000000E-03 0.  1.
        -12    1    3    3    0    0  0.11049297476E+01  0.89094955194E+01  0.15964421561E+01  0.91185858396E+01  0.00000000000E+00 0.  1.
</event>
<event>
 7    1  0.2393309E-009  0.4778728E+02  0.7816164E-02  0.1312668E+00
        -11   -1    0    0    0    0  0.00000000000E+00  0.00000000000E+00  0.45593999997E+02  0.45594000000E+02  0.51100000000E-03 0.  1.
         11   -1    0    0    0    0 -0.00000000000E+00 -0.00000000000E+00 -0.45593999997E+02  0.45594000000E+02  0.51100000000E-03 0. -1.
    9900012    2    1    2    0    0 -0.39822636249E+02  0.11487867735E+02  0.12876681981E+02  0.47787281092E+02  0.20000045809E+02 0.  0.
         12    1    1    2    0    0  0.39822636249E+02 -0.11487867735E+02 -0.12876681981E+02  0.43400718908E+02  0.00000000000E+00 0. -1.
         11    1    3    3    0    0 -0.11398844298E+02 -0.26862389255E+01  0.19197154338E+01  0.11867385495E+02  0.51100000000E-03 0. -1.
        -11    1    3    3    0    0 -0.18187158174E+01  0.30336195284E+01 -0.22548472125E+01  0.41946288132E+01  0.51100000000E-03 0.  1.
        -12    1    3    3    0    0 -0.26605076134E+02  0.11140487132E+02  0.13211813760E+02  0.31725266783E+02  0.00000000000E+00 0.  1.
</event>
<event>
 7    1  0.2339217E-009  0.4778724E+02  0.7816164E-02  0.1312668E+00
        -11   -1    0    0    0    0  0.00000000000E+00  0.00000000000E+00  0.45593999997E+02  0.45594000000E+02  0.51100000000E-03 0. -1.
         11   -1    0    0    0    0 -0.00000000000E+00 -0.00000000000E+00 -0.45593999997E+02  0.45594000000E+02  0.51100000000E-03 0.  1.
    9900012    2    1    2    0    0  0.16179705707E+01 -0.42724055551E+02 -0.74608004317E+01  0.47787236244E+02  0.19999841331E+02 0.  0.
         12    1    1    2    0    0 -0.16179705707E+01  0.42724055551E+02  0.74608004317E+01  0.43400763756E+02  0.00000000000E+00 0. -1.
         11    1    3    3    0    0 -0.40649184420E+01 -0.13505199468E+02 -0.28444425690E+01  0.14387662367E+02  0.51100000000E-03 0. -1.
        -11    1    3    3    0    0 -0.43199817627E+01 -0.51976294438E+01  0.84737669455E+00  0.68114346352E+01  0.51100000000E-03 0.  1.
         12    1    3    3    0    0  0.10002870775E+02 -0.24021226639E+02 -0.54637345573E+01  0.26588139241E+02  0.00000000000E+00 0. -1.
</event>
<event>
 7    1  0.2339217E-009  0.4778726E+02  0.7816164E-02  0.1312668E+00
        -11   -1    0    0    0    0  0.00000000000E+00  0.00000000000E+00  0.45593999997E+02  0.45594000000E+02  0.51100000000E-03 0. -1.
         11   -1    0    0    0    0 -0.00000000000E+00 -0.00000000000E+00 -0.45593999997E+02  0.45594000000E+02  0.51100000000E-03 0.  1.
    9900012    2    1    2    0    0 -0.24235390375E+02 -0.31032816459E+02 -0.18254697591E+02  0.47787264659E+02  0.19999970887E+02 0.  0.
         12    1    1    2    0    0  0.24235390375E+02  0.31032816459E+02  0.18254697591E+02  0.43400735341E+02  0.00000000000E+00 0. -1.
         11    1    3    3    0    0  0.81054238208E+00 -0.70066091537E+01 -0.46783593073E+01  0.84638405500E+01  0.51100000000E-03 0. -1.
        -11    1    3    3    0    0 -0.46529419600E+01 -0.24420507559E+01 -0.72643140580E+01  0.89656979523E+01  0.51100000000E-03 0.  1.
        -12    1    3    3    0    0 -0.20392990797E+02 -0.21584156549E+02 -0.63120242253E+01  0.30357726157E+02  0.00000000000E+00 0.  1.
</event>
<event>
 7    1  0.2339217E-009  0.4778727E+02  0.7816164E-02  0.1312668E+00
        -11   -1    0    0    0    0  0.00000000000E+00  0.00000000000E+00  0.45593999997E+02  0.45594000000E+02  0.51100000000E-03 0.  1.
         11   -1    0    0    0    0 -0.00000000000E+00 -0.00000000000E+00 -0.45593999997E+02  0.45594000000E+02  0.51100000000E-03 0. -1.
    9900012    2    1    2    0    0 -0.10329262879E+02  0.42083581192E+02 -0.24293024393E+01  0.47787274339E+02  0.20000015023E+02 0.  0.
         12    1    1    2    0    0  0.10329262879E+02 -0.42083581192E+02  0.24293024393E+01  0.43400725661E+02  0.00000000000E+00 0. -1.
         11    1    3    3    0    0 -0.82370401009E+00  0.13912914740E+02 -0.17760997989E+01  0.14049989880E+02  0.51100000000E-03 0. -1.
        -11    1    3    3    0    0 -0.11976248913E+02  0.27109227790E+02 -0.34744698005E+01  0.29839784015E+02  0.51100000000E-03 0.  1.
         12    1    3    3    0    0  0.24706900445E+01  0.10614386613E+01  0.28212671601E+01  0.38975004446E+01  0.00000000000E+00 0. -1.
</event>
<event>
 7    1  0.2339217E-009  0.4778727E+02  0.7816164E-02  0.1312668E+00
        -11   -1    0    0    0    0  0.00000000000E+00  0.00000000000E+00  0.45593999997E+02  0.45594000000E+02  0.51100000000E-03 0. -1.
         11   -1    0    0    0    0 -0.00000000000E+00 -0.00000000000E+00 -0.45593999997E+02  0.45594000000E+02  0.51100000000E-03 0.  1.
    9900012    2    1    2    0    0 -0.39523934077E+02  0.87603769413E+01 -0.15644095638E+02  0.47787270773E+02  0.19999998764E+02 0.  0.
         12    1    1    2    0    0  0.39523934077E+02 -0.87603769413E+01  0.15644095638E+02  0.43400729227E+02  0.00000000000E+00 0. -1.
         11    1    3    3    0    0 -0.53224057220E+01  0.44693803211E+01 -0.18774359877E+01  0.71991755968E+01  0.51100000000E-03 0. -1.
        -11    1    3    3    0    0 -0.46480526066E+01 -0.50961651023E+01 -0.44571475321E+01  0.82122747255E+01  0.51100000000E-03 0.  1.
        -12    1    3    3    0    0 -0.29553475748E+02  0.93871617224E+01 -0.93095121186E+01  0.32375820451E+02  0.00000000000E+00 0.  1.
</event>
<event>
 7    1  0.2339217E-009  0.4778727E+02  0.7816164E-02  0.1312668E+00
        -11   -1    0    0    0    0  0.00000000000E+00  0.00000000000E+00  0.45593999997E+02  0.45594000000E+02  0.51100000000E-03 0.  1.
         11   -1    0    0    0    0 -0.00000000000E+00 -0.00000000000E+00 -0.45593999997E+02  0.45594000000E+02  0.51100000000E-03 0. -1.
    9900012    2    1    2    0    0  0.33713337799E+02  0.27331646549E+02 -0.12261745519E+00  0.47787273236E+02  0.20000009991E+02 0.  0.
         12    1    1    2    0    0 -0.33713337799E+02 -0.27331646549E+02  0.12261745519E+00  0.43400726764E+02  0.00000000000E+00 0. -1.
         11    1    3    3    0    0  0.50780310626E+01  0.42309596446E+01 -0.58858869778E+01  0.88504850016E+01  0.51100000000E-03 0. -1.
        -11    1    3    3    0    0  0.15084374268E+02  0.80250466100E+01 -0.20575081484E+01  0.17209679259E+02  0.51100000000E-03 0.  1.
        -12    1    3    3    0    0  0.13550932469E+02  0.15075640294E+02  0.78207776711E+01  0.21727108976E+02  0.00000000000E+00 0.  1.
</event>
<event>
 7    1  0.2339217E-009  0.4778727E+02  0.7816164E-02  0.1312668E+00
        -11   -1    0    0    0    0  0.00000000000E+00  0.00000000000E+00  0.45593999997E+02  0.45594000000E+02  0.51100000000E-03 0. -1.
         11   -1    0    0    0    0 -0.00000000000E+00 -0.00000000000E+00 -0.45593999997E+02  0.45594000000E+02  0.51100000000E-03 0.  1.
    9900012    2    1    2    0    0  0.13366758539E+02 -0.14388008994E+02 -0.38703207088E+02  0.47787271025E+02  0.19999999910E+02 0.  0.
         12    1    1    2    0    0 -0.13366758539E+02  0.14388008994E+02  0.38703207088E+02  0.43400728975E+02  0.00000000000E+00 0. -1.
         11    1    3    3    0    0  0.53762608841E+01  0.47014181004E+00 -0.65434788128E+01  0.84818824355E+01  0.51100000000E-03 0. -1.
        -11    1    3    3    0    0  0.59427257261E+01 -0.97829845300E+01 -0.66981087832E+01  0.13262256102E+02  0.51100000000E-03 0.  1.
        -12    1    3    3    0    0  0.20477719286E+01 -0.50751662744E+01 -0.25461619493E+02  0.26043132488E+02  0.00000000000E+00 0.  1.
</event>
<event>
 7    1  0.2339217E-009  0.4778727E+02  0.7816164E-02  0.1312668E+00
        -11   -1    0    0    0    0  0.00000000000E+00  0.00000000000E+00  0.45593999997E+02  0.45594000000E+02  0.51100000000E-03 0. -1.
         11   -1    0    0    0    0 -0.00000000000E+00 -0.00000000000E+00 -0.45593999997E+02  0.45594000000E+02  0.51100000000E-03 0.  1.
    9900012    2    1    2    0    0 -0.35130890184E+01 -0.41173414828E+02 -0.13267678606E+02  0.47787272142E+02  0.20000005004E+02 0.  0.
         12    1    1    2    0    0  0.35130890184E+01  0.41173414828E+02  0.13267678606E+02  0.43400727858E+02  0.00000000000E+00 0. -1.
         11    1    3    3    0    0 -0.30966604902E+01 -0.11211179100E+02  0.26230927048E+01  0.11923106080E+02  0.51100000000E-03 0. -1.
        -11    1    3    3    0    0  0.11040054408E+01 -0.20127602957E+02 -0.43436193313E+01  0.20620530012E+02  0.51100000000E-03 0.  1.
         12    1    3    3    0    0 -0.15204339690E+01 -0.98346327705E+01 -0.11547151979E+02  0.15243636050E+02  0.00000000000E+00 0. -1.
</event>
<event>
 7    1  0.2339217E-009  0.4778728E+02  0.7816164E-02  0.1312668E+00
        -11   -1    0    0    0    0  0.00000000000E+00  0.00000000000E+00  0.45593999997E+02  0.45594000000E+02  0.51100000000E-03 0. -1.
         11   -1    0    0    0    0 -0.00000000000E+00 -0.00000000000E+00 -0.45593999997E+02  0.45594000000E+02  0.51100000000E-03 0.  1.
    9900012    2    1    2    0    0  0.28403869714E+02  0.73980257180E+01 -0.31970486798E+02  0.47787278516E+02  0.20000034065E+02 0.  0.
         12    1    1    2    0    0 -0.28403869714E+02 -0.73980257180E+01  0.31970486798E+02  0.43400721484E+02  0.00000000000E+00 0. -1.
         11    1    3    3    0    0  0.11447334422E+02  0.59270540110E+00 -0.76199789483E+01  0.13764332330E+02  0.51100000000E-03 0. -1.
        -11    1    3    3    0    0  0.50879804539E+01 -0.32869130472E+01 -0.14174945469E+02  0.15414941511E+02  0.51100000000E-03 0.  1.
         12    1    3    3    0    0  0.11868554839E+02  0.10092233364E+02 -0.10175562381E+02  0.18608004675E+02  0.00000000000E+00 0. -1.
</event>
<event>
 7    1  0.2339217E-009  0.4778727E+02  0.7816164E-02  0.1312668E+00
        -11   -1    0    0    0    0  0.00000000000E+00  0.00000000000E+00  0.45593999997E+02  0.45594000000E+02  0.51100000000E-03 0. -1.
         11   -1    0    0    0    0 -0.00000000000E+00 -0.00000000000E+00 -0.45593999997E+02  0.45594000000E+02  0.51100000000E-03 0.  1.
    9900012    2    1    2    0    0  0.29707542636E+02  0.13182604098E+02 -0.28762894911E+02  0.47787271159E+02  0.20000000522E+02 0.  0.
         12    1    1    2    0    0 -0.29707542636E+02 -0.13182604098E+02  0.28762894911E+02  0.43400728841E+02  0.00000000000E+00 0. -1.
         11    1    3    3    0    0  0.17907584422E+02 -0.51364474201E+00 -0.14032932207E+02  0.22756726420E+02  0.51100000000E-03 0. -1.
        -11    1    3    3    0    0  0.99669186369E+01  0.66886506124E+01 -0.52527243735E+01  0.13102237509E+02  0.51100000000E-03 0.  1.
         12    1    3    3    0    0  0.18330395770E+01  0.70075982277E+01 -0.94772383300E+01  0.11928307230E+02  0.00000000000E+00 0. -1.
</event>
<event>
 7    1  0.2339217E-009  0.4778727E+02  0.7816164E-02  0.1312668E+00
        -11   -1    0    0    0    0  0.00000000000E+00  0.00000000000E+00  0.45593999997E+02  0.45594000000E+02  0.51100000000E-03 0.  1.
         11   -1    0    0    0    0 -0.00000000000E+00 -0.00000000000E+00 -0.45593999997E+02  0.45594000000E+02  0.51100000000E-03 0. -1.
    9900012    2    1    2    0    0 -0.88670616002E+01 -0.19022849360E+02  0.37988542933E+02  0.47787274506E+02  0.20000015784E+02 0.  0.
         12    1    1    2    0    0  0.88670616002E+01  0.19022849360E+02 -0.37988542933E+02  0.43400725494E+02  0.00000000000E+00 0. -1.
         11    1    3    3    0    0 -0.54007292511E+01  0.98314462380E+00  0.11726608340E+02  0.12947887596E+02  0.51100000000E-03 0. -1.
        -11    1    3    3    0    0 -0.37367634246E+01 -0.92769486589E+01  0.20132818313E+02  0.22480114564E+02  0.51100000000E-03 0.  1.
         12    1    3    3    0    0  0.27043107542E+00 -0.10729045325E+02  0.61291162807E+01  0.12359272346E+02  0.00000000000E+00 0. -1.
</event>
<event>
 7    1  0.2339217E-009  0.4778727E+02  0.7816164E-02  0.1312668E+00
        -11   -1    0    0    0    0  0.00000000000E+00  0.00000000000E+00  0.45593999997E+02  0.45594000000E+02  0.51100000000E-03 0.  1.
         11   -1    0    0    0    0 -0.00000000000E+00 -0.00000000000E+00 -0.45593999997E+02  0.45594000000E+02  0.51100000000E-03 0. -1.
    9900012    2    1    2    0    0  0.31130211440E+02  0.13110399153E+02  0.27251613137E+02  0.47787273637E+02  0.20000011820E+02 0.  0.
         12    1    1    2    0    0 -0.31130211440E+02 -0.13110399153E+02 -0.27251613137E+02  0.43400726363E+02  0.00000000000E+00 0. -1.
         11    1    3    3    0    0  0.78047240950E+01  0.55219854965E+01  0.12994606534E+02  0.16132756778E+02  0.51100000000E-03 0. -1.
        -11    1    3    3    0    0  0.51108956827E+01  0.53800260086E+01  0.10610132448E+02  0.12947619293E+02  0.51100000000E-03 0.  1.
         12    1    3    3    0    0  0.18214591662E+02  0.22083876484E+01  0.36468741550E+01  0.18706897566E+02  0.00000000000E+00 0. -1.
</event>
<event>
 7    1  0.2339217E-009  0.4778727E+02  0.7816164E-02  0.1312668E+00
        -11   -1    0    0    0    0  0.00000000000E+00  0.00000000000E+00  0.45593999997E+02  0.45594000000E+02  0.51100000000E-03 0.  1.
         11   -1    0    0    0    0 -0.00000000000E+00 -0.00000000000E+00 -0.45593999997E+02  0.45594000000E+02  0.51100000000E-03 0. -1.
    9900012    2    1    2    0    0 -0.19525360603E+02  0.35771016498E+02  0.14927088187E+02  0.47787270862E+02  0.19999999167E+02 0.  0.
         12    1    1    2    0    0  0.19525360603E+02 -0.35771016498E+02 -0.14927088187E+02  0.43400729138E+02  0.00000000000E+00 0. -1.
         11    1    3    3    0    0  0.79461048281E+00  0.68818700097E+01 -0.12021722351E+01  0.70311278608E+01  0.51100000000E-03 0. -1.
        -11    1    3    3    0    0 -0.63124273946E+01  0.19384122308E+01  0.56632353946E+00  0.66275866046E+01  0.51100000000E-03 0.  1.
        -12    1    3    3    0    0 -0.14007543691E+02  0.26950734257E+02  0.15562936883E+02  0.34128556396E+02  0.00000000000E+00 0.  1.
</event>
<event>
 7    1  0.2339217E-009  0.4778727E+02  0.7816164E-02  0.1312668E+00
        -11   -1    0    0    0    0  0.00000000000E+00  0.00000000000E+00  0.45593999997E+02  0.45594000000E+02  0.51100000000E-03 0.  1.
         11   -1    0    0    0    0 -0.00000000000E+00 -0.00000000000E+00 -0.45593999997E+02  0.45594000000E+02  0.51100000000E-03 0. -1.
    9900012    2    1    2    0    0  0.11551619730E+02  0.60998198098E+01  0.41388108956E+02  0.47787270938E+02  0.19999999516E+02 0.  0.
         12    1    1    2    0    0 -0.11551619730E+02 -0.60998198098E+01 -0.41388108956E+02  0.43400729062E+02  0.00000000000E+00 0. -1.
         11    1    3    3    0    0 -0.28908527487E-01 -0.11955893394E+01 -0.10028633210E+01  0.15607705383E+01  0.51100000000E-03 0. -1.
        -11    1    3    3    0    0  0.57535911882E+01 -0.14466989324E+01  0.63706161464E+01  0.87052570157E+01  0.51100000000E-03 0.  1.
        -12    1    3    3    0    0  0.58269370696E+01  0.87421080816E+01  0.36020356131E+02  0.37521243384E+02  0.00000000000E+00 0.  1.
</event>
<event>
 7    1  0.2339217E-009  0.4778727E+02  0.7816164E-02  0.1312668E+00
        -11   -1    0    0    0    0  0.00000000000E+00  0.00000000000E+00  0.45593999997E+02  0.45594000000E+02  0.51100000000E-03 0.  1.
         11   -1    0    0    0    0 -0.00000000000E+00 -0.00000000000E+00 -0.45593999997E+02  0.45594000000E+02  0.51100000000E-03 0. -1.
    9900012    2    1    2    0    0  0.21443762515E+02  0.12237581159E+02  0.35693559042E+02  0.47787268433E+02  0.19999988095E+02 0.  0.
         12    1    1    2    0    0 -0.21443762515E+02 -0.12237581159E+02 -0.35693559042E+02  0.43400731567E+02  0.00000000000E+00 0. -1.
         11    1    3    3    0    0  0.68230157847E+01 -0.20841522474E+01  0.11072336796E+02  0.13171707458E+02  0.51100000000E-03 0. -1.
        -11    1    3    3    0    0  0.58083634234E+01 -0.16578135726E+01  0.52551428299E+01  0.80063698343E+01  0.51100000000E-03 0.  1.
         12    1    3    3    0    0  0.88123833066E+01  0.15979546979E+02  0.19366079417E+02  0.26609191141E+02  0.00000000000E+00 0. -1.
</event>
<event>
 7    1  0.2339217E-009  0.4778727E+02  0.7816164E-02  0.1312668E+00
        -11   -1    0    0    0    0  0.00000000000E+00  0.00000000000E+00  0.45593999997E+02  0.45594000000E+02  0.51100000000E-03 0. -1.
         11   -1    0    0    0    0 -0.00000000000E+00 -0.00000000000E+00 -0.45593999997E+02  0.45594000000E+02  0.51100000000E-03 0.  1.
    9900012    2    1    2    0    0 -0.14517094163E+02  0.39134618040E+02 -0.11889437384E+02  0.47787273354E+02  0.20000010530E+02 0.  0.
         12    1    1    2    0    0  0.14517094163E+02 -0.39134618040E+02  0.11889437384E+02  0.43400726646E+02  0.00000000000E+00 0. -1.
         11    1    3    3    0    0 -0.13621369542E+02  0.22278517150E+02 -0.85085903921E+01  0.27463979051E+02  0.51100000000E-03 0. -1.
        -11    1    3    3    0    0 -0.57660570166E+01  0.71930926227E+01 -0.16036632236E+01  0.93573356781E+01  0.51100000000E-03 0.  1.
         12    1    3    3    0    0  0.48703323951E+01  0.96630082677E+01 -0.17771837684E+01  0.10965958625E+02  0.00000000000E+00 0. -1.
</event>
<event>
 7    1  0.2339217E-009  0.4778727E+02  0.7816164E-02  0.1312668E+00
        -11   -1    0    0    0    0  0.00000000000E+00  0.00000000000E+00  0.45593999997E+02  0.45594000000E+02  0.51100000000E-03 0. -1.
         11   -1    0    0    0    0 -0.00000000000E+00 -0.00000000000E+00 -0.45593999997E+02  0.45594000000E+02  0.51100000000E-03 0.  1.
    9900012    2    1    2    0    0 -0.13707245866E+02  0.23447643300E+02 -0.33851774526E+02  0.47787271848E+02  0.20000003664E+02 0.  0.
         12    1    1    2    0    0  0.13707245866E+02 -0.23447643300E+02  0.33851774526E+02  0.43400728152E+02  0.00000000000E+00 0. -1.
         11    1    3    3    0    0  0.31096613935E+01  0.53084061471E+01 -0.24726263173E+01  0.66304638579E+01  0.51100000000E-03 0. -1.
        -11    1    3    3    0    0 -0.32444164605E+01  0.20214210646E+01 -0.11761398672E+02  0.12367007733E+02  0.51100000000E-03 0.  1.
        -12    1    3    3    0    0 -0.13572490799E+02  0.16117816089E+02 -0.19617749537E+02  0.28789800257E+02  0.00000000000E+00 0.  1.
</event>
<event>
 7    1  0.2339217E-009  0.4778727E+02  0.7816164E-02  0.1312668E+00
        -11   -1    0    0    0    0  0.00000000000E+00  0.00000000000E+00  0.45593999997E+02  0.45594000000E+02  0.51100000000E-03 0. -1.
         11   -1    0    0    0    0 -0.00000000000E+00 -0.00000000000E+00 -0.45593999997E+02  0.45594000000E+02  0.51100000000E-03 0.  1.
    9900012    2    1    2    0    0 -0.37835297733E+02  0.19583575514E+02  0.82823447729E+01  0.47787269367E+02  0.19999992354E+02 0.  0.
         12    1    1    2    0    0  0.37835297733E+02 -0.19583575514E+02 -0.82823447729E+01  0.43400730633E+02  0.00000000000E+00 0. -1.
         11    1    3    3    0    0 -0.11065662706E+02  0.84286986219E+01  0.87655151335E+01  0.16441596863E+02  0.51100000000E-03 0. -1.
        -11    1    3    3    0    0  0.10649875827E+01  0.15781933437E+01 -0.11433287115E+00  0.19073450260E+01  0.51100000000E-03 0.  1.
         12    1    3    3    0    0 -0.27834622610E+02  0.95766835488E+01 -0.36883748949E+00  0.29438327479E+02  0.00000000000E+00 0. -1.
</event>
<event>
 7    1  0.2339217E-009  0.4778727E+02  0.7816164E-02  0.1312668E+00
        -11   -1    0    0    0    0  0.00000000000E+00  0.00000000000E+00  0.45593999997E+02  0.45594000000E+02  0.51100000000E-03 0. -1.
         11   -1    0    0    0    0 -0.00000000000E+00 -0.00000000000E+00 -0.45593999997E+02  0.45594000000E+02  0.51100000000E-03 0.  1.
    9900012    2    1    2    0    0 -0.30028612931E+01  0.39656850121E+02 -0.17376431425E+02  0.47787270668E+02  0.19999998283E+02 0.  0.
         12    1    1    2    0    0  0.30028612931E+01 -0.39656850121E+02  0.17376431425E+02  0.43400729332E+02  0.00000000000E+00 0. -1.
         11    1    3    3    0    0 -0.16722619474E+01  0.15930852737E+02 -0.56292407187E+00  0.16028269174E+02  0.51100000000E-03 0. -1.
        -11    1    3    3    0    0 -0.23689992846E+01  0.21885274309E+02 -0.92011590715E+01  0.23858724142E+02  0.51100000000E-03 0.  1.
         12    1    3    3    0    0  0.10383999389E+01  0.18407230759E+01 -0.76123482814E+01  0.79002773517E+01  0.00000000000E+00 0. -1.
</event>
<event>
 7    1  0.2339217E-009  0.4778727E+02  0.7816164E-02  0.1312668E+00
        -11   -1    0    0    0    0  0.00000000000E+00  0.00000000000E+00  0.45593999997E+02  0.45594000000E+02  0.51100000000E-03 0.  1.
         11   -1    0    0    0    0 -0.00000000000E+00 -0.00000000000E+00 -0.45593999997E+02  0.45594000000E+02  0.51100000000E-03 0. -1.
    9900012    2    1    2    0    0  0.17466486842E+02 -0.26901665238E+02  0.29237744540E+02  0.47787268889E+02  0.19999990173E+02 0.  0.
         12    1    1    2    0    0 -0.17466486842E+02  0.26901665238E+02 -0.29237744540E+02  0.43400731111E+02  0.00000000000E+00 0. -1.
         11    1    3    3    0    0  0.67471846628E+01 -0.13422084109E+02  0.10503131013E+02  0.18330101038E+02  0.51100000000E-03 0. -1.
        -11    1    3    3    0    0  0.71432640861E+01 -0.14689333787E+02  0.19670101617E+02  0.25567863556E+02  0.51100000000E-03 0.  1.
         12    1    3    3    0    0  0.35760380932E+01  0.12097526587E+01 -0.93548809026E+00  0.38893042959E+01  0.00000000000E+00 0. -1.
</event>
<event>
 7    1  0.2339217E-009  0.4778727E+02  0.7816164E-02  0.1312668E+00
        -11   -1    0    0    0    0  0.00000000000E+00  0.00000000000E+00  0.45593999997E+02  0.45594000000E+02  0.51100000000E-03 0. -1.
         11   -1    0    0    0    0 -0.00000000000E+00 -0.00000000000E+00 -0.45593999997E+02  0.45594000000E+02  0.51100000000E-03 0.  1.
    9900012    2    1    2    0    0 -0.35343779737E+02  0.24545660328E+02 -0.56525247032E+01  0.47787271405E+02  0.20000001644E+02 0.  0.
         12    1    1    2    0    0  0.35343779737E+02 -0.24545660328E+02  0.56525247032E+01  0.43400728595E+02  0.00000000000E+00 0. -1.
         11    1    3    3    0    0 -0.54216088757E+01  0.37284397709E+01  0.73676347408E+00  0.66210215681E+01  0.51100000000E-03 0. -1.
        -11    1    3    3    0    0 -0.28174478639E+02  0.21648609916E+02 -0.10136483330E+02  0.36948773354E+02  0.51100000000E-03 0.  1.
         12    1    3    3    0    0 -0.17476922228E+01 -0.83138935851E+00  0.37471951522E+01  0.42174764824E+01  0.00000000000E+00 0. -1.
</event>
<event>
 7    1  0.2339217E-009  0.4778727E+02  0.7816164E-02  0.1312668E+00
        -11   -1    0    0    0    0  0.00000000000E+00  0.00000000000E+00  0.45593999997E+02  0.45594000000E+02  0.51100000000E-03 0.  1.
         11   -1    0    0    0    0 -0.00000000000E+00 -0.00000000000E+00 -0.45593999997E+02  0.45594000000E+02  0.51100000000E-03 0. -1.
    9900012    2    1    2    0    0 -0.31909878719E+02  0.45253346564E+01  0.29067237870E+02  0.47787270387E+02  0.19999997000E+02 0.  0.
         12    1    1    2    0    0  0.31909878719E+02 -0.45253346564E+01 -0.29067237870E+02  0.43400729613E+02  0.00000000000E+00 0. -1.
         11    1    3    3    0    0 -0.29714121999E+01  0.13515557366E+01  0.45028902143E+01  0.55616556810E+01  0.51100000000E-03 0. -1.
        -11    1    3    3    0    0 -0.15589655140E+02 -0.62049761527E+00  0.23630721486E+02  0.28316662284E+02  0.51100000000E-03 0.  1.
         12    1    3    3    0    0 -0.13348811378E+02  0.37942765350E+01  0.93362616946E+00  0.13908952422E+02  0.00000000000E+00 0. -1.
</event>
<event>
 7    1  0.2339217E-009  0.4778727E+02  0.7816164E-02  0.1312668E+00
        -11   -1    0    0    0    0  0.00000000000E+00  0.00000000000E+00  0.45593999997E+02  0.45594000000E+02  0.51100000000E-03 0.  1.
         11   -1    0    0    0    0 -0.00000000000E+00 -0.00000000000E+00 -0.45593999997E+02  0.45594000000E+02  0.51100000000E-03 0. -1.
    9900012    2    1    2    0    0 -0.26443051528E+02  0.19859752808E+02  0.28106557573E+02  0.47787270348E+02  0.19999996826E+02 0.  0.
         12    1    1    2    0    0  0.26443051528E+02 -0.19859752808E+02 -0.28106557573E+02  0.43400729652E+02  0.00000000000E+00 0. -1.
         11    1    3    3    0    0 -0.36241164168E+01  0.10222559410E+02  0.53818278473E+01  0.12107807891E+02  0.51100000000E-03 0. -1.
        -11    1    3    3    0    0 -0.73442395602E+00  0.36324412287E+01  0.69722146691E+01  0.78959347439E+01  0.51100000000E-03 0.  1.
        -12    1    3    3    0    0 -0.22084511155E+02  0.60047521688E+01  0.15752515057E+02  0.27783527713E+02  0.00000000000E+00 0.  1.
</event>
<event>
 7    1  0.2339217E-009  0.4778728E+02  0.7816164E-02  0.1312668E+00
        -11   -1    0    0    0    0  0.00000000000E+00  0.00000000000E+00  0.45593999997E+02  0.45594000000E+02  0.51100000000E-03 0. -1.
         11   -1    0    0    0    0 -0.00000000000E+00 -0.00000000000E+00 -0.45593999997E+02  0.45594000000E+02  0.51100000000E-03 0.  1.
    9900012    2    1    2    0    0 -0.35357733989E+02 -0.32940359944E+00 -0.25166347075E+02  0.47787275529E+02  0.20000020445E+02 0.  0.
         12    1    1    2    0    0  0.35357733989E+02  0.32940359944E+00  0.25166347075E+02  0.43400724471E+02  0.00000000000E+00 0. -1.
         11    1    3    3    0    0 -0.14874225748E+02 -0.51542650618E+01 -0.28959956535E+01  0.16006118550E+02  0.51100000000E-03 0. -1.
        -11    1    3    3    0    0 -0.71815143743E+01  0.13563244720E+01 -0.25464315596E+01  0.77393849065E+01  0.51100000000E-03 0.  1.
        -12    1    3    3    0    0 -0.13301993866E+02  0.34685369904E+01 -0.19723919862E+02  0.24041772072E+02  0.00000000000E+00 0.  1.
</event>
<event>
 7    1  0.2339217E-009  0.4778727E+02  0.7816164E-02  0.1312668E+00
        -11   -1    0    0    0    0  0.00000000000E+00  0.00000000000E+00  0.45593999997E+02  0.45594000000E+02  0.51100000000E-03 0.  1.
         11   -1    0    0    0    0 -0.00000000000E+00 -0.00000000000E+00 -0.45593999997E+02  0.45594000000E+02  0.51100000000E-03 0. -1.
    9900012    2    1    2    0    0  0.41496705197E+02 -0.89521894847E+01  0.90280211119E+01  0.47787269545E+02  0.19999993165E+02 0.  0.
         12    1    1    2    0    0 -0.41496705197E+02  0.89521894847E+01 -0.90280211119E+01  0.43400730455E+02  0.00000000000E+00 0. -1.
         11    1    3    3    0    0  0.16910744709E+02 -0.95678164788E+01  0.10453011720E+01  0.19457878959E+02  0.51100000000E-03 0. -1.
        -11    1    3    3    0    0  0.16850020308E+02 -0.50140703299E+01  0.44931397003E+01  0.18145313177E+02  0.51100000000E-03 0.  1.
         12    1    3    3    0    0  0.77359401802E+01  0.56296973239E+01  0.34895802396E+01  0.10184077409E+02  0.00000000000E+00 0. -1.
</event>
<event>
 7    1  0.2339217E-009  0.4778727E+02  0.7816164E-02  0.1312668E+00
        -11   -1    0    0    0    0  0.00000000000E+00  0.00000000000E+00  0.45593999997E+02  0.45594000000E+02  0.51100000000E-03 0. -1.
         11   -1    0    0    0    0 -0.00000000000E+00 -0.00000000000E+00 -0.45593999997E+02  0.45594000000E+02  0.51100000000E-03 0.  1.
    9900012    2    1    2    0    0  0.37088371079E+02  0.16022177675E+02 -0.15854520782E+02  0.47787271020E+02  0.19999999891E+02 0.  0.
         12    1    1    2    0    0 -0.37088371079E+02 -0.16022177675E+02  0.15854520782E+02  0.43400728980E+02  0.00000000000E+00 0. -1.
         11    1    3    3    0    0  0.34257432835E+01 -0.28020064463E+01 -0.22931833009E+01  0.49845408096E+01  0.51100000000E-03 0. -1.
        -11    1    3    3    0    0  0.21901950582E+02  0.86549743212E+01 -0.13718507443E+02  0.27254384354E+02  0.51100000000E-03 0.  1.
         12    1    3    3    0    0  0.11760677213E+02  0.10169209800E+02  0.15716996238E+00  0.15548345856E+02  0.00000000000E+00 0. -1.
</event>
<event>
 7    1  0.2339217E-009  0.4778727E+02  0.7816164E-02  0.1312668E+00
        -11   -1    0    0    0    0  0.00000000000E+00  0.00000000000E+00  0.45593999997E+02  0.45594000000E+02  0.51100000000E-03 0.  1.
         11   -1    0    0    0    0 -0.00000000000E+00 -0.00000000000E+00 -0.45593999997E+02  0.45594000000E+02  0.51100000000E-03 0. -1.
    9900012    2    1    2    0    0  0.30705358769E+01 -0.33329533728E+01  0.43163484167E+02  0.47787272653E+02  0.20000007335E+02 0.  0.
         12    1    1    2    0    0 -0.30705358769E+01  0.33329533728E+01 -0.43163484167E+02  0.43400727347E+02  0.00000000000E+00 0. -1.
         11    1    3    3    0    0 -0.19006864302E+01 -0.10490076600E+02  0.22561024194E+02  0.24953038470E+02  0.51100000000E-03 0. -1.
        -11    1    3    3    0    0  0.13404753388E+01  0.17073444754E+01  0.14947864800E+01  0.26355808038E+01  0.51100000000E-03 0.  1.
        -12    1    3    3    0    0  0.36307469684E+01  0.54497787515E+01  0.19107673494E+02  0.20198653379E+02  0.00000000000E+00 0.  1.
</event>
<event>
 7    1  0.2339217E-009  0.4778727E+02  0.7816164E-02  0.1312668E+00
        -11   -1    0    0    0    0  0.00000000000E+00  0.00000000000E+00  0.45593999997E+02  0.45594000000E+02  0.51100000000E-03 0. -1.
         11   -1    0    0    0    0 -0.00000000000E+00 -0.00000000000E+00 -0.45593999997E+02  0.45594000000E+02  0.51100000000E-03 0.  1.
    9900012    2    1    2    0    0  0.14480925440E+02 -0.39814599665E+02 -0.94193459993E+01  0.47787266975E+02  0.19999981446E+02 0.  0.
         12    1    1    2    0    0 -0.14480925440E+02  0.39814599665E+02  0.94193459993E+01  0.43400733025E+02  0.00000000000E+00 0. -1.
         11    1    3    3    0    0 -0.97084993235E+00 -0.17527542609E+01  0.40815630360E+00  0.20448200213E+01  0.51100000000E-03 0. -1.
        -11    1    3    3    0    0  0.14674379289E+02 -0.39839697885E+02 -0.82699495318E+01  0.43254259913E+02  0.51100000000E-03 0.  1.
        -12    1    3    3    0    0  0.77739608291E+00  0.17778524814E+01 -0.15575527711E+01  0.24881870408E+01  0.00000000000E+00 0.  1.
</event>
<event>
 7    1  0.2339217E-009  0.4778721E+02  0.7816164E-02  0.1312668E+00
        -11   -1    0    0    0    0  0.00000000000E+00  0.00000000000E+00  0.45593999997E+02  0.45594000000E+02  0.51100000000E-03 0. -1.
         11   -1    0    0    0    0 -0.00000000000E+00 -0.00000000000E+00 -0.45593999997E+02  0.45594000000E+02  0.51100000000E-03 0.  1.
    9900012    2    1    2    0    0  0.23442218699E+02  0.13711158636E+02 -0.33854020166E+02  0.47787214637E+02  0.19999742815E+02 0.  0.
         12    1    1    2    0    0 -0.23442218699E+02 -0.13711158636E+02  0.33854020166E+02  0.43400785363E+02  0.00000000000E+00 0. -1.
         11    1    3    3    0    0  0.11797601644E+02  0.11128286290E+02 -0.98819906700E+01  0.18991469142E+02  0.51100000000E-03 0. -1.
        -11    1    3    3    0    0  0.10189196850E+02  0.50641754209E+01 -0.12221503044E+02  0.16698225716E+02  0.51100000000E-03 0.  1.
        -12    1    3    3    0    0  0.14554202058E+01 -0.24813030746E+01 -0.11750526452E+02  0.12097519780E+02  0.00000000000E+00 0.  1.
</event>
<event>
 7    1  0.2339217E-009  0.4778727E+02  0.7816164E-02  0.1312668E+00
        -11   -1    0    0    0    0  0.00000000000E+00  0.00000000000E+00  0.45593999997E+02  0.45594000000E+02  0.51100000000E-03 0. -1.
         11   -1    0    0    0    0 -0.00000000000E+00 -0.00000000000E+00 -0.45593999997E+02  0.45594000000E+02  0.51100000000E-03 0.  1.
    9900012    2    1    2    0    0  0.33584970497E+02  0.24558941868E+02 -0.12350357397E+02  0.47787271932E+02  0.20000004048E+02 0.  0.
         12    1    1    2    0    0 -0.33584970497E+02 -0.24558941868E+02  0.12350357397E+02  0.43400728068E+02  0.00000000000E+00 0. -1.
         11    1    3    3    0    0  0.23220955579E+02  0.13711515757E+02 -0.40553957927E+01  0.27270215944E+02  0.51100000000E-03 0. -1.
        -11    1    3    3    0    0  0.10858032936E+02  0.58302464314E+01 -0.92199860420E+01  0.15391452029E+02  0.51100000000E-03 0.  1.
         12    1    3    3    0    0 -0.49401801738E+00  0.50171796793E+01  0.92502443750E+00  0.51256039592E+01  0.00000000000E+00 0. -1.
</event>
<event>
 7    1  0.2339217E-009  0.4778727E+02  0.7816164E-02  0.1312668E+00
        -11   -1    0    0    0    0  0.00000000000E+00  0.00000000000E+00  0.45593999997E+02  0.45594000000E+02  0.51100000000E-03 0. -1.
         11   -1    0    0    0    0 -0.00000000000E+00 -0.00000000000E+00 -0.45593999997E+02  0.45594000000E+02  0.51100000000E-03 0.  1.
    9900012    2    1    2    0    0 -0.38522562961E+02 -0.34881703485E+01 -0.19684202242E+02  0.47787274115E+02  0.20000013999E+02 0.  0.
         12    1    1    2    0    0  0.38522562961E+02  0.34881703485E+01  0.19684202242E+02  0.43400725885E+02  0.00000000000E+00 0. -1.
         11    1    3    3    0    0 -0.67529932800E+01  0.25953487862E+01 -0.71690502039E+01  0.10184990655E+02  0.51100000000E-03 0. -1.
        -11    1    3    3    0    0 -0.17129309174E+02 -0.62019209562E+01 -0.13873433144E+02  0.22898672533E+02  0.51100000000E-03 0.  1.
        -12    1    3    3    0    0 -0.14640260507E+02  0.11840182150E+00  0.13582811061E+01  0.14703610926E+02  0.00000000000E+00 0.  1.
</event>
<event>
 7    1  0.2339217E-009  0.4778727E+02  0.7816164E-02  0.1312668E+00
        -11   -1    0    0    0    0  0.00000000000E+00  0.00000000000E+00  0.45593999997E+02  0.45594000000E+02  0.51100000000E-03 0. -1.
         11   -1    0    0    0    0 -0.00000000000E+00 -0.00000000000E+00 -0.45593999997E+02  0.45594000000E+02  0.51100000000E-03 0.  1.
    9900012    2    1    2    0    0  0.25172138239E+02 -0.14289572580E+02 -0.32338756002E+02  0.47787267658E+02  0.19999984559E+02 0.  0.
         12    1    1    2    0    0 -0.25172138239E+02  0.14289572580E+02  0.32338756002E+02  0.43400732342E+02  0.00000000000E+00 0. -1.
         11    1    3    3    0    0  0.65049818903E+01 -0.11649052328E+01 -0.16824778756E+02  0.18076088460E+02  0.51100000000E-03 0. -1.
        -11    1    3    3    0    0  0.76726942769E+01  0.64348241459E-01 -0.76169416578E+01  0.10811668634E+02  0.51100000000E-03 0.  1.
        -12    1    3    3    0    0  0.10994462072E+02 -0.13189015589E+02 -0.78970355891E+01  0.18899510564E+02  0.00000000000E+00 0.  1.
</event>
<event>
 7    1  0.3170724E-009  0.4778727E+02  0.7816164E-02  0.1312668E+00
        -11   -1    0    0    0    0  0.00000000000E+00  0.00000000000E+00  0.45593999997E+02  0.45594000000E+02  0.51100000000E-03 0.  1.
         11   -1    0    0    0    0 -0.00000000000E+00 -0.00000000000E+00 -0.45593999997E+02  0.45594000000E+02  0.51100000000E-03 0. -1.
    9900012    2    1    2    0    0  0.20758096930E+02 -0.37013501227E+02  0.90953494798E+01  0.47787271396E+02  0.20000001601E+02 0.  0.
         12    1    1    2    0    0 -0.20758096930E+02  0.37013501227E+02 -0.90953494798E+01  0.43400728604E+02  0.00000000000E+00 0. -1.
         11    1    3    3    0    0  0.22730463484E+00  0.23399794074E+00  0.25700468389E+01  0.25906685331E+01  0.51100000000E-03 0. -1.
        -11    1    3    3    0    0  0.14227992106E+02 -0.11749047854E+02  0.23531193686E+01  0.18601426178E+02  0.51100000000E-03 0.  1.
        -12    1    3    3    0    0  0.63028001894E+01 -0.25498451314E+02  0.41721832723E+01  0.26595176684E+02  0.00000000000E+00 0.  1.
</event>
<event>
 7    1  0.2339217E-009  0.4778727E+02  0.7816164E-02  0.1312668E+00
        -11   -1    0    0    0    0  0.00000000000E+00  0.00000000000E+00  0.45593999997E+02  0.45594000000E+02  0.51100000000E-03 0. -1.
         11   -1    0    0    0    0 -0.00000000000E+00 -0.00000000000E+00 -0.45593999997E+02  0.45594000000E+02  0.51100000000E-03 0.  1.
    9900012    2    1    2    0    0  0.19031902747E+02 -0.18959001705E+02 -0.34087624510E+02  0.47787271751E+02  0.20000003224E+02 0.  0.
         12    1    1    2    0    0 -0.19031902747E+02  0.18959001705E+02  0.34087624510E+02  0.43400728249E+02  0.00000000000E+00 0. -1.
         11    1    3    3    0    0 -0.29505739309E+00 -0.16719680511E+01  0.96220881654E+00  0.19515076471E+01  0.51100000000E-03 0. -1.
        -11    1    3    3    0    0  0.40501519693E+01 -0.12299330270E+02 -0.11458346596E+02  0.17290776821E+02  0.51100000000E-03 0.  1.
        -12    1    3    3    0    0  0.15276808171E+02 -0.49877033833E+01 -0.23591486730E+02  0.28544987284E+02  0.00000000000E+00 0.  1.
</event>
<event>
 7    1  0.2339217E-009  0.4778727E+02  0.7816164E-02  0.1312668E+00
        -11   -1    0    0    0    0  0.00000000000E+00  0.00000000000E+00  0.45593999997E+02  0.45594000000E+02  0.51100000000E-03 0.  1.
         11   -1    0    0    0    0 -0.00000000000E+00 -0.00000000000E+00 -0.45593999997E+02  0.45594000000E+02  0.51100000000E-03 0. -1.
    9900012    2    1    2    0    0 -0.25585420663E+02  0.28049338177E+02  0.21029608588E+02  0.47787267748E+02  0.19999984970E+02 0.  0.
         12    1    1    2    0    0  0.25585420663E+02 -0.28049338177E+02 -0.21029608588E+02  0.43400732252E+02  0.00000000000E+00 0. -1.
         11    1    3    3    0    0 -0.58831208411E+01  0.61127091977E+01 -0.69426079399E+00  0.85122454663E+01  0.51100000000E-03 0. -1.
        -11    1    3    3    0    0 -0.10420180392E+02  0.21010634751E+01  0.51574624034E+01  0.11814992417E+02  0.51100000000E-03 0.  1.
         12    1    3    3    0    0 -0.92821194302E+01  0.19835565504E+02  0.16566406978E+02  0.27460029864E+02  0.00000000000E+00 0. -1.
</event>
<event>
 7    1  0.2339217E-009  0.4778727E+02  0.7816164E-02  0.1312668E+00
        -11   -1    0    0    0    0  0.00000000000E+00  0.00000000000E+00  0.45593999997E+02  0.45594000000E+02  0.51100000000E-03 0.  1.
         11   -1    0    0    0    0 -0.00000000000E+00 -0.00000000000E+00 -0.45593999997E+02  0.45594000000E+02  0.51100000000E-03 0. -1.
    9900012    2    1    2    0    0  0.38325618515E+02  0.72940512556E+01  0.19014913405E+02  0.47787272470E+02  0.20000006502E+02 0.  0.
         12    1    1    2    0    0 -0.38325618515E+02 -0.72940512556E+01 -0.19014913405E+02  0.43400727530E+02  0.00000000000E+00 0. -1.
         11    1    3    3    0    0  0.21349571015E+02  0.67491266841E+01  0.66050725022E+01  0.23344846894E+02  0.51100000000E-03 0. -1.
        -11    1    3    3    0    0  0.17497579721E+02  0.31217941199E+01  0.84278226498E+01  0.19670767384E+02  0.51100000000E-03 0.  1.
        -12    1    3    3    0    0 -0.52153222046E+00 -0.25768695484E+01  0.39820182534E+01  0.47716581915E+01  0.00000000000E+00 0.  1.
</event>
<event>
 7    1  0.2339217E-009  0.4778727E+02  0.7816164E-02  0.1312668E+00
        -11   -1    0    0    0    0  0.00000000000E+00  0.00000000000E+00  0.45593999997E+02  0.45594000000E+02  0.51100000000E-03 0.  1.
         11   -1    0    0    0    0 -0.00000000000E+00 -0.00000000000E+00 -0.45593999997E+02  0.45594000000E+02  0.51100000000E-03 0. -1.
    9900012    2    1    2    0    0 -0.55252113117E+01  0.52844317378E+01  0.42722009239E+02  0.47787271293E+02  0.20000001134E+02 0.  0.
         12    1    1    2    0    0  0.55252113117E+01 -0.52844317378E+01 -0.42722009239E+02  0.43400728707E+02  0.00000000000E+00 0. -1.
         11    1    3    3    0    0 -0.67344585718E+01  0.51912044240E+01  0.28434658492E+02  0.29678802864E+02  0.51100000000E-03 0. -1.
        -11    1    3    3    0    0 -0.36929630299E+01 -0.34430531599E+01  0.58184191682E+01  0.77036739858E+01  0.51100000000E-03 0.  1.
         12    1    3    3    0    0  0.49022102899E+01  0.35362804737E+01  0.84689315795E+01  0.10404794444E+02  0.00000000000E+00 0. -1.
</event>
<event>
 7    1  0.2339217E-009  0.4778727E+02  0.7816164E-02  0.1312668E+00
        -11   -1    0    0    0    0  0.00000000000E+00  0.00000000000E+00  0.45593999997E+02  0.45594000000E+02  0.51100000000E-03 0. -1.
         11   -1    0    0    0    0 -0.00000000000E+00 -0.00000000000E+00 -0.45593999997E+02  0.45594000000E+02  0.51100000000E-03 0.  1.
    9900012    2    1    2    0    0  0.34354091512E+02 -0.26478812192E+02 -0.15139430131E+01  0.47787272792E+02  0.20000007966E+02 0.  0.
         12    1    1    2    0    0 -0.34354091512E+02  0.26478812192E+02  0.15139430131E+01  0.43400727208E+02  0.00000000000E+00 0. -1.
         11    1    3    3    0    0  0.83398916078E+01 -0.72093981041E+01  0.14861471228E+01  0.11123751462E+02  0.51100000000E-03 0. -1.
        -11    1    3    3    0    0  0.22783653319E+02 -0.21320174363E+02 -0.60326103639E+01  0.31781080559E+02  0.51100000000E-03 0.  1.
         12    1    3    3    0    0  0.32305465851E+01  0.20507602749E+01  0.30325202280E+01  0.48824407704E+01  0.00000000000E+00 0. -1.
</event>
<event>
 7    1  0.2339217E-009  0.4778727E+02  0.7816164E-02  0.1312668E+00
        -11   -1    0    0    0    0  0.00000000000E+00  0.00000000000E+00  0.45593999997E+02  0.45594000000E+02  0.51100000000E-03 0.  1.
         11   -1    0    0    0    0 -0.00000000000E+00 -0.00000000000E+00 -0.45593999997E+02  0.45594000000E+02  0.51100000000E-03 0. -1.
    9900012    2    1    2    0    0 -0.28700727012E+01 -0.43188750820E+02  0.31808908148E+01  0.47787267505E+02  0.19999983864E+02 0.  0.
         12    1    1    2    0    0  0.28700727012E+01  0.43188750820E+02 -0.31808908148E+01  0.43400732495E+02  0.00000000000E+00 0. -1.
         11    1    3    3    0    0 -0.93207518576E+00 -0.11099588221E+02  0.48192929989E+01  0.12136523724E+02  0.51100000000E-03 0. -1.
        -11    1    3    3    0    0 -0.11607173008E+01 -0.12592635731E+02  0.68388310030E+01  0.14376764207E+02  0.51100000000E-03 0.  1.
         12    1    3    3    0    0 -0.77728021461E+00 -0.19496526868E+02 -0.84772331872E+01  0.21273979575E+02  0.00000000000E+00 0. -1.
</event>
<event>
 7    1  0.2339217E-009  0.4778727E+02  0.7816164E-02  0.1312668E+00
        -11   -1    0    0    0    0  0.00000000000E+00  0.00000000000E+00  0.45593999997E+02  0.45594000000E+02  0.51100000000E-03 0.  1.
         11   -1    0    0    0    0 -0.00000000000E+00 -0.00000000000E+00 -0.45593999997E+02  0.45594000000E+02  0.51100000000E-03 0. -1.
    9900012    2    1    2    0    0 -0.97089545793E+00  0.34767147864E+02  0.25960090697E+02  0.47787268237E+02  0.19999987198E+02 0.  0.
         12    1    1    2    0    0  0.97089545793E+00 -0.34767147864E+02 -0.25960090697E+02  0.43400731763E+02  0.00000000000E+00 0. -1.
         11    1    3    3    0    0 -0.40268517062E+01  0.52218076286E+01  0.88092963498E+01  0.11003931662E+02  0.51100000000E-03 0. -1.
        -11    1    3    3    0    0  0.96991361124E+00  0.34321184950E+01 -0.22217454742E+01  0.42019427638E+01  0.51100000000E-03 0.  1.
        -12    1    3    3    0    0  0.20860426370E+01  0.26113221740E+02  0.19372539822E+02  0.32581393811E+02  0.00000000000E+00 0.  1.
</event>
<event>
 7    1  0.2339217E-009  0.4778727E+02  0.7816164E-02  0.1312668E+00
        -11   -1    0    0    0    0  0.00000000000E+00  0.00000000000E+00  0.45593999997E+02  0.45594000000E+02  0.51100000000E-03 0.  1.
         11   -1    0    0    0    0 -0.00000000000E+00 -0.00000000000E+00 -0.45593999997E+02  0.45594000000E+02  0.51100000000E-03 0. -1.
    9900012    2    1    2    0    0 -0.19152884998E+02 -0.30594845834E+01  0.38825635945E+02  0.47787268944E+02  0.19999990422E+02 0.  0.
         12    1    1    2    0    0  0.19152884998E+02  0.30594845834E+01 -0.38825635945E+02  0.43400731056E+02  0.00000000000E+00 0. -1.
         11    1    3    3    0    0 -0.54775282852E+01  0.38439601658E+01  0.95354157754E+01  0.11649184527E+02  0.51100000000E-03 0. -1.
        -11    1    3    3    0    0 -0.13725339051E+01  0.35187224996E+01  0.11613391750E+02  0.12212130263E+02  0.51100000000E-03 0.  1.
         12    1    3    3    0    0 -0.12302822808E+02 -0.10422167249E+02  0.17676828419E+02  0.23925954154E+02  0.00000000000E+00 0. -1.
</event>
<event>
 7    1  0.2339217E-009  0.4778727E+02  0.7816164E-02  0.1312668E+00
        -11   -1    0    0    0    0  0.00000000000E+00  0.00000000000E+00  0.45593999997E+02  0.45594000000E+02  0.51100000000E-03 0.  1.
         11   -1    0    0    0    0 -0.00000000000E+00 -0.00000000000E+00 -0.45593999997E+02  0.45594000000E+02  0.51100000000E-03 0. -1.
    9900012    2    1    2    0    0 -0.21852154581E+02 -0.13123424121E+02  0.35126658918E+02  0.47787273195E+02  0.20000009803E+02 0.  0.
         12    1    1    2    0    0  0.21852154581E+02  0.13123424121E+02 -0.35126658918E+02  0.43400726805E+02  0.00000000000E+00 0. -1.
         11    1    3    3    0    0 -0.12113355511E+02  0.11781455329E+01  0.17666733887E+02  0.21453085912E+02  0.51100000000E-03 0.  1.
        -11    1    3    3    0    0 -0.21067811402E+01  0.85262975089E+00  0.46651164124E+00  0.23201589681E+01  0.51100000000E-03 0. -1.
        -12    1    3    3    0    0 -0.76320179301E+01 -0.15154199404E+02  0.16993413389E+02  0.24014028315E+02  0.00000000000E+00 0.  1.
</event>
<event>
 7    1  0.2339217E-009  0.4778727E+02  0.7816164E-02  0.1312668E+00
        -11   -1    0    0    0    0  0.00000000000E+00  0.00000000000E+00  0.45593999997E+02  0.45594000000E+02  0.51100000000E-03 0.  1.
         11   -1    0    0    0    0 -0.00000000000E+00 -0.00000000000E+00 -0.45593999997E+02  0.45594000000E+02  0.51100000000E-03 0. -1.
    9900012    2    1    2    0    0 -0.29308994502E+01 -0.20164159885E+02  0.38320227150E+02  0.47787270463E+02  0.19999997351E+02 0.  0.
         12    1    1    2    0    0  0.29308994502E+01  0.20164159885E+02 -0.38320227150E+02  0.43400729537E+02  0.00000000000E+00 0. -1.
         11    1    3    3    0    0 -0.70882128120E+00 -0.71702931278E+01  0.81270834688E+01  0.10861170154E+02  0.51100000000E-03 0.  1.
        -11    1    3    3    0    0  0.11162714810E+00 -0.10648309951E+01 -0.21349557008E+01  0.23883805756E+01  0.51100000000E-03 0. -1.
        -12    1    3    3    0    0 -0.23337053171E+01 -0.11929035762E+02  0.32328099382E+02  0.34537719734E+02  0.00000000000E+00 0.  1.
</event>
<event>
 7    1  0.2339217E-009  0.4778727E+02  0.7816164E-02  0.1312668E+00
        -11   -1    0    0    0    0  0.00000000000E+00  0.00000000000E+00  0.45593999997E+02  0.45594000000E+02  0.51100000000E-03 0. -1.
         11   -1    0    0    0    0 -0.00000000000E+00 -0.00000000000E+00 -0.45593999997E+02  0.45594000000E+02  0.51100000000E-03 0.  1.
    9900012    2    1    2    0    0 -0.14470948409E+02  0.27140148756E+02 -0.30620695551E+02  0.47787273987E+02  0.20000013417E+02 0.  0.
         12    1    1    2    0    0  0.14470948409E+02 -0.27140148756E+02  0.30620695551E+02  0.43400726013E+02  0.00000000000E+00 0. -1.
         11    1    3    3    0    0 -0.14950708321E+01 -0.76421444970E+00 -0.16361925867E+01  0.23444374507E+01  0.51100000000E-03 0. -1.
        -11    1    3    3    0    0 -0.50550263791E+01  0.18553452216E+02 -0.73655576892E+01  0.20592117938E+02  0.51100000000E-03 0.  1.
        -12    1    3    3    0    0 -0.79208511979E+01  0.93509109897E+01 -0.21618945275E+02  0.24850718598E+02  0.00000000000E+00 0.  1.
</event>
<event>
 7    1  0.2339217E-009  0.4778727E+02  0.7816164E-02  0.1312668E+00
        -11   -1    0    0    0    0  0.00000000000E+00  0.00000000000E+00  0.45593999997E+02  0.45594000000E+02  0.51100000000E-03 0.  1.
         11   -1    0    0    0    0 -0.00000000000E+00 -0.00000000000E+00 -0.45593999997E+02  0.45594000000E+02  0.51100000000E-03 0. -1.
    9900012    2    1    2    0    0 -0.32104283256E+01 -0.29181160407E+02  0.31965236598E+02  0.47787270473E+02  0.19999997396E+02 0.  0.
         12    1    1    2    0    0  0.32104283256E+01  0.29181160407E+02 -0.31965236598E+02  0.43400729527E+02  0.00000000000E+00 0. -1.
         11    1    3    3    0    0 -0.18163103778E+01 -0.35519180782E+01  0.11125807863E+02  0.11819420726E+02  0.51100000000E-03 0. -1.
        -11    1    3    3    0    0 -0.90055636901E+00 -0.19502491677E+02  0.22311654973E+02  0.29647396704E+02  0.51100000000E-03 0.  1.
        -12    1    3    3    0    0 -0.49356157877E+00 -0.61267506511E+01 -0.14722262393E+01  0.63204530433E+01  0.00000000000E+00 0.  1.
</event>
<event>
 7    1  0.2339217E-009  0.4778727E+02  0.7816164E-02  0.1312668E+00
        -11   -1    0    0    0    0  0.00000000000E+00  0.00000000000E+00  0.45593999997E+02  0.45594000000E+02  0.51100000000E-03 0.  1.
         11   -1    0    0    0    0 -0.00000000000E+00 -0.00000000000E+00 -0.45593999997E+02  0.45594000000E+02  0.51100000000E-03 0. -1.
    9900012    2    1    2    0    0 -0.11389897934E+02  0.26841780232E+02  0.32146729292E+02  0.47787272527E+02  0.20000006762E+02 0.  0.
         12    1    1    2    0    0  0.11389897934E+02 -0.26841780232E+02 -0.32146729292E+02  0.43400727473E+02  0.00000000000E+00 0. -1.
         11    1    3    3    0    0  0.23438727664E+01  0.12043999035E+02  0.13899707880E+02  0.18540591461E+02  0.51100000000E-03 0. -1.
        -11    1    3    3    0    0 -0.17288267767E+01  0.75966202562E+00  0.78008840888E+01  0.80261897090E+01  0.51100000000E-03 0.  1.
        -12    1    3    3    0    0 -0.12004943924E+02  0.14038119171E+02  0.10446137323E+02  0.21220491357E+02  0.00000000000E+00 0.  1.
</event>
<event>
 7    1  0.2339217E-009  0.4778727E+02  0.7816164E-02  0.1312668E+00
        -11   -1    0    0    0    0  0.00000000000E+00  0.00000000000E+00  0.45593999997E+02  0.45594000000E+02  0.51100000000E-03 0.  1.
         11   -1    0    0    0    0 -0.00000000000E+00 -0.00000000000E+00 -0.45593999997E+02  0.45594000000E+02  0.51100000000E-03 0. -1.
    9900012    2    1    2    0    0 -0.29286556844E+02 -0.25935326108E+02  0.18795737766E+02  0.47787270625E+02  0.19999998088E+02 0.  0.
         12    1    1    2    0    0  0.29286556844E+02  0.25935326108E+02 -0.18795737766E+02  0.43400729375E+02  0.00000000000E+00 0. -1.
         11    1    3    3    0    0 -0.81613281522E+01 -0.15161587884E+02  0.93100439162E+01  0.19574420614E+02  0.51100000000E-03 0. -1.
        -11    1    3    3    0    0 -0.68955118952E+01 -0.10151911950E+02  0.34886573657E+01  0.12758531695E+02  0.51100000000E-03 0.  1.
         12    1    3    3    0    0 -0.14229716796E+02 -0.62182627342E+00  0.59970364843E+01  0.15454318316E+02  0.00000000000E+00 0. -1.
</event>
<event>
 7    1  0.2339217E-009  0.4778727E+02  0.7816164E-02  0.1312668E+00
        -11   -1    0    0    0    0  0.00000000000E+00  0.00000000000E+00  0.45593999997E+02  0.45594000000E+02  0.51100000000E-03 0.  1.
         11   -1    0    0    0    0 -0.00000000000E+00 -0.00000000000E+00 -0.45593999997E+02  0.45594000000E+02  0.51100000000E-03 0. -1.
    9900012    2    1    2    0    0 -0.32050409817E+02  0.22146041715E+02  0.19129760838E+02  0.47787266334E+02  0.19999978522E+02 0.  0.
         12    1    1    2    0    0  0.32050409817E+02 -0.22146041715E+02 -0.19129760838E+02  0.43400733666E+02  0.00000000000E+00 0. -1.
         11    1    3    3    0    0 -0.73193677526E+01  0.39066985897E+01 -0.37679271787E+00  0.83052640645E+01  0.51100000000E-03 0. -1.
        -11    1    3    3    0    0 -0.13264828270E+02  0.14643897997E+01  0.40321532845E+01  0.13941246964E+02  0.51100000000E-03 0.  1.
         12    1    3    3    0    0 -0.11466213794E+02  0.16774953325E+02  0.15474400271E+02  0.25540755306E+02  0.00000000000E+00 0. -1.
</event>
<event>
 7    1  0.2339217E-009  0.4778724E+02  0.7816164E-02  0.1312668E+00
        -11   -1    0    0    0    0  0.00000000000E+00  0.00000000000E+00  0.45593999997E+02  0.45594000000E+02  0.51100000000E-03 0.  1.
         11   -1    0    0    0    0 -0.00000000000E+00 -0.00000000000E+00 -0.45593999997E+02  0.45594000000E+02  0.51100000000E-03 0. -1.
    9900012    2    1    2    0    0  0.25376852557E+02 -0.22384050973E+02  0.27177119872E+02  0.47787237009E+02  0.19999844818E+02 0.  0.
         12    1    1    2    0    0 -0.25376852557E+02  0.22384050973E+02 -0.27177119872E+02  0.43400762991E+02  0.00000000000E+00 0. -1.
         11    1    3    3    0    0  0.14204515553E+00 -0.21299356202E+01  0.92249716370E+00  0.23254685228E+01  0.51100000000E-03 0. -1.
        -11    1    3    3    0    0  0.94870701755E+01 -0.13327509279E+02  0.22557613395E+02  0.27865263796E+02  0.51100000000E-03 0.  1.
        -12    1    3    3    0    0  0.15747737226E+02 -0.69266060745E+01  0.36970093133E+01  0.17596504690E+02  0.00000000000E+00 0.  1.
</event>
<event>
 7    1  0.2339217E-009  0.4778727E+02  0.7816164E-02  0.1312668E+00
        -11   -1    0    0    0    0  0.00000000000E+00  0.00000000000E+00  0.45593999997E+02  0.45594000000E+02  0.51100000000E-03 0.  1.
         11   -1    0    0    0    0 -0.00000000000E+00 -0.00000000000E+00 -0.45593999997E+02  0.45594000000E+02  0.51100000000E-03 0. -1.
    9900012    2    1    2    0    0  0.40595846364E+00 -0.41348762113E+02 -0.13180981316E+02  0.47787271907E+02  0.20000003931E+02 0.  0.
         12    1    1    2    0    0 -0.40595846364E+00  0.41348762113E+02  0.13180981316E+02  0.43400728093E+02  0.00000000000E+00 0. -1.
         11    1    3    3    0    0 -0.33946836057E+00 -0.22187139036E+02 -0.83271250588E+01  0.23700746599E+02  0.51100000000E-03 0. -1.
        -11    1    3    3    0    0 -0.46525898986E+01 -0.17227778348E+02 -0.33230615335E+01  0.18151740352E+02  0.51100000000E-03 0.  1.
         12    1    3    3    0    0  0.53980167228E+01 -0.19338447289E+01 -0.15307947242E+01  0.59347849550E+01  0.00000000000E+00 0. -1.
</event>
<event>
 7    1  0.2339217E-009  0.4778726E+02  0.7816164E-02  0.1312668E+00
        -11   -1    0    0    0    0  0.00000000000E+00  0.00000000000E+00  0.45593999997E+02  0.45594000000E+02  0.51100000000E-03 0. -1.
         11   -1    0    0    0    0 -0.00000000000E+00 -0.00000000000E+00 -0.45593999997E+02  0.45594000000E+02  0.51100000000E-03 0.  1.
    9900012    2    1    2    0    0  0.41261493246E+02 -0.13422089027E+02 -0.98032616804E+00  0.47787258783E+02  0.19999944097E+02 0.  0.
         12    1    1    2    0    0 -0.41261493246E+02  0.13422089027E+02  0.98032616804E+00  0.43400741217E+02  0.00000000000E+00 0. -1.
         11    1    3    3    0    0  0.69212950392E+01 -0.37492202977E+00 -0.53519009756E+01  0.87571534109E+01  0.51100000000E-03 0. -1.
        -11    1    3    3    0    0  0.12446886862E+02 -0.64254597251E+01 -0.41690683077E+01  0.14614809477E+02  0.51100000000E-03 0.  1.
        -12    1    3    3    0    0  0.21893311345E+02 -0.66217072726E+01  0.85406431153E+01  0.24415295896E+02  0.00000000000E+00 0.  1.
</event>
<event>
 7    1  0.2339217E-009  0.4778728E+02  0.7816164E-02  0.1312668E+00
        -11   -1    0    0    0    0  0.00000000000E+00  0.00000000000E+00  0.45593999997E+02  0.45594000000E+02  0.51100000000E-03 0.  1.
         11   -1    0    0    0    0 -0.00000000000E+00 -0.00000000000E+00 -0.45593999997E+02  0.45594000000E+02  0.51100000000E-03 0. -1.
    9900012    2    1    2    0    0 -0.98238714412E+01  0.37217986291E+02  0.20048336164E+02  0.47787277234E+02  0.20000028222E+02 0.  0.
         12    1    1    2    0    0  0.98238714412E+01 -0.37217986291E+02 -0.20048336164E+02  0.43400722766E+02  0.00000000000E+00 0. -1.
         11    1    3    3    0    0 -0.10597641490E+02  0.68574319568E+01  0.86626750152E+01  0.15309353901E+02  0.51100000000E-03 0. -1.
        -11    1    3    3    0    0 -0.41055735031E+00  0.10055649492E+02  0.42235924426E+01  0.10914365644E+02  0.51100000000E-03 0.  1.
         12    1    3    3    0    0  0.11843273989E+01  0.20304904843E+02  0.71620687059E+01  0.21563557689E+02  0.00000000000E+00 0. -1.
</event>
<event>
 7    1  0.2339217E-009  0.4778728E+02  0.7816164E-02  0.1312668E+00
        -11   -1    0    0    0    0  0.00000000000E+00  0.00000000000E+00  0.45593999997E+02  0.45594000000E+02  0.51100000000E-03 0. -1.
         11   -1    0    0    0    0 -0.00000000000E+00 -0.00000000000E+00 -0.45593999997E+02  0.45594000000E+02  0.51100000000E-03 0.  1.
    9900012    2    1    2    0    0  0.30132764462E+02  0.12826308737E+01 -0.31208881630E+02  0.47787275021E+02  0.20000018132E+02 0.  0.
         12    1    1    2    0    0 -0.30132764462E+02 -0.12826308737E+01  0.31208881630E+02  0.43400724979E+02  0.00000000000E+00 0. -1.
         11    1    3    3    0    0 -0.52711651956E+00  0.33885677541E+00 -0.42789177754E+00  0.75879336702E+00  0.51100000000E-03 0. -1.
        -11    1    3    3    0    0  0.20498185697E+02  0.89033134441E+01 -0.22378857525E+02  0.31626853646E+02  0.51100000000E-03 0.  1.
         12    1    3    3    0    0  0.10161695285E+02 -0.79595393459E+01 -0.84021323270E+01  0.15401628008E+02  0.00000000000E+00 0. -1.
</event>
<event>
 7    1  0.3314616E-009  0.4778727E+02  0.7816164E-02  0.1312668E+00
        -11   -1    0    0    0    0  0.00000000000E+00  0.00000000000E+00  0.45593999997E+02  0.45594000000E+02  0.51100000000E-03 0. -1.
         11   -1    0    0    0    0 -0.00000000000E+00 -0.00000000000E+00 -0.45593999997E+02  0.45594000000E+02  0.51100000000E-03 0.  1.
    9900012    2    1    2    0    0 -0.24399596514E+02 -0.35306981587E+02  0.64575484179E+01  0.47787272006E+02  0.20000004383E+02 0.  0.
         12    1    1    2    0    0  0.24399596514E+02  0.35306981587E+02 -0.64575484179E+01  0.43400727994E+02  0.00000000000E+00 0. -1.
         11    1    3    3    0    0 -0.47827864508E+01 -0.40915095305E+01  0.52301835313E+01  0.81835393629E+01  0.51100000000E-03 0. -1.
        -11    1    3    3    0    0 -0.20793818423E+02 -0.22366656095E+02  0.22311859221E+01  0.30620718155E+02  0.51100000000E-03 0.  1.
        -12    1    3    3    0    0  0.11770083596E+01 -0.88488159621E+01 -0.10038210355E+01  0.89830144874E+01  0.00000000000E+00 0.  1.
</event>
<event>
 7    1  0.2339217E-009  0.4778727E+02  0.7816164E-02  0.1312668E+00
        -11   -1    0    0    0    0  0.00000000000E+00  0.00000000000E+00  0.45593999997E+02  0.45594000000E+02  0.51100000000E-03 0. -1.
         11   -1    0    0    0    0 -0.00000000000E+00 -0.00000000000E+00 -0.45593999997E+02  0.45594000000E+02  0.51100000000E-03 0.  1.
    9900012    2    1    2    0    0 -0.54438226816E+01 -0.43023480924E+02  0.17229010732E+01  0.47787268390E+02  0.19999987898E+02 0.  0.
         12    1    1    2    0    0  0.54438226816E+01  0.43023480924E+02 -0.17229010732E+01  0.43400731610E+02  0.00000000000E+00 0. -1.
         11    1    3    3    0    0  0.35306917095E+01 -0.55887005470E+01  0.55708930750E+00  0.66339811960E+01  0.51100000000E-03 0. -1.
        -11    1    3    3    0    0  0.17124328790E+01 -0.15064864534E+01  0.28271484936E+01  0.36324505041E+01  0.51100000000E-03 0.  1.
        -12    1    3    3    0    0 -0.10686947270E+02 -0.35928293923E+02 -0.16613367279E+01  0.37520836690E+02  0.00000000000E+00 0.  1.
</event>
<event>
 7    1  0.2339217E-009  0.4778727E+02  0.7816164E-02  0.1312668E+00
        -11   -1    0    0    0    0  0.00000000000E+00  0.00000000000E+00  0.45593999997E+02  0.45594000000E+02  0.51100000000E-03 0.  1.
         11   -1    0    0    0    0 -0.00000000000E+00 -0.00000000000E+00 -0.45593999997E+02  0.45594000000E+02  0.51100000000E-03 0. -1.
    9900012    2    1    2    0    0  0.42367005962E+01 -0.29838803510E+02  0.31230102106E+02  0.47787272997E+02  0.20000008904E+02 0.  0.
         12    1    1    2    0    0 -0.42367005962E+01  0.29838803510E+02 -0.31230102106E+02  0.43400727003E+02  0.00000000000E+00 0. -1.
         11    1    3    3    0    0  0.17467656811E+01 -0.29590191723E+01 -0.18560912243E+01  0.39053885467E+01  0.51100000000E-03 0. -1.
        -11    1    3    3    0    0  0.28003310682E+01 -0.15260319102E+01  0.19922035091E+01  0.37602529922E+01  0.51100000000E-03 0.  1.
        -12    1    3    3    0    0 -0.31039615310E+00 -0.25353752427E+02  0.31093989821E+02  0.40121631458E+02  0.00000000000E+00 0.  1.
</event>
<event>
 7    1  0.2339217E-009  0.4778727E+02  0.7816164E-02  0.1312668E+00
        -11   -1    0    0    0    0  0.00000000000E+00  0.00000000000E+00  0.45593999997E+02  0.45594000000E+02  0.51100000000E-03 0. -1.
         11   -1    0    0    0    0 -0.00000000000E+00 -0.00000000000E+00 -0.45593999997E+02  0.45594000000E+02  0.51100000000E-03 0.  1.
    9900012    2    1    2    0    0  0.40801163175E+02 -0.44416073849E+01 -0.14112421516E+02  0.47787271508E+02  0.20000002112E+02 0.  0.
         12    1    1    2    0    0 -0.40801163175E+02  0.44416073849E+01  0.14112421516E+02  0.43400728492E+02  0.00000000000E+00 0. -1.
         11    1    3    3    0    0 -0.83702662643E-01 -0.15946532779E+01  0.11184357615E+01  0.19495702158E+01  0.51100000000E-03 0. -1.
        -11    1    3    3    0    0  0.19888247164E+02 -0.33244225779E+01 -0.47425128218E+00  0.20169756451E+02  0.51100000000E-03 0.  1.
        -12    1    3    3    0    0  0.20996618674E+02  0.47746847089E+00 -0.14756605996E+02  0.25667944841E+02  0.00000000000E+00 0.  1.
</event>
<event>
 7    1  0.2339217E-009  0.4778725E+02  0.7816164E-02  0.1312668E+00
        -11   -1    0    0    0    0  0.00000000000E+00  0.00000000000E+00  0.45593999997E+02  0.45594000000E+02  0.51100000000E-03 0. -1.
         11   -1    0    0    0    0 -0.00000000000E+00 -0.00000000000E+00 -0.45593999997E+02  0.45594000000E+02  0.51100000000E-03 0.  1.
    9900012    2    1    2    0    0 -0.31678620557E+02 -0.27640542028E+02  0.10774524588E+02  0.47787251802E+02  0.19999912267E+02 0.  0.
         12    1    1    2    0    0  0.31678620557E+02  0.27640542028E+02 -0.10774524588E+02  0.43400748198E+02  0.00000000000E+00 0. -1.
         11    1    3    3    0    0 -0.21241804730E+01 -0.32018849690E+01  0.28644102008E+01  0.47926043125E+01  0.51100000000E-03 0. -1.
        -11    1    3    3    0    0 -0.23802866392E+02 -0.11807228918E+02 -0.84654344041E+00  0.26583900001E+02  0.51100000000E-03 0.  1.
        -12    1    3    3    0    0 -0.57515736922E+01 -0.12631428141E+02  0.87566578275E+01  0.16410747489E+02  0.00000000000E+00 0.  1.
</event>
<event>
 7    1  0.2339217E-009  0.4778726E+02  0.7816164E-02  0.1312668E+00
        -11   -1    0    0    0    0  0.00000000000E+00  0.00000000000E+00  0.45593999997E+02  0.45594000000E+02  0.51100000000E-03 0. -1.
         11   -1    0    0    0    0 -0.00000000000E+00 -0.00000000000E+00 -0.45593999997E+02  0.45594000000E+02  0.51100000000E-03 0.  1.
    9900012    2    1    2    0    0  0.18741557990E+02 -0.13533796570E+02 -0.36731655357E+02  0.47787260943E+02  0.19999953941E+02 0.  0.
         12    1    1    2    0    0 -0.18741557990E+02  0.13533796570E+02  0.36731655357E+02  0.43400739057E+02  0.00000000000E+00 0. -1.
         11    1    3    3    0    0  0.17906618757E+02 -0.51439536942E+01 -0.19023838472E+02  0.26627310893E+02  0.51100000000E-03 0. -1.
        -11    1    3    3    0    0  0.37828212265E+01 -0.67138361115E+01 -0.91988584185E+01  0.12000180342E+02  0.51100000000E-03 0.  1.
        -12    1    3    3    0    0 -0.29478819936E+01 -0.16760067639E+01 -0.85089584664E+01  0.91597697080E+01  0.00000000000E+00 0.  1.
</event>
<event>
 7    1  0.2339217E-009  0.4778727E+02  0.7816164E-02  0.1312668E+00
        -11   -1    0    0    0    0  0.00000000000E+00  0.00000000000E+00  0.45593999997E+02  0.45594000000E+02  0.51100000000E-03 0. -1.
         11   -1    0    0    0    0 -0.00000000000E+00 -0.00000000000E+00 -0.45593999997E+02  0.45594000000E+02  0.51100000000E-03 0.  1.
    9900012    2    1    2    0    0  0.27093446727E+02  0.20296600141E+02 -0.27159096736E+02  0.47787269956E+02  0.19999995036E+02 0.  0.
         12    1    1    2    0    0 -0.27093446727E+02 -0.20296600141E+02  0.27159096736E+02  0.43400730044E+02  0.00000000000E+00 0. -1.
         11    1    3    3    0    0 -0.52954216692E+00  0.15796557236E+00 -0.32892845365E+01  0.33353801960E+01  0.51100000000E-03 0. -1.
        -11    1    3    3    0    0  0.78314138289E+01 -0.13594864656E+01 -0.76457559822E+01  0.11028908868E+02  0.51100000000E-03 0.  1.
         12    1    3    3    0    0  0.19791575065E+02  0.21498121035E+02 -0.16224056218E+02  0.33422980892E+02  0.00000000000E+00 0. -1.
</event>
<event>
 7    1  0.2339217E-009  0.4778727E+02  0.7816164E-02  0.1312668E+00
        -11   -1    0    0    0    0  0.00000000000E+00  0.00000000000E+00  0.45593999997E+02  0.45594000000E+02  0.51100000000E-03 0. -1.
         11   -1    0    0    0    0 -0.00000000000E+00 -0.00000000000E+00 -0.45593999997E+02  0.45594000000E+02  0.51100000000E-03 0.  1.
    9900012    2    1    2    0    0 -0.12292538329E+02  0.31092083056E+02 -0.27673080405E+02  0.47787268366E+02  0.19999987786E+02 0.  0.
         12    1    1    2    0    0  0.12292538329E+02 -0.31092083056E+02  0.27673080405E+02  0.43400731634E+02  0.00000000000E+00 0. -1.
         11    1    3    3    0    0 -0.88907946458E+01  0.11953351583E+02 -0.92061540913E+01  0.17512341845E+02  0.51100000000E-03 0. -1.
        -11    1    3    3    0    0 -0.19151340419E+01 -0.18694019954E+01 -0.36426715048E+01  0.45201170529E+01  0.51100000000E-03 0.  1.
        -12    1    3    3    0    0 -0.14866096409E+01  0.21008133468E+02 -0.14824254809E+02  0.25754809467E+02  0.00000000000E+00 0.  1.
</event>
<event>
 7    1  0.2339217E-009  0.4778727E+02  0.7816164E-02  0.1312668E+00
        -11   -1    0    0    0    0  0.00000000000E+00  0.00000000000E+00  0.45593999997E+02  0.45594000000E+02  0.51100000000E-03 0. -1.
         11   -1    0    0    0    0 -0.00000000000E+00 -0.00000000000E+00 -0.45593999997E+02  0.45594000000E+02  0.51100000000E-03 0.  1.
    9900012    2    1    2    0    0  0.37136105900E+02 -0.15545820882E+02 -0.16212970008E+02  0.47787270688E+02  0.19999998377E+02 0.  0.
         12    1    1    2    0    0 -0.37136105900E+02  0.15545820882E+02  0.16212970008E+02  0.43400729312E+02  0.00000000000E+00 0. -1.
         11    1    3    3    0    0 -0.46175073176E+00  0.19369187815E+01 -0.20764672249E+01  0.28769053689E+01  0.51100000000E-03 0. -1.
        -11    1    3    3    0    0  0.20173134609E+00  0.26307284877E+00  0.83072949491E+00  0.89443536076E+00  0.51100000000E-03 0.  1.
        -12    1    3    3    0    0  0.37396125285E+02 -0.17745812512E+02 -0.14967232278E+02  0.44015929959E+02  0.00000000000E+00 0.  1.
</event>
<event>
 7    1  0.2339217E-009  0.4778727E+02  0.7816164E-02  0.1312668E+00
        -11   -1    0    0    0    0  0.00000000000E+00  0.00000000000E+00  0.45593999997E+02  0.45594000000E+02  0.51100000000E-03 0. -1.
         11   -1    0    0    0    0 -0.00000000000E+00 -0.00000000000E+00 -0.45593999997E+02  0.45594000000E+02  0.51100000000E-03 0.  1.
    9900012    2    1    2    0    0 -0.20125348028E+02  0.16771559407E+02 -0.34602144482E+02  0.47787271424E+02  0.20000001730E+02 0.  0.
         12    1    1    2    0    0  0.20125348028E+02 -0.16771559407E+02  0.34602144482E+02  0.43400728576E+02  0.00000000000E+00 0. -1.
         11    1    3    3    0    0 -0.50893439852E+01  0.10284421121E+02 -0.10319404115E+02  0.15432460645E+02  0.51100000000E-03 0.  1.
        -11    1    3    3    0    0 -0.87790213700E+01  0.56855413740E+01 -0.41424245902E+01  0.11249723493E+02  0.51100000000E-03 0. -1.
         12    1    3    3    0    0 -0.62569826730E+01  0.80159691173E+00 -0.20140315776E+02  0.21105087286E+02  0.00000000000E+00 0. -1.
</event>
<event>
 7    1  0.2339217E-009  0.4778730E+02  0.7816164E-02  0.1312668E+00
        -11   -1    0    0    0    0  0.00000000000E+00  0.00000000000E+00  0.45593999997E+02  0.45594000000E+02  0.51100000000E-03 0.  1.
         11   -1    0    0    0    0 -0.00000000000E+00 -0.00000000000E+00 -0.45593999997E+02  0.45594000000E+02  0.51100000000E-03 0. -1.
    9900012    2    1    2    0    0  0.33856238670E+02 -0.23324962372E+02  0.13904042733E+02  0.47787295273E+02  0.20000110467E+02 0.  0.
         12    1    1    2    0    0 -0.33856238670E+02  0.23324962372E+02 -0.13904042733E+02  0.43400704727E+02  0.00000000000E+00 0. -1.
         11    1    3    3    0    0  0.21511311938E+02 -0.14012966585E+02  0.33358541105E+01  0.25888756184E+02  0.51100000000E-03 0. -1.
        -11    1    3    3    0    0  0.19288591621E+01 -0.17775739134E+01 -0.24596858594E+01  0.35958756197E+01  0.51100000000E-03 0.  1.
         12    1    3    3    0    0  0.10416067569E+02 -0.75344218735E+01  0.13027874481E+02  0.18302663469E+02  0.00000000000E+00 0. -1.
</event>
<event>
 7    1  0.2339217E-009  0.4778727E+02  0.7816164E-02  0.1312668E+00
        -11   -1    0    0    0    0  0.00000000000E+00  0.00000000000E+00  0.45593999997E+02  0.45594000000E+02  0.51100000000E-03 0.  1.
         11   -1    0    0    0    0 -0.00000000000E+00 -0.00000000000E+00 -0.45593999997E+02  0.45594000000E+02  0.51100000000E-03 0. -1.
    9900012    2    1    2    0    0 -0.23452039323E+01  0.42589605021E+02  0.80155295992E+01  0.47787272447E+02  0.20000006397E+02 0.  0.
         12    1    1    2    0    0  0.23452039323E+01 -0.42589605021E+02 -0.80155295992E+01  0.43400727553E+02  0.00000000000E+00 0. -1.
         11    1    3    3    0    0 -0.11052609906E+01  0.25791688886E+02  0.92259616037E+01  0.27414433885E+02  0.51100000000E-03 0. -1.
        -11    1    3    3    0    0 -0.13428350851E+01  0.16883400653E+02  0.20940223970E+01  0.17065677652E+02  0.51100000000E-03 0.  1.
         12    1    3    3    0    0  0.10289214338E+00 -0.85484517782E-01 -0.33044544015E+01  0.33071609104E+01  0.00000000000E+00 0. -1.
</event>
<event>
 7    1  0.2339217E-009  0.4778727E+02  0.7816164E-02  0.1312668E+00
        -11   -1    0    0    0    0  0.00000000000E+00  0.00000000000E+00  0.45593999997E+02  0.45594000000E+02  0.51100000000E-03 0. -1.
         11   -1    0    0    0    0 -0.00000000000E+00 -0.00000000000E+00 -0.45593999997E+02  0.45594000000E+02  0.51100000000E-03 0.  1.
    9900012    2    1    2    0    0  0.58212830016E+00 -0.43069460535E+02 -0.53203401729E+01  0.47787270470E+02  0.19999997383E+02 0.  0.
         12    1    1    2    0    0 -0.58212830016E+00  0.43069460535E+02  0.53203401729E+01  0.43400729530E+02  0.00000000000E+00 0. -1.
         11    1    3    3    0    0 -0.65616775633E+01 -0.10939543665E+02  0.25336805290E+01  0.13005720485E+02  0.51100000000E-03 0. -1.
        -11    1    3    3    0    0 -0.17867260971E+00 -0.16671810542E+02 -0.52495383081E+01  0.17479669429E+02  0.51100000000E-03 0.  1.
        -12    1    3    3    0    0  0.73224784732E+01 -0.15458106329E+02 -0.26044823938E+01  0.17301880557E+02  0.00000000000E+00 0.  1.
</event>
<event>
 7    1  0.2339217E-009  0.4778727E+02  0.7816164E-02  0.1312668E+00
        -11   -1    0    0    0    0  0.00000000000E+00  0.00000000000E+00  0.45593999997E+02  0.45594000000E+02  0.51100000000E-03 0.  1.
         11   -1    0    0    0    0 -0.00000000000E+00 -0.00000000000E+00 -0.45593999997E+02  0.45594000000E+02  0.51100000000E-03 0. -1.
    9900012    2    1    2    0    0 -0.32868373609E+02  0.14874059956E+02  0.24125825159E+02  0.47787273245E+02  0.20000010031E+02 0.  0.
         12    1    1    2    0    0  0.32868373609E+02 -0.14874059956E+02 -0.24125825159E+02  0.43400726755E+02  0.00000000000E+00 0. -1.
         11    1    3    3    0    0 -0.57179455088E+00  0.37859145849E-01  0.29123456968E+01  0.29681880065E+01  0.51100000000E-03 0. -1.
        -11    1    3    3    0    0 -0.28228574572E+02  0.14551944651E+02  0.10651571116E+02  0.33497275755E+02  0.51100000000E-03 0.  1.
        -12    1    3    3    0    0 -0.40680044860E+01  0.28425615941E+00  0.10561908346E+02  0.11321809483E+02  0.00000000000E+00 0.  1.
</event>
<event>
 7    1  0.2339217E-009  0.4778727E+02  0.7816164E-02  0.1312668E+00
        -11   -1    0    0    0    0  0.00000000000E+00  0.00000000000E+00  0.45593999997E+02  0.45594000000E+02  0.51100000000E-03 0.  1.
         11   -1    0    0    0    0 -0.00000000000E+00 -0.00000000000E+00 -0.45593999997E+02  0.45594000000E+02  0.51100000000E-03 0. -1.
    9900012    2    1    2    0    0  0.17262302805E+02 -0.48054031395E+01  0.39529031856E+02  0.47787270088E+02  0.19999995637E+02 0.  0.
         12    1    1    2    0    0 -0.17262302805E+02  0.48054031395E+01 -0.39529031856E+02  0.43400729912E+02  0.00000000000E+00 0. -1.
         11    1    3    3    0    0  0.37794688259E+01 -0.59784408727E+00  0.61991127639E+01  0.72849709320E+01  0.51100000000E-03 0. -1.
        -11    1    3    3    0    0  0.11273842077E+02  0.49888971907E+01  0.12163000572E+02  0.17318406206E+02  0.51100000000E-03 0.  1.
         12    1    3    3    0    0  0.22089919021E+01 -0.91964562430E+01  0.21166918520E+02  0.23183892949E+02  0.00000000000E+00 0. -1.
</event>
<event>
 7    1  0.2339217E-009  0.4778727E+02  0.7816164E-02  0.1312668E+00
        -11   -1    0    0    0    0  0.00000000000E+00  0.00000000000E+00  0.45593999997E+02  0.45594000000E+02  0.51100000000E-03 0.  1.
         11   -1    0    0    0    0 -0.00000000000E+00 -0.00000000000E+00 -0.45593999997E+02  0.45594000000E+02  0.51100000000E-03 0. -1.
    9900012    2    1    2    0    0 -0.24389100492E+02 -0.13782781161E+02  0.33148604263E+02  0.47787271390E+02  0.20000001576E+02 0.  0.
         12    1    1    2    0    0  0.24389100492E+02  0.13782781161E+02 -0.33148604263E+02  0.43400728610E+02  0.00000000000E+00 0. -1.
         11    1    3    3    0    0 -0.59527270126E+01 -0.25349004809E+01  0.11038992548E+02  0.12795313051E+02  0.51100000000E-03 0.  1.
        -11    1    3    3    0    0 -0.19490808284E+02 -0.42166348986E+01  0.15161459530E+02  0.25050777887E+02  0.51100000000E-03 0. -1.
         12    1    3    3    0    0  0.10544348050E+01 -0.70312457811E+01  0.69481521846E+01  0.99411804517E+01  0.00000000000E+00 0. -1.
</event>
<event>
 7    1  0.2339217E-009  0.4778727E+02  0.7816164E-02  0.1312668E+00
        -11   -1    0    0    0    0  0.00000000000E+00  0.00000000000E+00  0.45593999997E+02  0.45594000000E+02  0.51100000000E-03 0.  1.
         11   -1    0    0    0    0 -0.00000000000E+00 -0.00000000000E+00 -0.45593999997E+02  0.45594000000E+02  0.51100000000E-03 0. -1.
    9900012    2    1    2    0    0 -0.17873163294E+02  0.12383149146E+02  0.37561030413E+02  0.47787270114E+02  0.19999995759E+02 0.  0.
         12    1    1    2    0    0  0.17873163294E+02 -0.12383149146E+02 -0.37561030413E+02  0.43400729886E+02  0.00000000000E+00 0. -1.
         11    1    3    3    0    0 -0.34720958705E+01  0.72327966989E+01  0.11457749054E+02  0.13987451929E+02  0.51100000000E-03 0. -1.
        -11    1    3    3    0    0 -0.38611595440E+01  0.27599525555E+01 -0.79431982393E+00  0.48121549618E+01  0.51100000000E-03 0.  1.
        -12    1    3    3    0    0 -0.10539907880E+02  0.23903998918E+01  0.26897601183E+02  0.28987663224E+02  0.00000000000E+00 0.  1.
</event>
<event>
 7    1  0.2339217E-009  0.4778727E+02  0.7816164E-02  0.1312668E+00
        -11   -1    0    0    0    0  0.00000000000E+00  0.00000000000E+00  0.45593999997E+02  0.45594000000E+02  0.51100000000E-03 0.  1.
         11   -1    0    0    0    0 -0.00000000000E+00 -0.00000000000E+00 -0.45593999997E+02  0.45594000000E+02  0.51100000000E-03 0. -1.
    9900012    2    1    2    0    0 -0.23795392610E+02  0.25586358321E+02  0.25743752083E+02  0.47787271747E+02  0.20000003203E+02 0.  0.
         12    1    1    2    0    0  0.23795392610E+02 -0.25586358321E+02 -0.25743752083E+02  0.43400728253E+02  0.00000000000E+00 0. -1.
         11    1    3    3    0    0 -0.45592958266E+01  0.27995777677E+01  0.26906453057E+01  0.59886882148E+01  0.51100000000E-03 0. -1.
        -11    1    3    3    0    0 -0.10725043304E+02  0.10620571802E+02  0.22304958629E+02  0.26932030725E+02  0.51100000000E-03 0.  1.
         12    1    3    3    0    0 -0.85110534793E+01  0.12166208752E+02  0.74814814801E+00  0.14866552807E+02  0.00000000000E+00 0. -1.
</event>
<event>
 7    1  0.2339217E-009  0.4778726E+02  0.7816164E-02  0.1312668E+00
        -11   -1    0    0    0    0  0.00000000000E+00  0.00000000000E+00  0.45593999997E+02  0.45594000000E+02  0.51100000000E-03 0.  1.
         11   -1    0    0    0    0 -0.00000000000E+00 -0.00000000000E+00 -0.45593999997E+02  0.45594000000E+02  0.51100000000E-03 0. -1.
    9900012    2    1    2    0    0  0.11679559729E+02 -0.34125910799E+02  0.24137812413E+02  0.47787263930E+02  0.19999967564E+02 0.  0.
         12    1    1    2    0    0 -0.11679559729E+02  0.34125910799E+02 -0.24137812413E+02  0.43400736070E+02  0.00000000000E+00 0. -1.
         11    1    3    3    0    0 -0.13751684601E+01 -0.51099640138E+00 -0.10759621611E+00  0.14709802252E+01  0.51100000000E-03 0. -1.
        -11    1    3    3    0    0  0.11515099428E+02 -0.98446705686E+01  0.13054575659E+02  0.19998424922E+02  0.51100000000E-03 0.  1.
        -12    1    3    3    0    0  0.15396287612E+01 -0.23770243829E+02  0.11190832970E+02  0.26317858784E+02  0.00000000000E+00 0.  1.
</event>
<event>
 7    1  0.2339217E-009  0.4778728E+02  0.7816164E-02  0.1312668E+00
        -11   -1    0    0    0    0  0.00000000000E+00  0.00000000000E+00  0.45593999997E+02  0.45594000000E+02  0.51100000000E-03 0. -1.
         11   -1    0    0    0    0 -0.00000000000E+00 -0.00000000000E+00 -0.45593999997E+02  0.45594000000E+02  0.51100000000E-03 0.  1.
    9900012    2    1    2    0    0  0.40755916187E+02 -0.13114668922E+02  0.71122198065E+01  0.47787275171E+02  0.20000018813E+02 0.  0.
         12    1    1    2    0    0 -0.40755916187E+02  0.13114668922E+02 -0.71122198065E+01  0.43400724829E+02  0.00000000000E+00 0. -1.
         11    1    3    3    0    0  0.11964743658E+02 -0.11427756581E+02  0.77024034339E+01  0.18250362467E+02  0.51100000000E-03 0. -1.
        -11    1    3    3    0    0  0.74963445156E+01  0.23934857314E+00  0.25585053434E+01  0.79245453301E+01  0.51100000000E-03 0.  1.
         12    1    3    3    0    0  0.21294828013E+02 -0.19262609139E+01 -0.31486889707E+01  0.21612367373E+02  0.00000000000E+00 0. -1.
</event>
<event>
 7    1  0.2339217E-009  0.4778727E+02  0.7816164E-02  0.1312668E+00
        -11   -1    0    0    0    0  0.00000000000E+00  0.00000000000E+00  0.45593999997E+02  0.45594000000E+02  0.51100000000E-03 0.  1.
         11   -1    0    0    0    0 -0.00000000000E+00 -0.00000000000E+00 -0.45593999997E+02  0.45594000000E+02  0.51100000000E-03 0. -1.
    9900012    2    1    2    0    0 -0.26314280969E+02 -0.33117489002E+02  0.97166832851E+01  0.47787269651E+02  0.19999993648E+02 0.  0.
         12    1    1    2    0    0  0.26314280969E+02  0.33117489002E+02 -0.97166832851E+01  0.43400730349E+02  0.00000000000E+00 0. -1.
         11    1    3    3    0    0 -0.56330383174E+00 -0.92657319529E+01  0.10685942940E+01  0.93441422215E+01  0.51100000000E-03 0. -1.
        -11    1    3    3    0    0  0.59939330547E+00  0.67780319433E+00  0.14818171545E+01  0.17362234434E+01  0.51100000000E-03 0.  1.
        -12    1    3    3    0    0 -0.26350370443E+02 -0.24529560244E+02  0.71662718366E+01  0.36706903986E+02  0.00000000000E+00 0.  1.
</event>
<event>
 7    1  0.2339217E-009  0.4778727E+02  0.7816164E-02  0.1312668E+00
        -11   -1    0    0    0    0  0.00000000000E+00  0.00000000000E+00  0.45593999997E+02  0.45594000000E+02  0.51100000000E-03 0. -1.
         11   -1    0    0    0    0 -0.00000000000E+00 -0.00000000000E+00 -0.45593999997E+02  0.45594000000E+02  0.51100000000E-03 0.  1.
    9900012    2    1    2    0    0 -0.36752438101E+02 -0.22475980510E+02 -0.52642202518E+01  0.47787269349E+02  0.19999992268E+02 0.  0.
         12    1    1    2    0    0  0.36752438101E+02  0.22475980510E+02  0.52642202518E+01  0.43400730651E+02  0.00000000000E+00 0. -1.
         11    1    3    3    0    0 -0.17454512048E+02 -0.75859509575E+01 -0.14537969408E+01  0.19087172881E+02  0.51100000000E-03 0. -1.
        -11    1    3    3    0    0 -0.13256062168E+02 -0.10133196620E+01 -0.22670470726E+01  0.13486641673E+02  0.51100000000E-03 0.  1.
        -12    1    3    3    0    0 -0.60418638844E+01 -0.13876709890E+02 -0.15433762384E+01  0.15213454795E+02  0.00000000000E+00 0.  1.
</event>
<event>
 7    1  0.2339217E-009  0.4778727E+02  0.7816164E-02  0.1312668E+00
        -11   -1    0    0    0    0  0.00000000000E+00  0.00000000000E+00  0.45593999997E+02  0.45594000000E+02  0.51100000000E-03 0. -1.
         11   -1    0    0    0    0 -0.00000000000E+00 -0.00000000000E+00 -0.45593999997E+02  0.45594000000E+02  0.51100000000E-03 0.  1.
    9900012    2    1    2    0    0  0.34430246052E+02 -0.67118401975E+01 -0.25556462280E+02  0.47787269519E+02  0.19999993044E+02 0.  0.
         12    1    1    2    0    0 -0.34430246052E+02  0.67118401975E+01  0.25556462280E+02  0.43400730481E+02  0.00000000000E+00 0. -1.
         11    1    3    3    0    0  0.11125656565E+02  0.33291123907E+01 -0.44179777075E+01  0.12425045295E+02  0.51100000000E-03 0. -1.
        -11    1    3    3    0    0  0.11774379359E+01  0.24171762667E+01 -0.36331922387E+01  0.45198658500E+01  0.51100000000E-03 0.  1.
        -12    1    3    3    0    0  0.22127151552E+02 -0.12458128855E+02 -0.17505292334E+02  0.30842358374E+02  0.00000000000E+00 0.  1.
</event>
<event>
 7    1  0.2339217E-009  0.4778726E+02  0.7816164E-02  0.1312668E+00
        -11   -1    0    0    0    0  0.00000000000E+00  0.00000000000E+00  0.45593999997E+02  0.45594000000E+02  0.51100000000E-03 0. -1.
         11   -1    0    0    0    0 -0.00000000000E+00 -0.00000000000E+00 -0.45593999997E+02  0.45594000000E+02  0.51100000000E-03 0.  1.
    9900012    2    1    2    0    0  0.40507616848E+02 -0.45509548236E+01 -0.14901214627E+02  0.47787257958E+02  0.19999940332E+02 0.  0.
         12    1    1    2    0    0 -0.40507616848E+02  0.45509548236E+01  0.14901214627E+02  0.43400742042E+02  0.00000000000E+00 0. -1.
         11    1    3    3    0    0  0.23874719281E+02  0.42672927881E+01 -0.63363405769E+01  0.25067134273E+02  0.51100000000E-03 0.  1.
        -11    1    3    3    0    0  0.71993731926E+01 -0.20725995406E+01  0.11651198994E+01  0.75818301130E+01  0.51100000000E-03 0. -1.
        -12    1    3    3    0    0  0.94335243742E+01 -0.67456480711E+01 -0.97299939492E+01  0.15138293572E+02  0.00000000000E+00 0.  1.
</event>
<event>
 7    1  0.2339217E-009  0.4778727E+02  0.7816164E-02  0.1312668E+00
        -11   -1    0    0    0    0  0.00000000000E+00  0.00000000000E+00  0.45593999997E+02  0.45594000000E+02  0.51100000000E-03 0. -1.
         11   -1    0    0    0    0 -0.00000000000E+00 -0.00000000000E+00 -0.45593999997E+02  0.45594000000E+02  0.51100000000E-03 0.  1.
    9900012    2    1    2    0    0 -0.47938231879E+01 -0.76790402642E+01 -0.42446140992E+02  0.47787270914E+02  0.19999999404E+02 0.  0.
         12    1    1    2    0    0  0.47938231879E+01  0.76790402642E+01  0.42446140992E+02  0.43400729086E+02  0.00000000000E+00 0. -1.
         11    1    3    3    0    0 -0.13649312426E+01 -0.54370449295E+01 -0.23285312622E+02  0.23950579931E+02  0.51100000000E-03 0. -1.
        -11    1    3    3    0    0 -0.16321636610E+01 -0.59518542754E+01 -0.18696264980E+02  0.19688546213E+02  0.51100000000E-03 0.  1.
         12    1    3    3    0    0 -0.17967282842E+01  0.37098589406E+01 -0.46456338985E+00  0.41481447697E+01  0.00000000000E+00 0. -1.
</event>
<event>
 7    1  0.2339217E-009  0.4778727E+02  0.7816164E-02  0.1312668E+00
        -11   -1    0    0    0    0  0.00000000000E+00  0.00000000000E+00  0.45593999997E+02  0.45594000000E+02  0.51100000000E-03 0.  1.
         11   -1    0    0    0    0 -0.00000000000E+00 -0.00000000000E+00 -0.45593999997E+02  0.45594000000E+02  0.51100000000E-03 0. -1.
    9900012    2    1    2    0    0  0.17050138742E+02 -0.38352841485E+02 -0.11044258127E+02  0.47787270529E+02  0.19999997648E+02 0.  0.
         12    1    1    2    0    0 -0.17050138742E+02  0.38352841485E+02  0.11044258127E+02  0.43400729471E+02  0.00000000000E+00 0. -1.
         11    1    3    3    0    0 -0.17900426019E+01 -0.84824064872E+00 -0.33554866498E+01  0.38965440628E+01  0.51100000000E-03 0. -1.
        -11    1    3    3    0    0  0.27186454864E+00  0.71727490364E-01  0.10403197283E+01  0.10776458434E+01  0.51100000000E-03 0.  1.
        -12    1    3    3    0    0  0.18568316795E+02 -0.37576328327E+02 -0.87290912051E+01  0.42813080622E+02  0.00000000000E+00 0.  1.
</event>
<event>
 7    1  0.2339217E-009  0.4778728E+02  0.7816164E-02  0.1312668E+00
        -11   -1    0    0    0    0  0.00000000000E+00  0.00000000000E+00  0.45593999997E+02  0.45594000000E+02  0.51100000000E-03 0.  1.
         11   -1    0    0    0    0 -0.00000000000E+00 -0.00000000000E+00 -0.45593999997E+02  0.45594000000E+02  0.51100000000E-03 0. -1.
    9900012    2    1    2    0    0  0.20963637633E+02  0.11121511448E+02  0.36338138717E+02  0.47787280593E+02  0.20000043535E+02 0.  0.
         12    1    1    2    0    0 -0.20963637633E+02 -0.11121511448E+02 -0.36338138717E+02  0.43400719407E+02  0.00000000000E+00 0. -1.
         11    1    3    3    0    0 -0.20415825025E+01 -0.65316424999E+00  0.52436237103E+00  0.22067258120E+01  0.51100000000E-03 0. -1.
        -11    1    3    3    0    0  0.83267126182E+01  0.12619276809E+01  0.47984876250E+01  0.96928885399E+01  0.51100000000E-03 0.  1.
         12    1    3    3    0    0  0.14678507517E+02  0.10512748017E+02  0.31015288721E+02  0.35887666241E+02  0.00000000000E+00 0. -1.
</event>
<event>
 7    1  0.2339217E-009  0.4778728E+02  0.7816164E-02  0.1312668E+00
        -11   -1    0    0    0    0  0.00000000000E+00  0.00000000000E+00  0.45593999997E+02  0.45594000000E+02  0.51100000000E-03 0.  1.
         11   -1    0    0    0    0 -0.00000000000E+00 -0.00000000000E+00 -0.45593999997E+02  0.45594000000E+02  0.51100000000E-03 0. -1.
    9900012    2    1    2    0    0 -0.85097470980E+00  0.43369950704E+02 -0.13950151396E+01  0.47787275936E+02  0.20000022303E+02 0.  0.
         12    1    1    2    0    0  0.85097470980E+00 -0.43369950704E+02  0.13950151396E+01  0.43400724064E+02  0.00000000000E+00 0. -1.
         11    1    3    3    0    0 -0.27170769108E+01  0.17637831066E+01  0.22140469595E+01  0.39237025864E+01  0.51100000000E-03 0. -1.
        -11    1    3    3    0    0 -0.24658966872E+01  0.16828942948E+02  0.42123783364E+01  0.17522502639E+02  0.51100000000E-03 0.  1.
         12    1    3    3    0    0  0.43319988883E+01  0.24777224650E+02 -0.78214404355E+01  0.26341070711E+02  0.00000000000E+00 0. -1.
</event>
<event>
 7    1  0.2339217E-009  0.4778727E+02  0.7816164E-02  0.1312668E+00
        -11   -1    0    0    0    0  0.00000000000E+00  0.00000000000E+00  0.45593999997E+02  0.45594000000E+02  0.51100000000E-03 0.  1.
         11   -1    0    0    0    0 -0.00000000000E+00 -0.00000000000E+00 -0.45593999997E+02  0.45594000000E+02  0.51100000000E-03 0. -1.
    9900012    2    1    2    0    0  0.92646268199E+01  0.16858033039E+02  0.38904969931E+02  0.47787271050E+02  0.20000000024E+02 0.  0.
         12    1    1    2    0    0 -0.92646268199E+01 -0.16858033039E+02 -0.38904969931E+02  0.43400728950E+02  0.00000000000E+00 0. -1.
         11    1    3    3    0    0 -0.19416163469E+01 -0.21823035535E+01  0.26220541968E+01  0.39252377393E+01  0.51100000000E-03 0. -1.
        -11    1    3    3    0    0  0.10242620023E+01  0.43477833122E+01  0.16961390076E+02  0.17539700281E+02  0.51100000000E-03 0.  1.
         12    1    3    3    0    0  0.10181981164E+02  0.14692553280E+02  0.19321525659E+02  0.26322333029E+02  0.00000000000E+00 0. -1.
</event>
<event>
 7    1  0.2339217E-009  0.4778727E+02  0.7816164E-02  0.1312668E+00
        -11   -1    0    0    0    0  0.00000000000E+00  0.00000000000E+00  0.45593999997E+02  0.45594000000E+02  0.51100000000E-03 0. -1.
         11   -1    0    0    0    0 -0.00000000000E+00 -0.00000000000E+00 -0.45593999997E+02  0.45594000000E+02  0.51100000000E-03 0.  1.
    9900012    2    1    2    0    0 -0.26324925055E+02 -0.16306664950E+02 -0.30409115254E+02  0.47787270842E+02  0.19999999077E+02 0.  0.
         12    1    1    2    0    0  0.26324925055E+02  0.16306664950E+02  0.30409115254E+02  0.43400729158E+02  0.00000000000E+00 0. -1.
         11    1    3    3    0    0 -0.55817680414E+01 -0.89232697472E+00 -0.22584074339E+01  0.60870999907E+01  0.51100000000E-03 0. -1.
        -11    1    3    3    0    0 -0.14543642204E+02 -0.37095469899E+01 -0.65816704286E+01  0.16388918613E+02  0.51100000000E-03 0.  1.
         12    1    3    3    0    0 -0.61995148103E+01 -0.11704790985E+02 -0.21569037391E+02  0.25311252238E+02  0.00000000000E+00 0. -1.
</event>
<event>
 7    1  0.2339217E-009  0.4778727E+02  0.7816164E-02  0.1312668E+00
        -11   -1    0    0    0    0  0.00000000000E+00  0.00000000000E+00  0.45593999997E+02  0.45594000000E+02  0.51100000000E-03 0.  1.
         11   -1    0    0    0    0 -0.00000000000E+00 -0.00000000000E+00 -0.45593999997E+02  0.45594000000E+02  0.51100000000E-03 0. -1.
    9900012    2    1    2    0    0 -0.43706925723E+01  0.78862178004E+01  0.42453834341E+02  0.47787269188E+02  0.19999991536E+02 0.  0.
         12    1    1    2    0    0  0.43706925723E+01 -0.78862178004E+01 -0.42453834341E+02  0.43400730812E+02  0.00000000000E+00 0. -1.
         11    1    3    3    0    0 -0.76916187532E+01  0.77479543045E+01  0.25494842106E+02  0.27734072351E+02  0.51100000000E-03 0. -1.
        -11    1    3    3    0    0 -0.33817365412E+01  0.12021854464E+01  0.83665344770E+01  0.91038613399E+01  0.51100000000E-03 0.  1.
        -12    1    3    3    0    0  0.67026627221E+01 -0.10639219506E+01  0.85924577586E+01  0.10949335497E+02  0.00000000000E+00 0.  1.
</event>
<event>
 7    1  0.2339217E-009  0.4778727E+02  0.7816164E-02  0.1312668E+00
        -11   -1    0    0    0    0  0.00000000000E+00  0.00000000000E+00  0.45593999997E+02  0.45594000000E+02  0.51100000000E-03 0.  1.
         11   -1    0    0    0    0 -0.00000000000E+00 -0.00000000000E+00 -0.45593999997E+02  0.45594000000E+02  0.51100000000E-03 0. -1.
    9900012    2    1    2    0    0 -0.21090637277E+02  0.34963769799E+02  0.14708604223E+02  0.47787271694E+02  0.20000002960E+02 0.  0.
         12    1    1    2    0    0  0.21090637277E+02 -0.34963769799E+02 -0.14708604223E+02  0.43400728306E+02  0.00000000000E+00 0. -1.
         11    1    3    3    0    0 -0.12567833204E+01  0.45238361268E+01 -0.52963244114E+00  0.47249453330E+01  0.51100000000E-03 0. -1.
        -11    1    3    3    0    0 -0.82059148610E+01  0.26867649372E+02  0.10025020721E+02  0.29827984548E+02  0.51100000000E-03 0.  1.
         12    1    3    3    0    0 -0.11627939096E+02  0.35722843002E+01  0.52132159427E+01  0.13234341812E+02  0.00000000000E+00 0. -1.
</event>
<event>
 7    1  0.2339217E-009  0.4778727E+02  0.7816164E-02  0.1312668E+00
        -11   -1    0    0    0    0  0.00000000000E+00  0.00000000000E+00  0.45593999997E+02  0.45594000000E+02  0.51100000000E-03 0. -1.
         11   -1    0    0    0    0 -0.00000000000E+00 -0.00000000000E+00 -0.45593999997E+02  0.45594000000E+02  0.51100000000E-03 0.  1.
    9900012    2    1    2    0    0 -0.18804044458E+02 -0.38538860481E+02 -0.66923389528E+01  0.47787271253E+02  0.20000000949E+02 0.  0.
         12    1    1    2    0    0  0.18804044458E+02  0.38538860481E+02  0.66923389528E+01  0.43400728747E+02  0.00000000000E+00 0. -1.
         11    1    3    3    0    0  0.78571926121E+00  0.10903939006E+01  0.65076121525E+00  0.14932528373E+01  0.51100000000E-03 0. -1.
        -11    1    3    3    0    0  0.10250064547E+01 -0.63809175289E+01  0.13964807175E+00  0.64642283831E+01  0.51100000000E-03 0.  1.
         12    1    3    3    0    0 -0.20614770173E+02 -0.33248336853E+02 -0.74827482398E+01  0.39829790032E+02  0.00000000000E+00 0. -1.
</event>
<event>
 7    1  0.2339217E-009  0.4778727E+02  0.7816164E-02  0.1312668E+00
        -11   -1    0    0    0    0  0.00000000000E+00  0.00000000000E+00  0.45593999997E+02  0.45594000000E+02  0.51100000000E-03 0.  1.
         11   -1    0    0    0    0 -0.00000000000E+00 -0.00000000000E+00 -0.45593999997E+02  0.45594000000E+02  0.51100000000E-03 0. -1.
    9900012    2    1    2    0    0 -0.33689432655E+02 -0.50066759285E+01  0.26899418289E+02  0.47787269813E+02  0.19999994384E+02 0.  0.
         12    1    1    2    0    0  0.33689432655E+02  0.50066759285E+01 -0.26899418289E+02  0.43400730187E+02  0.00000000000E+00 0. -1.
         11    1    3    3    0    0 -0.77621225759E+01  0.31170480149E+01  0.10022355007E+02  0.13054276516E+02  0.51100000000E-03 0. -1.
        -11    1    3    3    0    0 -0.43203330969E+01 -0.37022167153E+01  0.10217355731E+02  0.11694701581E+02  0.51100000000E-03 0.  1.
        -12    1    3    3    0    0 -0.21606976983E+02 -0.44215072281E+01  0.66597075508E+01  0.23038291715E+02  0.00000000000E+00 0.  1.
</event>
<event>
 7    1  0.2339217E-009  0.4778727E+02  0.7816164E-02  0.1312668E+00
        -11   -1    0    0    0    0  0.00000000000E+00  0.00000000000E+00  0.45593999997E+02  0.45594000000E+02  0.51100000000E-03 0.  1.
         11   -1    0    0    0    0 -0.00000000000E+00 -0.00000000000E+00 -0.45593999997E+02  0.45594000000E+02  0.51100000000E-03 0. -1.
    9900012    2    1    2    0    0 -0.90724512754E+01  0.36924930566E+02  0.20925184553E+02  0.47787271688E+02  0.20000002934E+02 0.  0.
         12    1    1    2    0    0  0.90724512754E+01 -0.36924930566E+02 -0.20925184553E+02  0.43400728312E+02  0.00000000000E+00 0. -1.
         11    1    3    3    0    0 -0.58129373722E+01  0.36527261536E+01  0.60463613536E+01  0.91482859119E+01  0.51100000000E-03 0. -1.
        -11    1    3    3    0    0 -0.33619871638E+01  0.25334694597E+01  0.45798315893E+01  0.62206336365E+01  0.51100000000E-03 0.  1.
         12    1    3    3    0    0  0.10247326059E+00  0.30738734953E+02  0.10298991610E+02  0.32418352140E+02  0.00000000000E+00 0. -1.
</event>
<event>
 7    1  0.2339217E-009  0.4778727E+02  0.7816164E-02  0.1312668E+00
        -11   -1    0    0    0    0  0.00000000000E+00  0.00000000000E+00  0.45593999997E+02  0.45594000000E+02  0.51100000000E-03 0.  1.
         11   -1    0    0    0    0 -0.00000000000E+00 -0.00000000000E+00 -0.45593999997E+02  0.45594000000E+02  0.51100000000E-03 0. -1.
    9900012    2    1    2    0    0 -0.37221144740E+01  0.35019357363E+02  0.25365601183E+02  0.47787271324E+02  0.20000001274E+02 0.  0.
         12    1    1    2    0    0  0.37221144740E+01 -0.35019357363E+02 -0.25365601183E+02  0.43400728676E+02  0.00000000000E+00 0. -1.
         11    1    3    3    0    0 -0.49529307472E+01  0.12345497407E+02  0.58983762049E+01  0.14551071140E+02  0.51100000000E-03 0. -1.
        -11    1    3    3    0    0  0.70605966428E+01  0.16139683507E+02  0.16065017376E+02  0.23841690212E+02  0.51100000000E-03 0.  1.
        -12    1    3    3    0    0 -0.58297803696E+01  0.65341764490E+01  0.34022076024E+01  0.93945099709E+01  0.00000000000E+00 0.  1.
</event>
<event>
 7    1  0.2339217E-009  0.4778726E+02  0.7816164E-02  0.1312668E+00
        -11   -1    0    0    0    0  0.00000000000E+00  0.00000000000E+00  0.45593999997E+02  0.45594000000E+02  0.51100000000E-03 0. -1.
         11   -1    0    0    0    0 -0.00000000000E+00 -0.00000000000E+00 -0.45593999997E+02  0.45594000000E+02  0.51100000000E-03 0.  1.
    9900012    2    1    2    0    0  0.20410060462E+02 -0.21625662961E+02 -0.31613042577E+02  0.47787258905E+02  0.19999944653E+02 0.  0.
         12    1    1    2    0    0 -0.20410060462E+02  0.21625662961E+02  0.31613042577E+02  0.43400741095E+02  0.00000000000E+00 0. -1.
         11    1    3    3    0    0  0.36363282499E+01 -0.39306858117E+01 -0.20014678081E+02  0.20718603067E+02  0.51100000000E-03 0. -1.
        -11    1    3    3    0    0  0.85302673136E+01 -0.88177355750E+01 -0.68939236327E+01  0.14072814375E+02  0.51100000000E-03 0.  1.
         12    1    3    3    0    0  0.82434648988E+01 -0.88772415746E+01 -0.47044408630E+01  0.12995841464E+02  0.00000000000E+00 0. -1.
</event>
<event>
 7    1  0.2339217E-009  0.4778727E+02  0.7816164E-02  0.1312668E+00
        -11   -1    0    0    0    0  0.00000000000E+00  0.00000000000E+00  0.45593999997E+02  0.45594000000E+02  0.51100000000E-03 0.  1.
         11   -1    0    0    0    0 -0.00000000000E+00 -0.00000000000E+00 -0.45593999997E+02  0.45594000000E+02  0.51100000000E-03 0. -1.
    9900012    2    1    2    0    0  0.36105270895E+02  0.17994148536E+02  0.16007608403E+02  0.47787268500E+02  0.19999988399E+02 0.  0.
         12    1    1    2    0    0 -0.36105270895E+02 -0.17994148536E+02 -0.16007608403E+02  0.43400731500E+02  0.00000000000E+00 0. -1.
         11    1    3    3    0    0  0.80510675677E+01 -0.66733933186E+00 -0.21061693402E+01  0.83487112966E+01  0.51100000000E-03 0. -1.
        -11    1    3    3    0    0  0.29549704881E+01 -0.10263349883E+01  0.14293307720E+01  0.34392151445E+01  0.51100000000E-03 0.  1.
        -12    1    3    3    0    0  0.25099232840E+02  0.19687822856E+02  0.16684446971E+02  0.35999342059E+02  0.00000000000E+00 0.  1.
</event>
<event>
 7    1  0.2339217E-009  0.4778727E+02  0.7816164E-02  0.1312668E+00
        -11   -1    0    0    0    0  0.00000000000E+00  0.00000000000E+00  0.45593999997E+02  0.45594000000E+02  0.51100000000E-03 0. -1.
         11   -1    0    0    0    0 -0.00000000000E+00 -0.00000000000E+00 -0.45593999997E+02  0.45594000000E+02  0.51100000000E-03 0.  1.
    9900012    2    1    2    0    0  0.29485095871E+02  0.30469249950E+02  0.92669959447E+01  0.47787270918E+02  0.19999999425E+02 0.  0.
         12    1    1    2    0    0 -0.29485095871E+02 -0.30469249950E+02 -0.92669959447E+01  0.43400729082E+02  0.00000000000E+00 0. -1.
         11    1    3    3    0    0 -0.23021383869E+00  0.18991950373E+01 -0.18616007085E+01  0.26693627817E+01  0.51100000000E-03 0. -1.
        -11    1    3    3    0    0  0.21999299794E+01  0.42452940720E+01 -0.31370558723E+01  0.57186828447E+01  0.51100000000E-03 0.  1.
        -12    1    3    3    0    0  0.27515379730E+02  0.24324760840E+02  0.14265652525E+02  0.39399225292E+02  0.00000000000E+00 0.  1.
</event>
<event>
 7    1  0.2339217E-009  0.4778726E+02  0.7816164E-02  0.1312668E+00
        -11   -1    0    0    0    0  0.00000000000E+00  0.00000000000E+00  0.45593999997E+02  0.45594000000E+02  0.51100000000E-03 0.  1.
         11   -1    0    0    0    0 -0.00000000000E+00 -0.00000000000E+00 -0.45593999997E+02  0.45594000000E+02  0.51100000000E-03 0. -1.
    9900012    2    1    2    0    0 -0.20227854666E+02  0.32659415747E+02  0.20194563569E+02  0.47787263381E+02  0.19999965059E+02 0.  0.
         12    1    1    2    0    0  0.20227854666E+02 -0.32659415747E+02 -0.20194563569E+02  0.43400736619E+02  0.00000000000E+00 0. -1.
         11    1    3    3    0    0 -0.12069526847E+02  0.18701226695E+02  0.11870369020E+02  0.25225285313E+02  0.51100000000E-03 0. -1.
        -11    1    3    3    0    0 -0.80543696985E+01  0.83695611796E+01 -0.10340055083E+01  0.11661543347E+02  0.51100000000E-03 0.  1.
         12    1    3    3    0    0 -0.10395812023E+00  0.55886278729E+01  0.93582000575E+01  0.10900434721E+02  0.00000000000E+00 0. -1.
</event>
<event>
 7    1  0.2339217E-009  0.4778727E+02  0.7816164E-02  0.1312668E+00
        -11   -1    0    0    0    0  0.00000000000E+00  0.00000000000E+00  0.45593999997E+02  0.45594000000E+02  0.51100000000E-03 0. -1.
         11   -1    0    0    0    0 -0.00000000000E+00 -0.00000000000E+00 -0.45593999997E+02  0.45594000000E+02  0.51100000000E-03 0.  1.
    9900012    2    1    2    0    0 -0.25179333824E+02  0.27472691910E+02 -0.22245810634E+02  0.47787265635E+02  0.19999975338E+02 0.  0.
         12    1    1    2    0    0  0.25179333824E+02 -0.27472691910E+02  0.22245810634E+02  0.43400734365E+02  0.00000000000E+00 0. -1.
         11    1    3    3    0    0 -0.17413030812E+02  0.61619552444E+01 -0.95398130616E+01  0.20789212780E+02  0.51100000000E-03 0. -1.
        -11    1    3    3    0    0 -0.25619984380E+01  0.33809003363E+01 -0.55916736455E+01  0.70186278929E+01  0.51100000000E-03 0.  1.
        -12    1    3    3    0    0 -0.52043045741E+01  0.17929836329E+02 -0.71143239269E+01  0.19979424962E+02  0.00000000000E+00 0.  1.
</event>
<event>
 7    1  0.2339217E-009  0.4778723E+02  0.7816164E-02  0.1312668E+00
        -11   -1    0    0    0    0  0.00000000000E+00  0.00000000000E+00  0.45593999997E+02  0.45594000000E+02  0.51100000000E-03 0.  1.
         11   -1    0    0    0    0 -0.00000000000E+00 -0.00000000000E+00 -0.45593999997E+02  0.45594000000E+02  0.51100000000E-03 0. -1.
    9900012    2    1    2    0    0  0.17442639454E+01 -0.99995539298E+01  0.42197072555E+02  0.47787234249E+02  0.19999832236E+02 0.  0.
         12    1    1    2    0    0 -0.17442639454E+01  0.99995539298E+01 -0.42197072555E+02  0.43400765751E+02  0.00000000000E+00 0. -1.
         11    1    3    3    0    0  0.19108710303E+00  0.33012408463E+01  0.12026979474E+02  0.12473289099E+02  0.51100000000E-03 0.  1.
        -11    1    3    3    0    0 -0.27277210807E+01 -0.10992671862E+02  0.11986061264E+02  0.16490753829E+02  0.51100000000E-03 0. -1.
         12    1    3    3    0    0  0.42808979231E+01 -0.23081229144E+01  0.18184031817E+02  0.18823191322E+02  0.00000000000E+00 0. -1.
</event>
<event>
 7    1  0.2339217E-009  0.4778728E+02  0.7816164E-02  0.1312668E+00
        -11   -1    0    0    0    0  0.00000000000E+00  0.00000000000E+00  0.45593999997E+02  0.45594000000E+02  0.51100000000E-03 0.  1.
         11   -1    0    0    0    0 -0.00000000000E+00 -0.00000000000E+00 -0.45593999997E+02  0.45594000000E+02  0.51100000000E-03 0. -1.
    9900012    2    1    2    0    0 -0.33507666378E+02  0.19738158494E+02  0.19268213768E+02  0.47787278017E+02  0.20000031792E+02 0.  0.
         12    1    1    2    0    0  0.33507666378E+02 -0.19738158494E+02 -0.19268213768E+02  0.43400721983E+02  0.00000000000E+00 0. -1.
         11    1    3    3    0    0 -0.35480998869E+01  0.13703148823E+01 -0.31965054378E+00  0.38169297105E+01  0.51100000000E-03 0.  1.
        -11    1    3    3    0    0 -0.12955867449E+02  0.25692221318E+01  0.15565132556E+02  0.20413935326E+02  0.51100000000E-03 0. -1.
         12    1    3    3    0    0 -0.17003699041E+02  0.15798621480E+02  0.40227317551E+01  0.23556412981E+02  0.00000000000E+00 0. -1.
</event>
<event>
 7    1  0.2339217E-009  0.4778727E+02  0.7816164E-02  0.1312668E+00
        -11   -1    0    0    0    0  0.00000000000E+00  0.00000000000E+00  0.45593999997E+02  0.45594000000E+02  0.51100000000E-03 0.  1.
         11   -1    0    0    0    0 -0.00000000000E+00 -0.00000000000E+00 -0.45593999997E+02  0.45594000000E+02  0.51100000000E-03 0. -1.
    9900012    2    1    2    0    0 -0.25349683383E+02  0.33670488508E+02  0.10359304042E+02  0.47787269312E+02  0.19999992102E+02 0.  0.
         12    1    1    2    0    0  0.25349683383E+02 -0.33670488508E+02 -0.10359304042E+02  0.43400730688E+02  0.00000000000E+00 0. -1.
         11    1    3    3    0    0  0.76709965186E+00  0.62623644971E+00  0.17246188537E+01  0.19886991775E+01  0.51100000000E-03 0. -1.
        -11    1    3    3    0    0 -0.85248223278E+01  0.14144536159E+02  0.11042470912E+02  0.19866470823E+02  0.51100000000E-03 0.  1.
         12    1    3    3    0    0 -0.17591960707E+02  0.18899715900E+02 -0.24077857236E+01  0.25932099312E+02  0.00000000000E+00 0. -1.
</event>
<event>
 7    1  0.2339217E-009  0.4778727E+02  0.7816164E-02  0.1312668E+00
        -11   -1    0    0    0    0  0.00000000000E+00  0.00000000000E+00  0.45593999997E+02  0.45594000000E+02  0.51100000000E-03 0.  1.
         11   -1    0    0    0    0 -0.00000000000E+00 -0.00000000000E+00 -0.45593999997E+02  0.45594000000E+02  0.51100000000E-03 0. -1.
    9900012    2    1    2    0    0 -0.61259180488E+01 -0.23860949779E+02  0.35731654709E+02  0.47787274838E+02  0.20000017298E+02 0.  0.
         12    1    1    2    0    0  0.61259180488E+01  0.23860949779E+02 -0.35731654709E+02  0.43400725162E+02  0.00000000000E+00 0. -1.
         11    1    3    3    0    0 -0.31466525424E+01  0.60539861401E+00  0.10662091612E+02  0.11133199338E+02  0.51100000000E-03 0. -1.
        -11    1    3    3    0    0 -0.25621592247E+01 -0.13304140205E+02  0.20528211545E+02  0.24596184176E+02  0.51100000000E-03 0.  1.
         12    1    3    3    0    0 -0.41710628173E+00 -0.11162208188E+02  0.45413515522E+01  0.12057891325E+02  0.00000000000E+00 0. -1.
</event>
<event>
 7    1  0.2339217E-009  0.4778727E+02  0.7816164E-02  0.1312668E+00
        -11   -1    0    0    0    0  0.00000000000E+00  0.00000000000E+00  0.45593999997E+02  0.45594000000E+02  0.51100000000E-03 0.  1.
         11   -1    0    0    0    0 -0.00000000000E+00 -0.00000000000E+00 -0.45593999997E+02  0.45594000000E+02  0.51100000000E-03 0. -1.
    9900012    2    1    2    0    0  0.34795455769E+02  0.13589793375E+02  0.22095634341E+02  0.47787270938E+02  0.19999999516E+02 0.  0.
         12    1    1    2    0    0 -0.34795455769E+02 -0.13589793375E+02 -0.22095634341E+02  0.43400729062E+02  0.00000000000E+00 0. -1.
         11    1    3    3    0    0  0.13836729628E+02  0.70365515595E+01  0.53406906684E+01  0.16416184749E+02  0.51100000000E-03 0. -1.
        -11    1    3    3    0    0  0.22707497436E+02  0.34625238495E+01  0.14597998820E+02  0.27216191523E+02  0.51100000000E-03 0.  1.
         12    1    3    3    0    0 -0.17487712947E+01  0.30907179658E+01  0.21569448532E+01  0.41548946660E+01  0.00000000000E+00 0. -1.
</event>
<event>
 7    1  0.2339217E-009  0.4778727E+02  0.7816164E-02  0.1312668E+00
        -11   -1    0    0    0    0  0.00000000000E+00  0.00000000000E+00  0.45593999997E+02  0.45594000000E+02  0.51100000000E-03 0. -1.
         11   -1    0    0    0    0 -0.00000000000E+00 -0.00000000000E+00 -0.45593999997E+02  0.45594000000E+02  0.51100000000E-03 0.  1.
    9900012    2    1    2    0    0 -0.22497958768E+02 -0.35167426501E+02  0.11862449928E+02  0.47787265516E+02  0.19999974796E+02 0.  0.
         12    1    1    2    0    0  0.22497958768E+02  0.35167426501E+02 -0.11862449928E+02  0.43400734484E+02  0.00000000000E+00 0. -1.
         11    1    3    3    0    0 -0.30928103202E+01 -0.87917300740E+01 -0.22356026392E+01  0.95842533768E+01  0.51100000000E-03 0. -1.
        -11    1    3    3    0    0 -0.12451743919E+02 -0.80496109539E+01  0.15002086228E+01  0.14902777906E+02  0.51100000000E-03 0.  1.
         12    1    3    3    0    0 -0.69534045285E+01 -0.18326085473E+02  0.12597843945E+02  0.23300234234E+02  0.00000000000E+00 0. -1.
</event>
<event>
 7    1  0.2339217E-009  0.4778727E+02  0.7816164E-02  0.1312668E+00
        -11   -1    0    0    0    0  0.00000000000E+00  0.00000000000E+00  0.45593999997E+02  0.45594000000E+02  0.51100000000E-03 0.  1.
         11   -1    0    0    0    0 -0.00000000000E+00 -0.00000000000E+00 -0.45593999997E+02  0.45594000000E+02  0.51100000000E-03 0. -1.
    9900012    2    1    2    0    0 -0.43359099752E+02  0.18472686149E+01 -0.44667782971E+00  0.47787268972E+02  0.19999990552E+02 0.  0.
         12    1    1    2    0    0  0.43359099752E+02 -0.18472686149E+01  0.44667782971E+00  0.43400731028E+02  0.00000000000E+00 0. -1.
         11    1    3    3    0    0 -0.67120641089E+01  0.13369255374E+01  0.44514306585E+01  0.81642151897E+01  0.51100000000E-03 0. -1.
        -11    1    3    3    0    0 -0.31975172215E+02  0.33581999630E+01  0.18972806100E+00  0.32151596261E+02  0.51100000000E-03 0.  1.
        -12    1    3    3    0    0 -0.46718634286E+01 -0.28478568856E+01 -0.50878365493E+01  0.74714575210E+01  0.00000000000E+00 0.  1.
</event>
<event>
 7    1  0.2339217E-009  0.4778728E+02  0.7816164E-02  0.1312668E+00
        -11   -1    0    0    0    0  0.00000000000E+00  0.00000000000E+00  0.45593999997E+02  0.45594000000E+02  0.51100000000E-03 0.  1.
         11   -1    0    0    0    0 -0.00000000000E+00 -0.00000000000E+00 -0.45593999997E+02  0.45594000000E+02  0.51100000000E-03 0. -1.
    9900012    2    1    2    0    0  0.12010554807E+02 -0.22689687848E+02  0.34993528106E+02  0.47787281449E+02  0.20000047440E+02 0.  0.
         12    1    1    2    0    0 -0.12010554807E+02  0.22689687848E+02 -0.34993528106E+02  0.43400718551E+02  0.00000000000E+00 0. -1.
         11    1    3    3    0    0 -0.15797090591E+01 -0.52918262244E+01  0.95581172774E+00  0.56046839180E+01  0.51100000000E-03 0. -1.
        -11    1    3    3    0    0  0.67065785969E+01 -0.13466220889E+02  0.13671664109E+02  0.20328101271E+02  0.51100000000E-03 0.  1.
        -12    1    3    3    0    0  0.68836852694E+01 -0.39316407343E+01  0.20366052270E+02  0.21854496261E+02  0.00000000000E+00 0.  1.
</event>
<event>
 7    1  0.2339217E-009  0.4778727E+02  0.7816164E-02  0.1312668E+00
        -11   -1    0    0    0    0  0.00000000000E+00  0.00000000000E+00  0.45593999997E+02  0.45594000000E+02  0.51100000000E-03 0. -1.
         11   -1    0    0    0    0 -0.00000000000E+00 -0.00000000000E+00 -0.45593999997E+02  0.45594000000E+02  0.51100000000E-03 0.  1.
    9900012    2    1    2    0    0  0.38381810208E+02 -0.20233937651E+02 -0.10234634252E+01  0.47787273450E+02  0.20000010967E+02 0.  0.
         12    1    1    2    0    0 -0.38381810208E+02  0.20233937651E+02  0.10234634252E+01  0.43400726550E+02  0.00000000000E+00 0. -1.
         11    1    3    3    0    0  0.96577560977E+00 -0.35828623674E+01 -0.27095576216E+01  0.45947065236E+01  0.51100000000E-03 0. -1.
        -11    1    3    3    0    0  0.42514523458E+01  0.13627593806E+01  0.30831461199E+01  0.54256566825E+01  0.51100000000E-03 0.  1.
        -12    1    3    3    0    0  0.33164582253E+02 -0.18013834664E+02 -0.13970519236E+01  0.37766910244E+02  0.00000000000E+00 0.  1.
</event>
<event>
 7    1  0.2339217E-009  0.4778727E+02  0.7816164E-02  0.1312668E+00
        -11   -1    0    0    0    0  0.00000000000E+00  0.00000000000E+00  0.45593999997E+02  0.45594000000E+02  0.51100000000E-03 0.  1.
         11   -1    0    0    0    0 -0.00000000000E+00 -0.00000000000E+00 -0.45593999997E+02  0.45594000000E+02  0.51100000000E-03 0. -1.
    9900012    2    1    2    0    0 -0.22337253477E+02 -0.14971825092E+02  0.34066325908E+02  0.47787274196E+02  0.20000014367E+02 0.  0.
         12    1    1    2    0    0  0.22337253477E+02  0.14971825092E+02 -0.34066325908E+02  0.43400725804E+02  0.00000000000E+00 0. -1.
         11    1    3    3    0    0 -0.35024718313E+01 -0.31401946934E-01  0.83055013048E+01  0.90138586187E+01  0.51100000000E-03 0.  1.
        -11    1    3    3    0    0  0.16480882409E+01 -0.18823586267E+01  0.87952635618E+01  0.91441855969E+01  0.51100000000E-03 0. -1.
         12    1    3    3    0    0 -0.20482869887E+02 -0.13058064518E+02  0.16965561041E+02  0.29629229980E+02  0.00000000000E+00 0. -1.
</event>
<event>
 7    1  0.2339217E-009  0.4778727E+02  0.7816164E-02  0.1312668E+00
        -11   -1    0    0    0    0  0.00000000000E+00  0.00000000000E+00  0.45593999997E+02  0.45594000000E+02  0.51100000000E-03 0.  1.
         11   -1    0    0    0    0 -0.00000000000E+00 -0.00000000000E+00 -0.45593999997E+02  0.45594000000E+02  0.51100000000E-03 0. -1.
    9900012    2    1    2    0    0 -0.10564755073E+02 -0.20314472942E+02  0.36869114280E+02  0.47787269034E+02  0.19999990832E+02 0.  0.
         12    1    1    2    0    0  0.10564755073E+02  0.20314472942E+02 -0.36869114280E+02  0.43400730966E+02  0.00000000000E+00 0. -1.
         11    1    3    3    0    0 -0.30750947166E+01 -0.51552134457E+01 -0.18937582605E+00  0.60056886909E+01  0.51100000000E-03 0. -1.
        -11    1    3    3    0    0  0.11645867625E+01 -0.59242148834E+01  0.75052884765E+01  0.96323382255E+01  0.51100000000E-03 0.  1.
        -12    1    3    3    0    0 -0.86542471185E+01 -0.92350446128E+01  0.29553201629E+02  0.32149242117E+02  0.00000000000E+00 0.  1.
</event>
<event>
 7    1  0.2339217E-009  0.4778727E+02  0.7816164E-02  0.1312668E+00
        -11   -1    0    0    0    0  0.00000000000E+00  0.00000000000E+00  0.45593999997E+02  0.45594000000E+02  0.51100000000E-03 0.  1.
         11   -1    0    0    0    0 -0.00000000000E+00 -0.00000000000E+00 -0.45593999997E+02  0.45594000000E+02  0.51100000000E-03 0. -1.
    9900012    2    1    2    0    0 -0.24087738025E+02 -0.52021307395E+01  0.35725930039E+02  0.47787270000E+02  0.19999995236E+02 0.  0.
         12    1    1    2    0    0  0.24087738025E+02  0.52021307395E+01 -0.35725930039E+02  0.43400730000E+02  0.00000000000E+00 0. -1.
         11    1    3    3    0    0 -0.49986513996E+01  0.12472126041E+00  0.58318288854E+01  0.76819463431E+01  0.51100000000E-03 0. -1.
        -11    1    3    3    0    0 -0.21650515556E+02 -0.17437597766E+01  0.21161370461E+02  0.30324727897E+02  0.51100000000E-03 0.  1.
         12    1    3    3    0    0  0.25614289308E+01 -0.35830922233E+01  0.87327306933E+01  0.97805957595E+01  0.00000000000E+00 0. -1.
</event>
<event>
 7    1  0.2339217E-009  0.4778727E+02  0.7816164E-02  0.1312668E+00
        -11   -1    0    0    0    0  0.00000000000E+00  0.00000000000E+00  0.45593999997E+02  0.45594000000E+02  0.51100000000E-03 0. -1.
         11   -1    0    0    0    0 -0.00000000000E+00 -0.00000000000E+00 -0.45593999997E+02  0.45594000000E+02  0.51100000000E-03 0.  1.
    9900012    2    1    2    0    0 -0.16680424033E+02  0.33543661503E+02 -0.21913689668E+02  0.47787267658E+02  0.19999984559E+02 0.  0.
         12    1    1    2    0    0  0.16680424033E+02 -0.33543661503E+02  0.21913689668E+02  0.43400732342E+02  0.00000000000E+00 0. -1.
         11    1    3    3    0    0 -0.55894939361E+01  0.12524955989E+02 -0.74921424996E+01  0.15628472877E+02  0.51100000000E-03 0.  1.
        -11    1    3    3    0    0 -0.17816588849E+01  0.18990456095E+02 -0.11101042485E+02  0.22069093221E+02  0.51100000000E-03 0. -1.
         12    1    3    3    0    0 -0.93092712123E+01  0.20282494193E+01 -0.33205046839E+01  0.10089701560E+02  0.00000000000E+00 0. -1.
</event>
<event>
 7    1  0.2339217E-009  0.4778727E+02  0.7816164E-02  0.1312668E+00
        -11   -1    0    0    0    0  0.00000000000E+00  0.00000000000E+00  0.45593999997E+02  0.45594000000E+02  0.51100000000E-03 0. -1.
         11   -1    0    0    0    0 -0.00000000000E+00 -0.00000000000E+00 -0.45593999997E+02  0.45594000000E+02  0.51100000000E-03 0.  1.
    9900012    2    1    2    0    0  0.42213885643E+00  0.19783383756E+01 -0.43353565565E+02  0.47787266468E+02  0.19999979135E+02 0.  0.
         12    1    1    2    0    0 -0.42213885643E+00 -0.19783383756E+01  0.43353565565E+02  0.43400733532E+02  0.00000000000E+00 0. -1.
         11    1    3    3    0    0  0.31254165016E+01 -0.17238771316E+01  0.94521740409E-01  0.35705623218E+01  0.51100000000E-03 0. -1.
        -11    1    3    3    0    0 -0.16674569856E+01 -0.18804636305E+01 -0.12041346919E+02  0.12300837051E+02  0.51100000000E-03 0.  1.
         12    1    3    3    0    0 -0.10358206596E+01  0.55826791377E+01 -0.31406740385E+02  0.31915867095E+02  0.00000000000E+00 0. -1.
</event>
<event>
 7    1  0.2339217E-009  0.4778727E+02  0.7816164E-02  0.1312668E+00
        -11   -1    0    0    0    0  0.00000000000E+00  0.00000000000E+00  0.45593999997E+02  0.45594000000E+02  0.51100000000E-03 0. -1.
         11   -1    0    0    0    0 -0.00000000000E+00 -0.00000000000E+00 -0.45593999997E+02  0.45594000000E+02  0.51100000000E-03 0.  1.
    9900012    2    1    2    0    0  0.14451699744E+01 -0.14046278082E+02 -0.41039457137E+02  0.47787268597E+02  0.19999988840E+02 0.  0.
         12    1    1    2    0    0 -0.14451699744E+01  0.14046278082E+02  0.41039457137E+02  0.43400731403E+02  0.00000000000E+00 0. -1.
         11    1    3    3    0    0 -0.31412892684E+01 -0.23633180163E+01 -0.13329877232E+01  0.41508826586E+01  0.51100000000E-03 0. -1.
        -11    1    3    3    0    0 -0.36647626952E+01 -0.78272089480E+01 -0.23606417159E+02  0.25138787100E+02  0.51100000000E-03 0.  1.
        -12    1    3    3    0    0  0.82512219380E+01 -0.38557511175E+01 -0.16100052255E+02  0.18497598838E+02  0.00000000000E+00 0.  1.
</event>
<event>
 7    1  0.2339217E-009  0.4778728E+02  0.7816164E-02  0.1312668E+00
        -11   -1    0    0    0    0  0.00000000000E+00  0.00000000000E+00  0.45593999997E+02  0.45594000000E+02  0.51100000000E-03 0. -1.
         11   -1    0    0    0    0 -0.00000000000E+00 -0.00000000000E+00 -0.45593999997E+02  0.45594000000E+02  0.51100000000E-03 0.  1.
    9900012    2    1    2    0    0  0.29768427783E+02 -0.28031387424E+02 -0.14550070348E+02  0.47787279721E+02  0.20000039561E+02 0.  0.
         12    1    1    2    0    0 -0.29768427783E+02  0.28031387424E+02  0.14550070348E+02  0.43400720279E+02  0.00000000000E+00 0. -1.
         11    1    3    3    0    0  0.65590332045E+01  0.12549200072E+01 -0.33588435572E+01  0.74751301731E+01  0.51100000000E-03 0. -1.
        -11    1    3    3    0    0  0.27392753420E+01  0.17060185052E+00 -0.29930960435E-01  0.27447459836E+01  0.51100000000E-03 0.  1.
        -12    1    3    3    0    0  0.20470119236E+02 -0.29456909282E+02 -0.11161295830E+02  0.37567403565E+02  0.00000000000E+00 0.  1.
</event>
<event>
 7    1  0.2339217E-009  0.4778727E+02  0.7816164E-02  0.1312668E+00
        -11   -1    0    0    0    0  0.00000000000E+00  0.00000000000E+00  0.45593999997E+02  0.45594000000E+02  0.51100000000E-03 0. -1.
         11   -1    0    0    0    0 -0.00000000000E+00 -0.00000000000E+00 -0.45593999997E+02  0.45594000000E+02  0.51100000000E-03 0.  1.
    9900012    2    1    2    0    0  0.24760318224E+01  0.31968067910E+02 -0.29249527869E+02  0.47787274430E+02  0.20000015437E+02 0.  0.
         12    1    1    2    0    0 -0.24760318224E+01 -0.31968067910E+02  0.29249527869E+02  0.43400725570E+02  0.00000000000E+00 0. -1.
         11    1    3    3    0    0  0.64456717875E+00  0.94541430757E+01 -0.25970090580E+01  0.98255149713E+01  0.51100000000E-03 0. -1.
        -11    1    3    3    0    0 -0.71608691267E+00  0.24041103635E+02 -0.23389150720E+02  0.33549065801E+02  0.51100000000E-03 0.  1.
         12    1    3    3    0    0  0.25475515564E+01 -0.15271788012E+01 -0.32633680906E+01  0.44126936579E+01  0.00000000000E+00 0. -1.
</event>
<event>
 7    1  0.2339217E-009  0.4778727E+02  0.7816164E-02  0.1312668E+00
        -11   -1    0    0    0    0  0.00000000000E+00  0.00000000000E+00  0.45593999997E+02  0.45594000000E+02  0.51100000000E-03 0.  1.
         11   -1    0    0    0    0 -0.00000000000E+00 -0.00000000000E+00 -0.45593999997E+02  0.45594000000E+02  0.51100000000E-03 0. -1.
    9900012    2    1    2    0    0  0.75974784827E+01  0.39045200470E+02  0.17360117924E+02  0.47787273584E+02  0.20000011581E+02 0.  0.
         12    1    1    2    0    0 -0.75974784827E+01 -0.39045200470E+02 -0.17360117924E+02  0.43400726416E+02  0.00000000000E+00 0. -1.
         11    1    3    3    0    0 -0.15057313525E+01  0.17226581714E+02  0.85601025816E+01  0.19295017516E+02  0.51100000000E-03 0.  1.
        -11    1    3    3    0    0  0.12181791291E+02  0.20053585451E+02  0.83964118194E+01  0.24920715484E+02  0.51100000000E-03 0. -1.
         12    1    3    3    0    0 -0.30785814560E+01  0.17650333049E+01  0.40360352297E+00  0.35715405853E+01  0.00000000000E+00 0. -1.
</event>
<event>
 7    1  0.2339217E-009  0.4778727E+02  0.7816164E-02  0.1312668E+00
        -11   -1    0    0    0    0  0.00000000000E+00  0.00000000000E+00  0.45593999997E+02  0.45594000000E+02  0.51100000000E-03 0. -1.
         11   -1    0    0    0    0 -0.00000000000E+00 -0.00000000000E+00 -0.45593999997E+02  0.45594000000E+02  0.51100000000E-03 0.  1.
    9900012    2    1    2    0    0  0.34709601765E+02 -0.26048061353E+02 -0.60441602317E+00  0.47787271047E+02  0.20000000010E+02 0.  0.
         12    1    1    2    0    0 -0.34709601765E+02  0.26048061353E+02  0.60441602317E+00  0.43400728953E+02  0.00000000000E+00 0. -1.
         11    1    3    3    0    0  0.22667323569E+02 -0.11707707189E+02 -0.70020404810E+01  0.26455746759E+02  0.51100000000E-03 0. -1.
        -11    1    3    3    0    0  0.24664622449E-01  0.79972543988E+00  0.96332738140E+00  0.12522655580E+01  0.51100000000E-03 0.  1.
        -12    1    3    3    0    0  0.12017613573E+02 -0.15140079604E+02  0.54342970764E+01  0.20079258730E+02  0.00000000000E+00 0.  1.
</event>
<event>
 7    1  0.2339217E-009  0.4778727E+02  0.7816164E-02  0.1312668E+00
        -11   -1    0    0    0    0  0.00000000000E+00  0.00000000000E+00  0.45593999997E+02  0.45594000000E+02  0.51100000000E-03 0.  1.
         11   -1    0    0    0    0 -0.00000000000E+00 -0.00000000000E+00 -0.45593999997E+02  0.45594000000E+02  0.51100000000E-03 0. -1.
    9900012    2    1    2    0    0  0.20636304016E+02  0.18780416488E+02  0.33242476166E+02  0.47787270645E+02  0.19999998178E+02 0.  0.
         12    1    1    2    0    0 -0.20636304016E+02 -0.18780416488E+02 -0.33242476166E+02  0.43400729355E+02  0.00000000000E+00 0. -1.
         11    1    3    3    0    0  0.53468739444E+01  0.98548587873E+00  0.92851690660E+01  0.10759860977E+02  0.51100000000E-03 0. -1.
        -11    1    3    3    0    0  0.16096502068E+02  0.15059846289E+02  0.25563235380E+02  0.33754634533E+02  0.51100000000E-03 0.  1.
         12    1    3    3    0    0 -0.80707199638E+00  0.27350843198E+01 -0.16059282803E+01  0.32727751351E+01  0.00000000000E+00 0. -1.
</event>
<event>
 7    1  0.2339217E-009  0.4778727E+02  0.7816164E-02  0.1312668E+00
        -11   -1    0    0    0    0  0.00000000000E+00  0.00000000000E+00  0.45593999997E+02  0.45594000000E+02  0.51100000000E-03 0. -1.
         11   -1    0    0    0    0 -0.00000000000E+00 -0.00000000000E+00 -0.45593999997E+02  0.45594000000E+02  0.51100000000E-03 0.  1.
    9900012    2    1    2    0    0 -0.33297835680E+02 -0.48956911414E+01 -0.27402733160E+02  0.47787269161E+02  0.19999991413E+02 0.  0.
         12    1    1    2    0    0  0.33297835680E+02  0.48956911414E+01  0.27402733160E+02  0.43400730839E+02  0.00000000000E+00 0. -1.
         11    1    3    3    0    0  0.20019893164E+01 -0.13028304120E+01 -0.19880240707E+01  0.31076628312E+01  0.51100000000E-03 0.  1.
        -11    1    3    3    0    0 -0.33593631216E+01 -0.76473870251E+00  0.46087866038E+00  0.34759970176E+01  0.51100000000E-03 0. -1.
        -12    1    3    3    0    0 -0.31940461874E+02 -0.28281220269E+01 -0.25875587750E+02  0.41203609312E+02  0.00000000000E+00 0.  1.
</event>
<event>
 7    1  0.2339217E-009  0.4778727E+02  0.7816164E-02  0.1312668E+00
        -11   -1    0    0    0    0  0.00000000000E+00  0.00000000000E+00  0.45593999997E+02  0.45594000000E+02  0.51100000000E-03 0. -1.
         11   -1    0    0    0    0 -0.00000000000E+00 -0.00000000000E+00 -0.45593999997E+02  0.45594000000E+02  0.51100000000E-03 0.  1.
    9900012    2    1    2    0    0  0.34224001354E+02 -0.21777136564E+02  0.15430407555E+02  0.47787269327E+02  0.19999992169E+02 0.  0.
         12    1    1    2    0    0 -0.34224001354E+02  0.21777136564E+02 -0.15430407555E+02  0.43400730673E+02  0.00000000000E+00 0. -1.
         11    1    3    3    0    0  0.13449134492E+00 -0.22593631397E+01  0.31966534419E+01  0.39168103359E+01  0.51100000000E-03 0. -1.
        -11    1    3    3    0    0  0.11771232507E+02  0.32534491909E+00  0.50699946653E+00  0.11786637043E+02  0.51100000000E-03 0.  1.
         12    1    3    3    0    0  0.22318277502E+02 -0.19843118344E+02  0.11726754647E+02  0.32083821948E+02  0.00000000000E+00 0. -1.
</event>
<event>
 7    1  0.2339217E-009  0.4778727E+02  0.7816164E-02  0.1312668E+00
        -11   -1    0    0    0    0  0.00000000000E+00  0.00000000000E+00  0.45593999997E+02  0.45594000000E+02  0.51100000000E-03 0.  1.
         11   -1    0    0    0    0 -0.00000000000E+00 -0.00000000000E+00 -0.45593999997E+02  0.45594000000E+02  0.51100000000E-03 0. -1.
    9900012    2    1    2    0    0 -0.28972504154E+02 -0.11138367518E+02  0.30334043021E+02  0.47787269662E+02  0.19999993695E+02 0.  0.
         12    1    1    2    0    0  0.28972504154E+02  0.11138367518E+02 -0.30334043021E+02  0.43400730338E+02  0.00000000000E+00 0. -1.
         11    1    3    3    0    0  0.77503981103E+00 -0.14131794844E+01  0.73624122391E+00  0.17719521339E+01  0.51100000000E-03 0. -1.
        -11    1    3    3    0    0 -0.19680022089E+02 -0.11467153658E+02  0.27279863144E+02  0.35538568005E+02  0.51100000000E-03 0.  1.
         12    1    3    3    0    0 -0.10067521876E+02  0.17419656252E+01  0.23179386536E+01  0.10476749523E+02  0.00000000000E+00 0. -1.
</event>
<event>
 7    1  0.2339217E-009  0.4778727E+02  0.7816164E-02  0.1312668E+00
        -11   -1    0    0    0    0  0.00000000000E+00  0.00000000000E+00  0.45593999997E+02  0.45594000000E+02  0.51100000000E-03 0.  1.
         11   -1    0    0    0    0 -0.00000000000E+00 -0.00000000000E+00 -0.45593999997E+02  0.45594000000E+02  0.51100000000E-03 0. -1.
    9900012    2    1    2    0    0 -0.15741446754E+02 -0.39095274233E+01  0.40255998844E+02  0.47787274274E+02  0.20000014724E+02 0.  0.
         12    1    1    2    0    0  0.15741446754E+02  0.39095274233E+01 -0.40255998844E+02  0.43400725726E+02  0.00000000000E+00 0. -1.
         11    1    3    3    0    0 -0.15063737083E+01 -0.36435644335E+01  0.17100958781E+02  0.17549573072E+02  0.51100000000E-03 0. -1.
        -11    1    3    3    0    0 -0.57996357019E+01 -0.15060967416E+01  0.20424071195E+02  0.21284895727E+02  0.51100000000E-03 0.  1.
        -12    1    3    3    0    0 -0.84354373441E+01  0.12401337518E+01  0.27309688686E+01  0.89528054748E+01  0.00000000000E+00 0.  1.
</event>
<event>
 7    1  0.2339217E-009  0.4778727E+02  0.7816164E-02  0.1312668E+00
        -11   -1    0    0    0    0  0.00000000000E+00  0.00000000000E+00  0.45593999997E+02  0.45594000000E+02  0.51100000000E-03 0.  1.
         11   -1    0    0    0    0 -0.00000000000E+00 -0.00000000000E+00 -0.45593999997E+02  0.45594000000E+02  0.51100000000E-03 0. -1.
    9900012    2    1    2    0    0  0.19702057266E+02 -0.21141993222E+02  0.32380060001E+02  0.47787271624E+02  0.20000002642E+02 0.  0.
         12    1    1    2    0    0 -0.19702057266E+02  0.21141993222E+02 -0.32380060001E+02  0.43400728376E+02  0.00000000000E+00 0. -1.
         11    1    3    3    0    0  0.56170335132E+01 -0.16662646576E+01  0.28377032080E+01  0.65099971702E+01  0.51100000000E-03 0. -1.
        -11    1    3    3    0    0  0.86771053806E+01 -0.11489467257E+00  0.78303140266E+01  0.11688420620E+02  0.51100000000E-03 0.  1.
        -12    1    3    3    0    0  0.54079183726E+01 -0.19360833892E+02  0.21712042766E+02  0.29588853834E+02  0.00000000000E+00 0.  1.
</event>
<event>
 7    1  0.2339217E-009  0.4778727E+02  0.7816164E-02  0.1312668E+00
        -11   -1    0    0    0    0  0.00000000000E+00  0.00000000000E+00  0.45593999997E+02  0.45594000000E+02  0.51100000000E-03 0.  1.
         11   -1    0    0    0    0 -0.00000000000E+00 -0.00000000000E+00 -0.45593999997E+02  0.45594000000E+02  0.51100000000E-03 0. -1.
    9900012    2    1    2    0    0  0.24198104135E+02  0.34035324412E+02  0.11818282464E+02  0.47787270144E+02  0.19999995896E+02 0.  0.
         12    1    1    2    0    0 -0.24198104135E+02 -0.34035324412E+02 -0.11818282464E+02  0.43400729856E+02  0.00000000000E+00 0. -1.
         11    1    3    3    0    0  0.69058688531E+01  0.48326245092E+01  0.42373989834E+01  0.94340253693E+01  0.51100000000E-03 0. -1.
        -11    1    3    3    0    0  0.10645058933E+02  0.40457173724E+01  0.40882257996E+01  0.12099533016E+02  0.51100000000E-03 0.  1.
        -12    1    3    3    0    0  0.66471763493E+01  0.25156982531E+02  0.34926576813E+01  0.26253711759E+02  0.00000000000E+00 0.  1.
</event>
<event>
 7    1  0.2339217E-009  0.4778727E+02  0.7816164E-02  0.1312668E+00
        -11   -1    0    0    0    0  0.00000000000E+00  0.00000000000E+00  0.45593999997E+02  0.45594000000E+02  0.51100000000E-03 0.  1.
         11   -1    0    0    0    0 -0.00000000000E+00 -0.00000000000E+00 -0.45593999997E+02  0.45594000000E+02  0.51100000000E-03 0. -1.
    9900012    2    1    2    0    0  0.26984303903E+02 -0.24221478016E+02  0.23849331385E+02  0.47787271183E+02  0.20000000630E+02 0.  0.
         12    1    1    2    0    0 -0.26984303903E+02  0.24221478016E+02 -0.23849331385E+02  0.43400728817E+02  0.00000000000E+00 0. -1.
         11    1    3    3    0    0 -0.17082580362E+01 -0.71727951448E+01  0.33406727427E+01  0.80948891495E+01  0.51100000000E-03 0. -1.
        -11    1    3    3    0    0  0.10654416361E+02 -0.56078376269E+01  0.11010178106E+02  0.16315282806E+02  0.51100000000E-03 0.  1.
        -12    1    3    3    0    0  0.18038145577E+02 -0.11440845244E+02  0.94984805362E+01  0.23377099227E+02  0.00000000000E+00 0.  1.
</event>
<event>
 7    1  0.2339217E-009  0.4778724E+02  0.7816164E-02  0.1312668E+00
        -11   -1    0    0    0    0  0.00000000000E+00  0.00000000000E+00  0.45593999997E+02  0.45594000000E+02  0.51100000000E-03 0. -1.
         11   -1    0    0    0    0 -0.00000000000E+00 -0.00000000000E+00 -0.45593999997E+02  0.45594000000E+02  0.51100000000E-03 0.  1.
    9900012    2    1    2    0    0 -0.24449851818E+02  0.35842651570E+02  0.10653590716E+01  0.47787240613E+02  0.19999861249E+02 0.  0.
         12    1    1    2    0    0  0.24449851818E+02 -0.35842651570E+02 -0.10653590716E+01  0.43400759387E+02  0.00000000000E+00 0. -1.
         11    1    3    3    0    0  0.74989668382E+00  0.12325219598E+01  0.24997027846E+01  0.28861686871E+01  0.51100000000E-03 0. -1.
        -11    1    3    3    0    0 -0.24395728970E+02  0.27279537507E+02  0.22332342986E+01  0.36664861848E+02  0.51100000000E-03 0.  1.
         12    1    3    3    0    0 -0.80401953143E+00  0.73305921023E+01 -0.36675780115E+01  0.82362100779E+01  0.00000000000E+00 0. -1.
</event>
<event>
 7    1  0.2339217E-009  0.4778727E+02  0.7816164E-02  0.1312668E+00
        -11   -1    0    0    0    0  0.00000000000E+00  0.00000000000E+00  0.45593999997E+02  0.45594000000E+02  0.51100000000E-03 0.  1.
         11   -1    0    0    0    0 -0.00000000000E+00 -0.00000000000E+00 -0.45593999997E+02  0.45594000000E+02  0.51100000000E-03 0. -1.
    9900012    2    1    2    0    0 -0.14001687730E+02 -0.20259659038E+02  0.35736844898E+02  0.47787272738E+02  0.20000007721E+02 0.  0.
         12    1    1    2    0    0  0.14001687730E+02  0.20259659038E+02 -0.35736844898E+02  0.43400727262E+02  0.00000000000E+00 0. -1.
         11    1    3    3    0    0 -0.40393628861E+00 -0.10830061363E+01  0.57749185421E+01  0.58894610319E+01  0.51100000000E-03 0. -1.
        -11    1    3    3    0    0 -0.13388592378E+02 -0.15241967081E+02  0.31664052630E+02  0.37605640475E+02  0.51100000000E-03 0.  1.
         12    1    3    3    0    0 -0.20915906346E+00 -0.39346858206E+01 -0.17021262739E+01  0.42921712306E+01  0.00000000000E+00 0. -1.
</event>
<event>
 7    1  0.2339217E-009  0.4778727E+02  0.7816164E-02  0.1312668E+00
        -11   -1    0    0    0    0  0.00000000000E+00  0.00000000000E+00  0.45593999997E+02  0.45594000000E+02  0.51100000000E-03 0.  1.
         11   -1    0    0    0    0 -0.00000000000E+00 -0.00000000000E+00 -0.45593999997E+02  0.45594000000E+02  0.51100000000E-03 0. -1.
    9900012    2    1    2    0    0  0.37434351562E+02 -0.20994133343E+02 -0.64450863778E+01  0.47787269014E+02  0.19999990742E+02 0.  0.
         12    1    1    2    0    0 -0.37434351562E+02  0.20994133343E+02  0.64450863778E+01  0.43400730986E+02  0.00000000000E+00 0. -1.
         11    1    3    3    0    0  0.21737477550E+02 -0.96706138262E+01 -0.74329383696E+01  0.24925634898E+02  0.51100000000E-03 0. -1.
        -11    1    3    3    0    0  0.17524624311E+02 -0.10178113413E+02  0.22040504921E+01  0.20385394004E+02  0.51100000000E-03 0.  1.
         12    1    3    3    0    0 -0.18277502984E+01 -0.11454061038E+01 -0.12161985004E+01  0.24762401112E+01  0.00000000000E+00 0. -1.
</event>
<event>
 7    1  0.2339217E-009  0.4778727E+02  0.7816164E-02  0.1312668E+00
        -11   -1    0    0    0    0  0.00000000000E+00  0.00000000000E+00  0.45593999997E+02  0.45594000000E+02  0.51100000000E-03 0.  1.
         11   -1    0    0    0    0 -0.00000000000E+00 -0.00000000000E+00 -0.45593999997E+02  0.45594000000E+02  0.51100000000E-03 0. -1.
    9900012    2    1    2    0    0 -0.33957767995E+02 -0.26350468724E+02  0.60121421893E+01  0.47787273475E+02  0.20000011083E+02 0.  0.
         12    1    1    2    0    0  0.33957767995E+02  0.26350468724E+02 -0.60121421893E+01  0.43400726525E+02  0.00000000000E+00 0. -1.
         11    1    3    3    0    0 -0.38807560542E+01 -0.19039367382E+01 -0.24630322814E+01  0.49751151681E+01  0.51100000000E-03 0. -1.
        -11    1    3    3    0    0 -0.22918684818E+02 -0.25831385179E+02  0.56462339372E+01  0.34991520858E+02  0.51100000000E-03 0.  1.
        -12    1    3    3    0    0 -0.71583271230E+01  0.13848531932E+01  0.28289405334E+01  0.78206374489E+01  0.00000000000E+00 0.  1.
</event>
<event>
 7    1  0.2339217E-009  0.4778728E+02  0.7816164E-02  0.1312668E+00
        -11   -1    0    0    0    0  0.00000000000E+00  0.00000000000E+00  0.45593999997E+02  0.45594000000E+02  0.51100000000E-03 0.  1.
         11   -1    0    0    0    0 -0.00000000000E+00 -0.00000000000E+00 -0.45593999997E+02  0.45594000000E+02  0.51100000000E-03 0. -1.
    9900012    2    1    2    0    0  0.11279881513E+01 -0.26257692981E+02  0.34538153258E+02  0.47787276176E+02  0.20000023396E+02 0.  0.
         12    1    1    2    0    0 -0.11279881513E+01  0.26257692981E+02 -0.34538153258E+02  0.43400723824E+02  0.00000000000E+00 0. -1.
         11    1    3    3    0    0 -0.13399617677E+00 -0.23262543587E+01 -0.19343334151E+00  0.23381255388E+01  0.51100000000E-03 0. -1.
        -11    1    3    3    0    0  0.48010696524E+00 -0.27641605073E+01  0.18635750741E+02  0.18845749970E+02  0.51100000000E-03 0.  1.
        -12    1    3    3    0    0  0.78187736287E+00 -0.21167278115E+02  0.16095835859E+02  0.26603400666E+02  0.00000000000E+00 0.  1.
</event>
<event>
 7    1  0.2339217E-009  0.4778727E+02  0.7816164E-02  0.1312668E+00
        -11   -1    0    0    0    0  0.00000000000E+00  0.00000000000E+00  0.45593999997E+02  0.45594000000E+02  0.51100000000E-03 0.  1.
         11   -1    0    0    0    0 -0.00000000000E+00 -0.00000000000E+00 -0.45593999997E+02  0.45594000000E+02  0.51100000000E-03 0. -1.
    9900012    2    1    2    0    0 -0.97511650805E+01  0.18897767398E+02  0.37834011079E+02  0.47787271580E+02  0.20000002442E+02 0.  0.
         12    1    1    2    0    0  0.97511650805E+01 -0.18897767398E+02 -0.37834011079E+02  0.43400728420E+02  0.00000000000E+00 0. -1.
         11    1    3    3    0    0 -0.32355231164E+01 -0.20158891424E+01  0.10804072961E+01  0.39622845756E+01  0.51100000000E-03 0. -1.
        -11    1    3    3    0    0 -0.15382491774E+01  0.17293041819E+01  0.11459086425E+02  0.11690481831E+02  0.51100000000E-03 0.  1.
        -12    1    3    3    0    0 -0.49773927867E+01  0.19184352359E+02  0.25294517358E+02  0.32134505173E+02  0.00000000000E+00 0.  1.
</event>
<event>
 7    1  0.2339217E-009  0.4778727E+02  0.7816164E-02  0.1312668E+00
        -11   -1    0    0    0    0  0.00000000000E+00  0.00000000000E+00  0.45593999997E+02  0.45594000000E+02  0.51100000000E-03 0.  1.
         11   -1    0    0    0    0 -0.00000000000E+00 -0.00000000000E+00 -0.45593999997E+02  0.45594000000E+02  0.51100000000E-03 0. -1.
    9900012    2    1    2    0    0  0.42447074772E+00  0.42575102862E+02  0.84144995089E+01  0.47787270039E+02  0.19999995417E+02 0.  0.
         12    1    1    2    0    0 -0.42447074772E+00 -0.42575102862E+02 -0.84144995089E+01  0.43400729961E+02  0.00000000000E+00 0. -1.
         11    1    3    3    0    0 -0.99346560855E+00  0.21797669026E+01  0.32448102774E+01  0.40332557150E+01  0.51100000000E-03 0. -1.
        -11    1    3    3    0    0  0.35307001348E+01  0.22826072980E+02  0.10357359950E+02  0.25313442210E+02  0.51100000000E-03 0.  1.
        -12    1    3    3    0    0 -0.21127637785E+01  0.17569262979E+02 -0.51876707182E+01  0.18440572114E+02  0.00000000000E+00 0.  1.
</event>
<event>
 7    1  0.2339217E-009  0.4778724E+02  0.7816164E-02  0.1312668E+00
        -11   -1    0    0    0    0  0.00000000000E+00  0.00000000000E+00  0.45593999997E+02  0.45594000000E+02  0.51100000000E-03 0.  1.
         11   -1    0    0    0    0 -0.00000000000E+00 -0.00000000000E+00 -0.45593999997E+02  0.45594000000E+02  0.51100000000E-03 0. -1.
    9900012    2    1    2    0    0 -0.52212421324E+01  0.63003974721E+01  0.42622411244E+02  0.47787235975E+02  0.19999840103E+02 0.  0.
         12    1    1    2    0    0  0.52212421324E+01 -0.63003974721E+01 -0.42622411244E+02  0.43400764025E+02  0.00000000000E+00 0. -1.
         11    1    3    3    0    0 -0.15947053469E+01 -0.60542878628E+00 -0.35206160937E+00  0.17417166235E+01  0.51100000000E-03 0. -1.
        -11    1    3    3    0    0  0.98722221589E+00  0.92982376170E+01  0.15645186566E+02  0.18226455866E+02  0.51100000000E-03 0.  1.
         12    1    3    3    0    0 -0.46137590014E+01 -0.23924113587E+01  0.27329286288E+02  0.27819063486E+02  0.00000000000E+00 0. -1.
</event>
<event>
 7    1  0.2339217E-009  0.4778727E+02  0.7816164E-02  0.1312668E+00
        -11   -1    0    0    0    0  0.00000000000E+00  0.00000000000E+00  0.45593999997E+02  0.45594000000E+02  0.51100000000E-03 0.  1.
         11   -1    0    0    0    0 -0.00000000000E+00 -0.00000000000E+00 -0.45593999997E+02  0.45594000000E+02  0.51100000000E-03 0. -1.
    9900012    2    1    2    0    0 -0.37543659062E+02  0.60049544678E+01 -0.20929337628E+02  0.47787274344E+02  0.20000015042E+02 0.  0.
         12    1    1    2    0    0  0.37543659062E+02 -0.60049544678E+01  0.20929337628E+02  0.43400725656E+02  0.00000000000E+00 0. -1.
         11    1    3    3    0    0 -0.17188087648E+02 -0.27542574774E+01 -0.69162188350E+01  0.18731000360E+02  0.51100000000E-03 0. -1.
        -11    1    3    3    0    0 -0.58623260186E+01 -0.21467615628E+01 -0.75595236754E+01  0.98041751318E+01  0.51100000000E-03 0.  1.
         12    1    3    3    0    0 -0.14493245396E+02  0.10905973508E+02 -0.64535951180E+01  0.19252098852E+02  0.00000000000E+00 0. -1.
</event>
<event>
 7    1  0.2339217E-009  0.4778727E+02  0.7816164E-02  0.1312668E+00
        -11   -1    0    0    0    0  0.00000000000E+00  0.00000000000E+00  0.45593999997E+02  0.45594000000E+02  0.51100000000E-03 0.  1.
         11   -1    0    0    0    0 -0.00000000000E+00 -0.00000000000E+00 -0.45593999997E+02  0.45594000000E+02  0.51100000000E-03 0. -1.
    9900012    2    1    2    0    0  0.40252028174E+02 -0.14825760528E+02  0.66025873721E+01  0.47787272963E+02  0.20000008749E+02 0.  0.
         12    1    1    2    0    0 -0.40252028174E+02  0.14825760528E+02 -0.66025873721E+01  0.43400727037E+02  0.00000000000E+00 0. -1.
         11    1    3    3    0    0  0.15395083350E+02 -0.13506220705E+02  0.41823735308E+01  0.20902603611E+02  0.51100000000E-03 0. -1.
        -11    1    3    3    0    0  0.12907611569E+02 -0.54278919417E+01  0.26288506141E+01  0.14247080513E+02  0.51100000000E-03 0.  1.
         12    1    3    3    0    0  0.11949333254E+02  0.41083521194E+01 -0.20863677281E+00  0.12637588839E+02  0.00000000000E+00 0. -1.
</event>
<event>
 7    1  0.2339217E-009  0.4778727E+02  0.7816164E-02  0.1312668E+00
        -11   -1    0    0    0    0  0.00000000000E+00  0.00000000000E+00  0.45593999997E+02  0.45594000000E+02  0.51100000000E-03 0. -1.
         11   -1    0    0    0    0 -0.00000000000E+00 -0.00000000000E+00 -0.45593999997E+02  0.45594000000E+02  0.51100000000E-03 0.  1.
    9900012    2    1    2    0    0 -0.39924391129E+02 -0.12530480320E+02  0.11517515894E+02  0.47787272858E+02  0.20000008269E+02 0.  0.
         12    1    1    2    0    0  0.39924391129E+02  0.12530480320E+02 -0.11517515894E+02  0.43400727142E+02  0.00000000000E+00 0. -1.
         11    1    3    3    0    0 -0.14421136995E+02 -0.23287336221E+01  0.11288914793E+02  0.18461630209E+02  0.51100000000E-03 0. -1.
        -11    1    3    3    0    0 -0.40063919121E+01 -0.57402616404E+00  0.37402912604E+01  0.55109401343E+01  0.51100000000E-03 0.  1.
        -12    1    3    3    0    0 -0.21496862222E+02 -0.96277205340E+01 -0.35116901602E+01  0.23814702515E+02  0.00000000000E+00 0.  1.
</event>
<event>
 7    1  0.2339217E-009  0.4778727E+02  0.7816164E-02  0.1312668E+00
        -11   -1    0    0    0    0  0.00000000000E+00  0.00000000000E+00  0.45593999997E+02  0.45594000000E+02  0.51100000000E-03 0. -1.
         11   -1    0    0    0    0 -0.00000000000E+00 -0.00000000000E+00 -0.45593999997E+02  0.45594000000E+02  0.51100000000E-03 0.  1.
    9900012    2    1    2    0    0 -0.21854624858E+02 -0.35165404192E+02  0.13015116033E+02  0.47787268151E+02  0.19999986808E+02 0.  0.
         12    1    1    2    0    0  0.21854624858E+02  0.35165404192E+02 -0.13015116033E+02  0.43400731849E+02  0.00000000000E+00 0. -1.
         11    1    3    3    0    0 -0.79014181790E+01 -0.66488068613E+01  0.55991363981E+01  0.11746887698E+02  0.51100000000E-03 0. -1.
        -11    1    3    3    0    0 -0.14915059254E+02 -0.13692730950E+02  0.60025537327E+01  0.21118250993E+02  0.51100000000E-03 0.  1.
         12    1    3    3    0    0  0.96185257517E+00 -0.14823866381E+02  0.14134259019E+01  0.14922129461E+02  0.00000000000E+00 0. -1.
</event>
<event>
 7    1  0.2339217E-009  0.4778727E+02  0.7816164E-02  0.1312668E+00
        -11   -1    0    0    0    0  0.00000000000E+00  0.00000000000E+00  0.45593999997E+02  0.45594000000E+02  0.51100000000E-03 0.  1.
         11   -1    0    0    0    0 -0.00000000000E+00 -0.00000000000E+00 -0.45593999997E+02  0.45594000000E+02  0.51100000000E-03 0. -1.
    9900012    2    1    2    0    0 -0.47590989966E+01  0.18505978104E+02  0.38967971266E+02  0.47787273814E+02  0.20000012629E+02 0.  0.
         12    1    1    2    0    0  0.47590989966E+01 -0.18505978104E+02 -0.38967971266E+02  0.43400726186E+02  0.00000000000E+00 0. -1.
         11    1    3    3    0    0  0.56175066328E+01  0.10134638363E+02  0.12100492848E+02  0.16753781750E+02  0.51100000000E-03 0. -1.
        -11    1    3    3    0    0 -0.19299088954E+01  0.49930095675E+01  0.15940185669E+02  0.16814999623E+02  0.51100000000E-03 0.  1.
         12    1    3    3    0    0 -0.84466967341E+01  0.33783301736E+01  0.10927292749E+02  0.14218492441E+02  0.00000000000E+00 0. -1.
</event>
<event>
 7    1  0.2339217E-009  0.4778728E+02  0.7816164E-02  0.1312668E+00
        -11   -1    0    0    0    0  0.00000000000E+00  0.00000000000E+00  0.45593999997E+02  0.45594000000E+02  0.51100000000E-03 0.  1.
         11   -1    0    0    0    0 -0.00000000000E+00 -0.00000000000E+00 -0.45593999997E+02  0.45594000000E+02  0.51100000000E-03 0. -1.
    9900012    2    1    2    0    0  0.41003402052E+02  0.60864070656E+01  0.12856880707E+02  0.47787277514E+02  0.20000029497E+02 0.  0.
         12    1    1    2    0    0 -0.41003402052E+02 -0.60864070656E+01 -0.12856880707E+02  0.43400722486E+02  0.00000000000E+00 0. -1.
         11    1    3    3    0    0  0.92873857528E+01 -0.51481735043E+01  0.34916560772E+01  0.11178143270E+02  0.51100000000E-03 0. -1.
        -11    1    3    3    0    0  0.24260416534E+01  0.26920157806E+01 -0.18923170745E+01  0.40882136978E+01  0.51100000000E-03 0.  1.
        -12    1    3    3    0    0  0.29289974646E+02  0.85425647893E+01  0.11257541704E+02  0.32520920546E+02  0.00000000000E+00 0.  1.
</event>
<event>
 7    1  0.2339217E-009  0.4778727E+02  0.7816164E-02  0.1312668E+00
        -11   -1    0    0    0    0  0.00000000000E+00  0.00000000000E+00  0.45593999997E+02  0.45594000000E+02  0.51100000000E-03 0.  1.
         11   -1    0    0    0    0 -0.00000000000E+00 -0.00000000000E+00 -0.45593999997E+02  0.45594000000E+02  0.51100000000E-03 0. -1.
    9900012    2    1    2    0    0  0.85103081293E+01  0.70255637969E+01  0.41974271285E+02  0.47787270270E+02  0.19999996471E+02 0.  0.
         12    1    1    2    0    0 -0.85103081293E+01 -0.70255637969E+01 -0.41974271285E+02  0.43400729730E+02  0.00000000000E+00 0. -1.
         11    1    3    3    0    0  0.58063303584E+01  0.11424599024E+01  0.98779861666E+01  0.11514916319E+02  0.51100000000E-03 0. -1.
        -11    1    3    3    0    0  0.66436878189E+01 -0.19400964510E+01  0.21145591919E+02  0.22249463363E+02  0.51100000000E-03 0.  1.
         12    1    3    3    0    0 -0.39397100480E+01  0.78232003456E+01  0.10950693200E+02  0.14022890589E+02  0.00000000000E+00 0. -1.
</event>
<event>
 7    1  0.2339217E-009  0.4778727E+02  0.7816164E-02  0.1312668E+00
        -11   -1    0    0    0    0  0.00000000000E+00  0.00000000000E+00  0.45593999997E+02  0.45594000000E+02  0.51100000000E-03 0.  1.
         11   -1    0    0    0    0 -0.00000000000E+00 -0.00000000000E+00 -0.45593999997E+02  0.45594000000E+02  0.51100000000E-03 0. -1.
    9900012    2    1    2    0    0 -0.21081843963E+01 -0.24802163366E+02  0.35553225853E+02  0.47787267084E+02  0.19999981941E+02 0.  0.
         12    1    1    2    0    0  0.21081843963E+01  0.24802163366E+02 -0.35553225853E+02  0.43400732916E+02  0.00000000000E+00 0. -1.
         11    1    3    3    0    0  0.46040733510E+01 -0.22219084437E+02  0.31401784810E+02  0.38742190106E+02  0.51100000000E-03 0. -1.
        -11    1    3    3    0    0 -0.19196120754E+01 -0.13040715121E+01  0.32656359198E+01  0.40062315522E+01  0.51100000000E-03 0.  1.
         12    1    3    3    0    0 -0.47926456720E+01 -0.12790074168E+01  0.88580512345E+00  0.50388454259E+01  0.00000000000E+00 0. -1.
</event>
<event>
 7    1  0.2339217E-009  0.4778727E+02  0.7816164E-02  0.1312668E+00
        -11   -1    0    0    0    0  0.00000000000E+00  0.00000000000E+00  0.45593999997E+02  0.45594000000E+02  0.51100000000E-03 0. -1.
         11   -1    0    0    0    0 -0.00000000000E+00 -0.00000000000E+00 -0.45593999997E+02  0.45594000000E+02  0.51100000000E-03 0.  1.
    9900012    2    1    2    0    0 -0.25705163741E+02 -0.34671960144E+02  0.45522611953E+01  0.47787270223E+02  0.19999996254E+02 0.  0.
         12    1    1    2    0    0  0.25705163741E+02  0.34671960144E+02 -0.45522611953E+01  0.43400729777E+02  0.00000000000E+00 0. -1.
         11    1    3    3    0    0 -0.85821900479E+01 -0.92591048151E+01 -0.13429436841E+01  0.12696003544E+02  0.51100000000E-03 0. -1.
        -11    1    3    3    0    0 -0.15111058368E+02 -0.21161481484E+02 -0.18079592768E+01  0.26065707368E+02  0.51100000000E-03 0.  1.
         12    1    3    3    0    0 -0.20119153249E+01 -0.42513738451E+01  0.77031641563E+01  0.90255593103E+01  0.00000000000E+00 0. -1.
</event>
<event>
 7    1  0.2339217E-009  0.4778728E+02  0.7816164E-02  0.1312668E+00
        -11   -1    0    0    0    0  0.00000000000E+00  0.00000000000E+00  0.45593999997E+02  0.45594000000E+02  0.51100000000E-03 0.  1.
         11   -1    0    0    0    0 -0.00000000000E+00 -0.00000000000E+00 -0.45593999997E+02  0.45594000000E+02  0.51100000000E-03 0. -1.
    9900012    2    1    2    0    0 -0.18257331853E+02 -0.15056451356E+02  0.36381259079E+02  0.47787275283E+02  0.20000019325E+02 0.  0.
         12    1    1    2    0    0  0.18257331853E+02  0.15056451356E+02 -0.36381259079E+02  0.43400724717E+02  0.00000000000E+00 0. -1.
         11    1    3    3    0    0  0.80090730560E+00 -0.14027504050E+01 -0.93967308732E+00  0.18687287077E+01  0.51100000000E-03 0. -1.
        -11    1    3    3    0    0 -0.82499199816E+01  0.82726325459E+00  0.15578361169E+02  0.17647404375E+02  0.51100000000E-03 0.  1.
        -12    1    3    3    0    0 -0.10808319177E+02 -0.14480964205E+02  0.21742570997E+02  0.28271142200E+02  0.00000000000E+00 0.  1.
</event>
<event>
 7    1  0.2339217E-009  0.4778727E+02  0.7816164E-02  0.1312668E+00
        -11   -1    0    0    0    0  0.00000000000E+00  0.00000000000E+00  0.45593999997E+02  0.45594000000E+02  0.51100000000E-03 0. -1.
         11   -1    0    0    0    0 -0.00000000000E+00 -0.00000000000E+00 -0.45593999997E+02  0.45594000000E+02  0.51100000000E-03 0.  1.
    9900012    2    1    2    0    0  0.11714316463E+02 -0.40390469273E+02 -0.10724197141E+02  0.47787267027E+02  0.19999981682E+02 0.  0.
         12    1    1    2    0    0 -0.11714316463E+02  0.40390469273E+02  0.10724197141E+02  0.43400732973E+02  0.00000000000E+00 0. -1.
         11    1    3    3    0    0  0.54922990258E+01 -0.11519670449E+02 -0.11294239695E+02  0.17041948433E+02  0.51100000000E-03 0. -1.
        -11    1    3    3    0    0 -0.71653621529E+00 -0.86051881352E+01 -0.27647308187E+01  0.90667758189E+01  0.51100000000E-03 0.  1.
        -12    1    3    3    0    0  0.69385536530E+01 -0.20265610689E+02  0.33347733729E+01  0.21678542775E+02  0.00000000000E+00 0.  1.
</event>
<event>
 7    1  0.2339217E-009  0.4778727E+02  0.7816164E-02  0.1312668E+00
        -11   -1    0    0    0    0  0.00000000000E+00  0.00000000000E+00  0.45593999997E+02  0.45594000000E+02  0.51100000000E-03 0.  1.
         11   -1    0    0    0    0 -0.00000000000E+00 -0.00000000000E+00 -0.45593999997E+02  0.45594000000E+02  0.51100000000E-03 0. -1.
    9900012    2    1    2    0    0  0.22216070667E+01  0.63663308251E+00  0.43339155100E+02  0.47787271844E+02  0.20000003646E+02 0.  0.
         12    1    1    2    0    0 -0.22216070667E+01 -0.63663308251E+00 -0.43339155100E+02  0.43400728156E+02  0.00000000000E+00 0. -1.
         11    1    3    3    0    0  0.95524468238E+01  0.12339584445E+01  0.15404893094E+02  0.18168176168E+02  0.51100000000E-03 0. -1.
        -11    1    3    3    0    0  0.79872471562E+00  0.40652970151E+00  0.82494967247E+01  0.82980373608E+01  0.51100000000E-03 0.  1.
         12    1    3    3    0    0 -0.81295644727E+01 -0.10038550635E+01  0.19684765281E+02  0.21321058315E+02  0.00000000000E+00 0. -1.
</event>
<event>
 7    1  0.2339217E-009  0.4778727E+02  0.7816164E-02  0.1312668E+00
        -11   -1    0    0    0    0  0.00000000000E+00  0.00000000000E+00  0.45593999997E+02  0.45594000000E+02  0.51100000000E-03 0.  1.
         11   -1    0    0    0    0 -0.00000000000E+00 -0.00000000000E+00 -0.45593999997E+02  0.45594000000E+02  0.51100000000E-03 0. -1.
    9900012    2    1    2    0    0 -0.20478436516E+02 -0.37639480146E+02 -0.68939346895E+01  0.47787272318E+02  0.20000005806E+02 0.  0.
         12    1    1    2    0    0  0.20478436516E+02  0.37639480146E+02  0.68939346895E+01  0.43400727682E+02  0.00000000000E+00 0. -1.
         11    1    3    3    0    0 -0.39075930606E+01  0.23943426061E+00 -0.12289754499E+01  0.41032905344E+01  0.51100000000E-03 0. -1.
        -11    1    3    3    0    0 -0.13940939177E+02 -0.17327480098E+02 -0.13557482228E+00  0.22239823122E+02  0.51100000000E-03 0.  1.
        -12    1    3    3    0    0 -0.26299042779E+01 -0.20551434309E+02 -0.55293844173E+01  0.21444158662E+02  0.00000000000E+00 0.  1.
</event>
<event>
 7    1  0.2339217E-009  0.4778726E+02  0.7816164E-02  0.1312668E+00
        -11   -1    0    0    0    0  0.00000000000E+00  0.00000000000E+00  0.45593999997E+02  0.45594000000E+02  0.51100000000E-03 0. -1.
         11   -1    0    0    0    0 -0.00000000000E+00 -0.00000000000E+00 -0.45593999997E+02  0.45594000000E+02  0.51100000000E-03 0.  1.
    9900012    2    1    2    0    0 -0.28642860000E+02  0.10866346132E+02 -0.30743018513E+02  0.47787261590E+02  0.19999956894E+02 0.  0.
         12    1    1    2    0    0  0.28642860000E+02 -0.10866346132E+02  0.30743018513E+02  0.43400738410E+02  0.00000000000E+00 0. -1.
         11    1    3    3    0    0 -0.27348577772E+01 -0.20814074051E+01 -0.40652252727E+01  0.53233223298E+01  0.51100000000E-03 0. -1.
        -11    1    3    3    0    0 -0.60865186613E+01 -0.36102688410E+01 -0.73680656428E+01  0.10216072733E+02  0.51100000000E-03 0.  1.
        -12    1    3    3    0    0 -0.19821483561E+02  0.16558022378E+02 -0.19309727598E+02  0.32247866527E+02  0.00000000000E+00 0.  1.
</event>
<event>
 7    1  0.2339217E-009  0.4778727E+02  0.7816164E-02  0.1312668E+00
        -11   -1    0    0    0    0  0.00000000000E+00  0.00000000000E+00  0.45593999997E+02  0.45594000000E+02  0.51100000000E-03 0.  1.
         11   -1    0    0    0    0 -0.00000000000E+00 -0.00000000000E+00 -0.45593999997E+02  0.45594000000E+02  0.51100000000E-03 0. -1.
    9900012    2    1    2    0    0 -0.18094119487E+02 -0.13608083942E+02  0.37027640554E+02  0.47787271048E+02  0.20000000015E+02 0.  0.
         12    1    1    2    0    0  0.18094119487E+02  0.13608083942E+02 -0.37027640554E+02  0.43400728952E+02  0.00000000000E+00 0. -1.
         11    1    3    3    0    0 -0.51438990547E+01  0.14235137752E+01  0.70168013602E+01  0.88159849445E+01  0.51100000000E-03 0. -1.
        -11    1    3    3    0    0 -0.11582313210E+02 -0.31425044636E+01  0.20201149723E+02  0.23497058624E+02  0.51100000000E-03 0.  1.
         12    1    3    3    0    0 -0.13679072222E+01 -0.11889093253E+02  0.98096894709E+01  0.15474227479E+02  0.00000000000E+00 0. -1.
</event>
<event>
 7    1  0.2339217E-009  0.4778727E+02  0.7816164E-02  0.1312668E+00
        -11   -1    0    0    0    0  0.00000000000E+00  0.00000000000E+00  0.45593999997E+02  0.45594000000E+02  0.51100000000E-03 0.  1.
         11   -1    0    0    0    0 -0.00000000000E+00 -0.00000000000E+00 -0.45593999997E+02  0.45594000000E+02  0.51100000000E-03 0. -1.
    9900012    2    1    2    0    0 -0.36934935997E+02  0.69042210115E+01  0.21720156333E+02  0.47787274706E+02  0.20000016696E+02 0.  0.
         12    1    1    2    0    0  0.36934935997E+02 -0.69042210115E+01 -0.21720156333E+02  0.43400725294E+02  0.00000000000E+00 0. -1.
         11    1    3    3    0    0 -0.13221341897E+02  0.89135508740E+00  0.88084603515E-01  0.13251647242E+02  0.51100000000E-03 0. -1.
        -11    1    3    3    0    0 -0.11780088158E+02  0.63793956346E+01  0.55367540747E+01  0.14495613530E+02  0.51100000000E-03 0.  1.
         12    1    3    3    0    0 -0.11933505942E+02 -0.36652971050E+00  0.16095317655E+02  0.20040013934E+02  0.00000000000E+00 0. -1.
</event>
<event>
 7    1  0.2339217E-009  0.4778727E+02  0.7816164E-02  0.1312668E+00
        -11   -1    0    0    0    0  0.00000000000E+00  0.00000000000E+00  0.45593999997E+02  0.45594000000E+02  0.51100000000E-03 0.  1.
         11   -1    0    0    0    0 -0.00000000000E+00 -0.00000000000E+00 -0.45593999997E+02  0.45594000000E+02  0.51100000000E-03 0. -1.
    9900012    2    1    2    0    0  0.20226763245E+02  0.22963496026E+02  0.30776277375E+02  0.47787270166E+02  0.19999995993E+02 0.  0.
         12    1    1    2    0    0 -0.20226763245E+02 -0.22963496026E+02 -0.30776277375E+02  0.43400729834E+02  0.00000000000E+00 0. -1.
         11    1    3    3    0    0  0.24478012139E+01  0.30393711445E+01  0.37050774215E+01  0.53811807902E+01  0.51100000000E-03 0. -1.
        -11    1    3    3    0    0  0.14084021678E+02  0.22879591427E+02  0.26328138573E+02  0.37616568842E+02  0.51100000000E-03 0.  1.
         12    1    3    3    0    0  0.36949403535E+01 -0.29554665461E+01  0.74306138036E+00  0.47895205330E+01  0.00000000000E+00 0. -1.
</event>
<event>
 7    1  0.2339217E-009  0.4778726E+02  0.7816164E-02  0.1312668E+00
        -11   -1    0    0    0    0  0.00000000000E+00  0.00000000000E+00  0.45593999997E+02  0.45594000000E+02  0.51100000000E-03 0. -1.
         11   -1    0    0    0    0 -0.00000000000E+00 -0.00000000000E+00 -0.45593999997E+02  0.45594000000E+02  0.51100000000E-03 0.  1.
    9900012    2    1    2    0    0  0.15256672208E+02 -0.27783426171E+02 -0.29646905266E+02  0.47787264885E+02  0.19999971915E+02 0.  0.
         12    1    1    2    0    0 -0.15256672208E+02  0.27783426171E+02  0.29646905266E+02  0.43400735115E+02  0.00000000000E+00 0. -1.
         11    1    3    3    0    0 -0.19662292832E+00 -0.65917164068E+01 -0.44539219646E+01  0.79578142031E+01  0.51100000000E-03 0. -1.
        -11    1    3    3    0    0  0.14931513281E+02 -0.18019883424E+02 -0.12095463751E+02  0.26343244505E+02  0.51100000000E-03 0.  1.
        -12    1    3    3    0    0  0.52178185543E+00 -0.31718263410E+01 -0.13097519551E+02  0.13486206176E+02  0.00000000000E+00 0.  1.
</event>
<event>
 7    1  0.2339217E-009  0.4778727E+02  0.7816164E-02  0.1312668E+00
        -11   -1    0    0    0    0  0.00000000000E+00  0.00000000000E+00  0.45593999997E+02  0.45594000000E+02  0.51100000000E-03 0.  1.
         11   -1    0    0    0    0 -0.00000000000E+00 -0.00000000000E+00 -0.45593999997E+02  0.45594000000E+02  0.51100000000E-03 0. -1.
    9900012    2    1    2    0    0 -0.36326427294E+02 -0.10090265008E+02  0.21498846311E+02  0.47787272349E+02  0.20000005948E+02 0.  0.
         12    1    1    2    0    0  0.36326427294E+02  0.10090265008E+02 -0.21498846311E+02  0.43400727651E+02  0.00000000000E+00 0. -1.
         11    1    3    3    0    0 -0.98063972926E+01 -0.84973502675E+01  0.12301070852E+02  0.17879785619E+02  0.51100000000E-03 0. -1.
        -11    1    3    3    0    0 -0.12320525553E+02 -0.10209282435E+01  0.96595059575E+01  0.15688967461E+02  0.51100000000E-03 0.  1.
         12    1    3    3    0    0 -0.14199504449E+02 -0.57198649716E+00 -0.46173049800E+00  0.14218519269E+02  0.00000000000E+00 0. -1.
</event>
<event>
 7    1  0.2339217E-009  0.4778728E+02  0.7816164E-02  0.1312668E+00
        -11   -1    0    0    0    0  0.00000000000E+00  0.00000000000E+00  0.45593999997E+02  0.45594000000E+02  0.51100000000E-03 0. -1.
         11   -1    0    0    0    0 -0.00000000000E+00 -0.00000000000E+00 -0.45593999997E+02  0.45594000000E+02  0.51100000000E-03 0.  1.
    9900012    2    1    2    0    0 -0.15178884539E+02 -0.40126146186E+02 -0.65663297274E+01  0.47787276162E+02  0.20000023331E+02 0.  0.
         12    1    1    2    0    0  0.15178884539E+02  0.40126146186E+02  0.65663297274E+01  0.43400723838E+02  0.00000000000E+00 0. -1.
         11    1    3    3    0    0 -0.17578813501E+02 -0.23858458545E+02 -0.14445145946E+01  0.29670310934E+02  0.51100000000E-03 0.  1.
        -11    1    3    3    0    0  0.26872192733E+01 -0.77995641949E+01 -0.65133731922E-01  0.82497631310E+01  0.51100000000E-03 0. -1.
        -12    1    3    3    0    0 -0.28729031116E+00 -0.84681234466E+01 -0.50566814009E+01  0.98672020968E+01  0.00000000000E+00 0.  1.
</event>
<event>
 7    1  0.2339217E-009  0.4778727E+02  0.7816164E-02  0.1312668E+00
        -11   -1    0    0    0    0  0.00000000000E+00  0.00000000000E+00  0.45593999997E+02  0.45594000000E+02  0.51100000000E-03 0.  1.
         11   -1    0    0    0    0 -0.00000000000E+00 -0.00000000000E+00 -0.45593999997E+02  0.45594000000E+02  0.51100000000E-03 0. -1.
    9900012    2    1    2    0    0 -0.22739394576E+02  0.48104378509E+01  0.36652460740E+02  0.47787271246E+02  0.20000000921E+02 0.  0.
         12    1    1    2    0    0  0.22739394576E+02 -0.48104378509E+01 -0.36652460740E+02  0.43400728754E+02  0.00000000000E+00 0. -1.
         11    1    3    3    0    0 -0.69325555860E+01 -0.28599678441E+01  0.68497988608E+01  0.10156745922E+02  0.51100000000E-03 0. -1.
        -11    1    3    3    0    0 -0.39128385697E+01 -0.21147161737E+01  0.43472550533E+00  0.44689279133E+01  0.51100000000E-03 0.  1.
         12    1    3    3    0    0 -0.11894000421E+02  0.97851218686E+01  0.29367936374E+02  0.33161597411E+02  0.00000000000E+00 0. -1.
</event>
<event>
 7    1  0.2339217E-009  0.4778727E+02  0.7816164E-02  0.1312668E+00
        -11   -1    0    0    0    0  0.00000000000E+00  0.00000000000E+00  0.45593999997E+02  0.45594000000E+02  0.51100000000E-03 0. -1.
         11   -1    0    0    0    0 -0.00000000000E+00 -0.00000000000E+00 -0.45593999997E+02  0.45594000000E+02  0.51100000000E-03 0.  1.
    9900012    2    1    2    0    0  0.38425174460E+02  0.42129745554E+01 -0.19732718474E+02  0.47787269991E+02  0.19999995199E+02 0.  0.
         12    1    1    2    0    0 -0.38425174460E+02 -0.42129745554E+01  0.19732718474E+02  0.43400730009E+02  0.00000000000E+00 0. -1.
         11    1    3    3    0    0  0.45577798169E+01  0.30164469408E+01 -0.49129542933E+01  0.73491107731E+01  0.51100000000E-03 0. -1.
        -11    1    3    3    0    0  0.20314969461E+02  0.82404261938E+01 -0.57098453665E+01  0.22654027068E+02  0.51100000000E-03 0.  1.
         12    1    3    3    0    0  0.13552425183E+02 -0.70438985791E+01 -0.91099188141E+01  0.17784132150E+02  0.00000000000E+00 0. -1.
</event>
<event>
 7    1  0.2580149E-009  0.4778727E+02  0.7816164E-02  0.1312668E+00
        -11   -1    0    0    0    0  0.00000000000E+00  0.00000000000E+00  0.45593999997E+02  0.45594000000E+02  0.51100000000E-03 0. -1.
         11   -1    0    0    0    0 -0.00000000000E+00 -0.00000000000E+00 -0.45593999997E+02  0.45594000000E+02  0.51100000000E-03 0.  1.
    9900012    2    1    2    0    0  0.11449827918E+02 -0.23021009727E+02 -0.34965092332E+02  0.47787272702E+02  0.20000007559E+02 0.  0.
         12    1    1    2    0    0 -0.11449827918E+02  0.23021009727E+02  0.34965092332E+02  0.43400727298E+02  0.00000000000E+00 0. -1.
         11    1    3    3    0    0  0.97880037744E+00 -0.11590349112E+02 -0.92721897911E+01  0.14875071311E+02  0.51100000000E-03 0. -1.
        -11    1    3    3    0    0 -0.12951069057E+01  0.14360884401E+01 -0.89445855621E-01  0.19358855150E+01  0.51100000000E-03 0.  1.
        -12    1    3    3    0    0  0.11766134447E+02 -0.12866749055E+02 -0.25603456685E+02  0.30976315876E+02  0.00000000000E+00 0.  1.
</event>
<event>
 7    1  0.2339217E-009  0.4778727E+02  0.7816164E-02  0.1312668E+00
        -11   -1    0    0    0    0  0.00000000000E+00  0.00000000000E+00  0.45593999997E+02  0.45594000000E+02  0.51100000000E-03 0. -1.
         11   -1    0    0    0    0 -0.00000000000E+00 -0.00000000000E+00 -0.45593999997E+02  0.45594000000E+02  0.51100000000E-03 0.  1.
    9900012    2    1    2    0    0  0.25985898846E+02 -0.31736822356E+02  0.14182045202E+02  0.47787271455E+02  0.20000001871E+02 0.  0.
         12    1    1    2    0    0 -0.25985898846E+02  0.31736822356E+02 -0.14182045202E+02  0.43400728545E+02  0.00000000000E+00 0. -1.
         11    1    3    3    0    0 -0.15327832915E+01 -0.92458773356E+01  0.49684981640E+01  0.10607622099E+02  0.51100000000E-03 0. -1.
        -11    1    3    3    0    0  0.70937073843E+01 -0.41053447500E+01  0.25983463977E-02  0.81960079907E+01  0.51100000000E-03 0.  1.
        -12    1    3    3    0    0  0.20424974754E+02 -0.18385600271E+02  0.92109486921E+01  0.28983641366E+02  0.00000000000E+00 0.  1.
</event>
<event>
 7    1  0.2339217E-009  0.4778727E+02  0.7816164E-02  0.1312668E+00
        -11   -1    0    0    0    0  0.00000000000E+00  0.00000000000E+00  0.45593999997E+02  0.45594000000E+02  0.51100000000E-03 0.  1.
         11   -1    0    0    0    0 -0.00000000000E+00 -0.00000000000E+00 -0.45593999997E+02  0.45594000000E+02  0.51100000000E-03 0. -1.
    9900012    2    1    2    0    0  0.82618857561E+01 -0.12179643605E+02  0.40829170067E+02  0.47787267254E+02  0.19999982716E+02 0.  0.
         12    1    1    2    0    0 -0.82618857561E+01  0.12179643605E+02 -0.40829170067E+02  0.43400732746E+02  0.00000000000E+00 0. -1.
         11    1    3    3    0    0  0.28422215806E+01 -0.12141373712E+02  0.17081597964E+02  0.21148810094E+02  0.51100000000E-03 0. -1.
        -11    1    3    3    0    0  0.74332527980E+01 -0.31704139944E+01  0.18652093267E+02  0.20327453248E+02  0.51100000000E-03 0.  1.
         12    1    3    3    0    0 -0.20135886224E+01  0.31321441010E+01  0.50954788362E+01  0.63110039122E+01  0.00000000000E+00 0. -1.
</event>
<event>
 7    1  0.2339217E-009  0.4778727E+02  0.7816164E-02  0.1312668E+00
        -11   -1    0    0    0    0  0.00000000000E+00  0.00000000000E+00  0.45593999997E+02  0.45594000000E+02  0.51100000000E-03 0.  1.
         11   -1    0    0    0    0 -0.00000000000E+00 -0.00000000000E+00 -0.45593999997E+02  0.45594000000E+02  0.51100000000E-03 0. -1.
    9900012    2    1    2    0    0  0.34781722825E+02 -0.25167655911E+02 -0.63595773735E+01  0.47787269924E+02  0.19999994893E+02 0.  0.
         12    1    1    2    0    0 -0.34781722825E+02  0.25167655911E+02  0.63595773735E+01  0.43400730076E+02  0.00000000000E+00 0. -1.
         11    1    3    3    0    0  0.11734064681E+01 -0.67855196737E+01 -0.34699946553E+01  0.77110974024E+01  0.51100000000E-03 0. -1.
        -11    1    3    3    0    0  0.39818431229E+01  0.44017418902E+00  0.22613476932E+01  0.46002740813E+01  0.51100000000E-03 0.  1.
        -12    1    3    3    0    0  0.29626473234E+02 -0.18822310427E+02 -0.51509304114E+01  0.35475898441E+02  0.00000000000E+00 0.  1.
</event>
<event>
 7    1  0.2339217E-009  0.4778727E+02  0.7816164E-02  0.1312668E+00
        -11   -1    0    0    0    0  0.00000000000E+00  0.00000000000E+00  0.45593999997E+02  0.45594000000E+02  0.51100000000E-03 0. -1.
         11   -1    0    0    0    0 -0.00000000000E+00 -0.00000000000E+00 -0.45593999997E+02  0.45594000000E+02  0.51100000000E-03 0.  1.
    9900012    2    1    2    0    0  0.26805208409E+02 -0.28870225708E+01 -0.34011311507E+02  0.47787269504E+02  0.19999992976E+02 0.  0.
         12    1    1    2    0    0 -0.26805208409E+02  0.28870225708E+01  0.34011311507E+02  0.43400730496E+02  0.00000000000E+00 0. -1.
         11    1    3    3    0    0  0.43787030997E+01 -0.61241553917E+00 -0.12421181162E+02  0.13184605999E+02  0.51100000000E-03 0. -1.
        -11    1    3    3    0    0  0.17467544829E+02  0.47786254095E+01 -0.16983343078E+02  0.24827088543E+02  0.51100000000E-03 0.  1.
         12    1    3    3    0    0  0.49589604797E+01 -0.70532324411E+01 -0.46067872674E+01  0.97755749618E+01  0.00000000000E+00 0. -1.
</event>
<event>
 7    1  0.2339217E-009  0.4778727E+02  0.7816164E-02  0.1312668E+00
        -11   -1    0    0    0    0  0.00000000000E+00  0.00000000000E+00  0.45593999997E+02  0.45594000000E+02  0.51100000000E-03 0.  1.
         11   -1    0    0    0    0 -0.00000000000E+00 -0.00000000000E+00 -0.45593999997E+02  0.45594000000E+02  0.51100000000E-03 0. -1.
    9900012    2    1    2    0    0 -0.17961531962E+02 -0.18182724691E+02  0.35076987533E+02  0.47787272333E+02  0.20000005875E+02 0.  0.
         12    1    1    2    0    0  0.17961531962E+02  0.18182724691E+02 -0.35076987533E+02  0.43400727667E+02  0.00000000000E+00 0. -1.
         11    1    3    3    0    0 -0.43606380529E+01  0.92087479750E+00  0.69226827130E+01  0.82332685385E+01  0.51100000000E-03 0. -1.
        -11    1    3    3    0    0  0.31016095323E+01 -0.46589252048E+01  0.43845243539E+01  0.71098255834E+01  0.51100000000E-03 0.  1.
         12    1    3    3    0    0 -0.16702503441E+02 -0.14444674284E+02  0.23769780466E+02  0.32444178211E+02  0.00000000000E+00 0. -1.
</event>
<event>
 7    1  0.2339217E-009  0.4778728E+02  0.7816164E-02  0.1312668E+00
        -11   -1    0    0    0    0  0.00000000000E+00  0.00000000000E+00  0.45593999997E+02  0.45594000000E+02  0.51100000000E-03 0.  1.
         11   -1    0    0    0    0 -0.00000000000E+00 -0.00000000000E+00 -0.45593999997E+02  0.45594000000E+02  0.51100000000E-03 0. -1.
    9900012    2    1    2    0    0 -0.41869821619E+02  0.10837556165E+02  0.36177672116E+01  0.47787276208E+02  0.20000023544E+02 0.  0.
         12    1    1    2    0    0  0.41869821619E+02 -0.10837556165E+02 -0.36177672116E+01  0.43400723792E+02  0.00000000000E+00 0. -1.
         11    1    3    3    0    0 -0.19379403997E+02  0.86464594949E+01  0.28313804020E+00  0.21222693714E+02  0.51100000000E-03 0. -1.
        -11    1    3    3    0    0 -0.16080050767E+02  0.77553223445E+01  0.26566337950E+01  0.18049120774E+02  0.51100000000E-03 0.  1.
         12    1    3    3    0    0 -0.64103668550E+01 -0.55642256746E+01  0.67799537632E+00  0.85154617199E+01  0.00000000000E+00 0. -1.
</event>
<event>
 7    1  0.2339217E-009  0.4778727E+02  0.7816164E-02  0.1312668E+00
        -11   -1    0    0    0    0  0.00000000000E+00  0.00000000000E+00  0.45593999997E+02  0.45594000000E+02  0.51100000000E-03 0. -1.
         11   -1    0    0    0    0 -0.00000000000E+00 -0.00000000000E+00 -0.45593999997E+02  0.45594000000E+02  0.51100000000E-03 0.  1.
    9900012    2    1    2    0    0 -0.25046309267E+01  0.43862101603E+01 -0.43105814747E+02  0.47787270966E+02  0.19999999643E+02 0.  0.
         12    1    1    2    0    0  0.25046309267E+01 -0.43862101603E+01  0.43105814747E+02  0.43400729034E+02  0.00000000000E+00 0. -1.
         11    1    3    3    0    0  0.27001985198E+01 -0.25643934374E+01 -0.57396038050E+01  0.68418007752E+01  0.51100000000E-03 0. -1.
        -11    1    3    3    0    0  0.31498632415E+01  0.63972391362E+01 -0.25105492734E+02  0.26098507097E+02  0.51100000000E-03 0.  1.
        -12    1    3    3    0    0 -0.83546926881E+01  0.55336446145E+00 -0.12260718208E+02  0.14846963094E+02  0.00000000000E+00 0.  1.
</event>
<event>
 7    1  0.2339217E-009  0.4778727E+02  0.7816164E-02  0.1312668E+00
        -11   -1    0    0    0    0  0.00000000000E+00  0.00000000000E+00  0.45593999997E+02  0.45594000000E+02  0.51100000000E-03 0.  1.
         11   -1    0    0    0    0 -0.00000000000E+00 -0.00000000000E+00 -0.45593999997E+02  0.45594000000E+02  0.51100000000E-03 0. -1.
    9900012    2    1    2    0    0 -0.45537396157E+01 -0.12807768452E+02  0.41217079031E+02  0.47787273266E+02  0.20000010130E+02 0.  0.
         12    1    1    2    0    0  0.45537396157E+01  0.12807768452E+02 -0.41217079031E+02  0.43400726734E+02  0.00000000000E+00 0. -1.
         11    1    3    3    0    0  0.71733969172E+01 -0.17304251777E+01  0.92293608689E+01  0.11816644910E+02  0.51100000000E-03 0. -1.
        -11    1    3    3    0    0 -0.26439241480E+01 -0.38053457839E+01  0.11682395440E+02  0.12567790375E+02  0.51100000000E-03 0.  1.
         12    1    3    3    0    0 -0.90832123848E+01 -0.72719974904E+01  0.20305322722E+02  0.23402837981E+02  0.00000000000E+00 0. -1.
</event>
<event>
 7    1  0.2339217E-009  0.4778727E+02  0.7816164E-02  0.1312668E+00
        -11   -1    0    0    0    0  0.00000000000E+00  0.00000000000E+00  0.45593999997E+02  0.45594000000E+02  0.51100000000E-03 0. -1.
         11   -1    0    0    0    0 -0.00000000000E+00 -0.00000000000E+00 -0.45593999997E+02  0.45594000000E+02  0.51100000000E-03 0.  1.
    9900012    2    1    2    0    0  0.72389849892E+01  0.40395958715E+02 -0.14120451468E+02  0.47787268049E+02  0.19999986343E+02 0.  0.
         12    1    1    2    0    0 -0.72389849892E+01 -0.40395958715E+02  0.14120451468E+02  0.43400731951E+02  0.00000000000E+00 0. -1.
         11    1    3    3    0    0 -0.52744732899E+00  0.13885977967E+01  0.22718306799E+01  0.27143359086E+01  0.51100000000E-03 0. -1.
        -11    1    3    3    0    0  0.16926809636E+01 -0.65599342638E+00 -0.11544281572E+01  0.21513253709E+01  0.51100000000E-03 0.  1.
        -12    1    3    3    0    0  0.60737513545E+01  0.39663354345E+02 -0.15237853991E+02  0.42921606769E+02  0.00000000000E+00 0.  1.
</event>
<event>
 7    1  0.2339217E-009  0.4778727E+02  0.7816164E-02  0.1312668E+00
        -11   -1    0    0    0    0  0.00000000000E+00  0.00000000000E+00  0.45593999997E+02  0.45594000000E+02  0.51100000000E-03 0.  1.
         11   -1    0    0    0    0 -0.00000000000E+00 -0.00000000000E+00 -0.45593999997E+02  0.45594000000E+02  0.51100000000E-03 0. -1.
    9900012    2    1    2    0    0 -0.11811499647E+02 -0.76310711091E+01  0.41059449712E+02  0.47787272117E+02  0.20000004889E+02 0.  0.
         12    1    1    2    0    0  0.11811499647E+02  0.76310711091E+01 -0.41059449712E+02  0.43400727883E+02  0.00000000000E+00 0. -1.
         11    1    3    3    0    0 -0.18876336696E+01  0.19806313186E+01  0.18469955793E+02  0.18671511148E+02  0.51100000000E-03 0. -1.
        -11    1    3    3    0    0 -0.99874570264E+01 -0.48980751512E+01  0.21604204516E+02  0.24299837264E+02  0.51100000000E-03 0.  1.
        -12    1    3    3    0    0  0.63591049448E-01 -0.47136272765E+01  0.98528940320E+00  0.48159237049E+01  0.00000000000E+00 0.  1.
</event>
<event>
 7    1  0.2339217E-009  0.4778728E+02  0.7816164E-02  0.1312668E+00
        -11   -1    0    0    0    0  0.00000000000E+00  0.00000000000E+00  0.45593999997E+02  0.45594000000E+02  0.51100000000E-03 0. -1.
         11   -1    0    0    0    0 -0.00000000000E+00 -0.00000000000E+00 -0.45593999997E+02  0.45594000000E+02  0.51100000000E-03 0.  1.
    9900012    2    1    2    0    0 -0.19849242339E+02  0.43295303401E+01 -0.38352124695E+02  0.47787277390E+02  0.20000028933E+02 0.  0.
         12    1    1    2    0    0  0.19849242339E+02 -0.43295303401E+01  0.38352124695E+02  0.43400722610E+02  0.00000000000E+00 0. -1.
         11    1    3    3    0    0 -0.81871948494E+01 -0.68017648501E+00 -0.74005161051E+01  0.11057144226E+02  0.51100000000E-03 0. -1.
        -11    1    3    3    0    0 -0.14340916742E+02  0.18800612401E+01 -0.17727806752E+02  0.22879502961E+02  0.51100000000E-03 0.  1.
         12    1    3    3    0    0  0.26788692519E+01  0.31296455850E+01 -0.13223801838E+02  0.13850630203E+02  0.00000000000E+00 0. -1.
</event>
<event>
 7    1  0.2339217E-009  0.4778727E+02  0.7816164E-02  0.1312668E+00
        -11   -1    0    0    0    0  0.00000000000E+00  0.00000000000E+00  0.45593999997E+02  0.45594000000E+02  0.51100000000E-03 0.  1.
         11   -1    0    0    0    0 -0.00000000000E+00 -0.00000000000E+00 -0.45593999997E+02  0.45594000000E+02  0.51100000000E-03 0. -1.
    9900012    2    1    2    0    0  0.28214681880E+02 -0.24292309674E+02  0.22303335612E+02  0.47787270025E+02  0.19999995352E+02 0.  0.
         12    1    1    2    0    0 -0.28214681880E+02  0.24292309674E+02 -0.22303335612E+02  0.43400729975E+02  0.00000000000E+00 0. -1.
         11    1    3    3    0    0  0.35439112167E+01 -0.14472140237E+02  0.66478158841E+01  0.16315502016E+02  0.51100000000E-03 0.  1.
        -11    1    3    3    0    0  0.55189760011E+00  0.75177073734E+00  0.26268087425E+00  0.96889199880E+00  0.51100000000E-03 0. -1.
        -12    1    3    3    0    0  0.24118873064E+02 -0.10571940175E+02  0.15392838854E+02  0.30502876010E+02  0.00000000000E+00 0.  1.
</event>
<event>
 7    1  0.2339217E-009  0.4778727E+02  0.7816164E-02  0.1312668E+00
        -11   -1    0    0    0    0  0.00000000000E+00  0.00000000000E+00  0.45593999997E+02  0.45594000000E+02  0.51100000000E-03 0. -1.
         11   -1    0    0    0    0 -0.00000000000E+00 -0.00000000000E+00 -0.45593999997E+02  0.45594000000E+02  0.51100000000E-03 0.  1.
    9900012    2    1    2    0    0  0.35913655528E+02  0.76646108791E+01 -0.23131931291E+02  0.47787272373E+02  0.20000006057E+02 0.  0.
         12    1    1    2    0    0 -0.35913655528E+02 -0.76646108791E+01  0.23131931291E+02  0.43400727627E+02  0.00000000000E+00 0. -1.
         11    1    3    3    0    0  0.13824865167E+02  0.56100592529E+01 -0.79302840655E+01  0.16896421731E+02  0.51100000000E-03 0. -1.
        -11    1    3    3    0    0  0.53311680622E+01  0.55686714863E+01 -0.10698057202E+02  0.13186352156E+02  0.51100000000E-03 0.  1.
         12    1    3    3    0    0  0.16757622300E+02 -0.35141198600E+01 -0.45035900229E+01  0.17704498485E+02  0.00000000000E+00 0. -1.
</event>
<event>
 7    1  0.2339217E-009  0.4778727E+02  0.7816164E-02  0.1312668E+00
        -11   -1    0    0    0    0  0.00000000000E+00  0.00000000000E+00  0.45593999997E+02  0.45594000000E+02  0.51100000000E-03 0. -1.
         11   -1    0    0    0    0 -0.00000000000E+00 -0.00000000000E+00 -0.45593999997E+02  0.45594000000E+02  0.51100000000E-03 0.  1.
    9900012    2    1    2    0    0 -0.19949925015E+02 -0.29663206939E+02 -0.24611337300E+02  0.47787271000E+02  0.19999999800E+02 0.  0.
         12    1    1    2    0    0  0.19949925015E+02  0.29663206939E+02  0.24611337300E+02  0.43400729000E+02  0.00000000000E+00 0. -1.
         11    1    3    3    0    0 -0.43097061593E+01 -0.15180731628E+02 -0.61611871727E+01  0.16940732203E+02  0.51100000000E-03 0. -1.
        -11    1    3    3    0    0 -0.13417302796E+02 -0.14523637395E+02 -0.10095031336E+02  0.22200669256E+02  0.51100000000E-03 0.  1.
        -12    1    3    3    0    0 -0.22229160599E+01  0.41162082882E-01 -0.83551187905E+01  0.86458695416E+01  0.00000000000E+00 0.  1.
</event>
<event>
 7    1  0.2339217E-009  0.4778727E+02  0.7816164E-02  0.1312668E+00
        -11   -1    0    0    0    0  0.00000000000E+00  0.00000000000E+00  0.45593999997E+02  0.45594000000E+02  0.51100000000E-03 0. -1.
         11   -1    0    0    0    0 -0.00000000000E+00 -0.00000000000E+00 -0.45593999997E+02  0.45594000000E+02  0.51100000000E-03 0.  1.
    9900012    2    1    2    0    0 -0.12891948570E+02  0.69523343853E+01 -0.40854445816E+02  0.47787273805E+02  0.20000012585E+02 0.  0.
         12    1    1    2    0    0  0.12891948570E+02 -0.69523343853E+01  0.40854445816E+02  0.43400726195E+02  0.00000000000E+00 0. -1.
         11    1    3    3    0    0  0.26450942039E+01  0.13075758834E+01 -0.54040005455E+01  0.61570691238E+01  0.51100000000E-03 0. -1.
        -11    1    3    3    0    0  0.27935091497E+00  0.39378522376E+01 -0.16115536099E+02  0.16592022818E+02  0.51100000000E-03 0.  1.
         12    1    3    3    0    0 -0.15816393689E+02  0.17069062644E+01 -0.19334909171E+02  0.25038181863E+02  0.00000000000E+00 0. -1.
</event>
<event>
 7    1  0.2339217E-009  0.4778730E+02  0.7816164E-02  0.1312668E+00
        -11   -1    0    0    0    0  0.00000000000E+00  0.00000000000E+00  0.45593999997E+02  0.45594000000E+02  0.51100000000E-03 0.  1.
         11   -1    0    0    0    0 -0.00000000000E+00 -0.00000000000E+00 -0.45593999997E+02  0.45594000000E+02  0.51100000000E-03 0. -1.
    9900012    2    1    2    0    0  0.24299440454E+02 -0.24752597047E+02  0.26085759854E+02  0.47787300304E+02  0.20000133407E+02 0.  0.
         12    1    1    2    0    0 -0.24299440454E+02  0.24752597047E+02 -0.26085759854E+02  0.43400699696E+02  0.00000000000E+00 0. -1.
         11    1    3    3    0    0 -0.15673177586E+01 -0.17399348579E+01  0.23451692336E+01  0.33141631314E+01  0.51100000000E-03 0. -1.
        -11    1    3    3    0    0  0.59837990200E+01 -0.23753077682E+01  0.11771220432E+02  0.13416764454E+02  0.51100000000E-03 0.  1.
        -12    1    3    3    0    0  0.19882959193E+02 -0.20637354421E+02  0.11969370188E+02  0.31056372719E+02  0.00000000000E+00 0.  1.
</event>
<event>
 7    1  0.2339217E-009  0.4778729E+02  0.7816164E-02  0.1312668E+00
        -11   -1    0    0    0    0  0.00000000000E+00  0.00000000000E+00  0.45593999997E+02  0.45594000000E+02  0.51100000000E-03 0.  1.
         11   -1    0    0    0    0 -0.00000000000E+00 -0.00000000000E+00 -0.45593999997E+02  0.45594000000E+02  0.51100000000E-03 0. -1.
    9900012    2    1    2    0    0 -0.78426851324E+01  0.21113969467E+01  0.42633980354E+02  0.47787285859E+02  0.20000067544E+02 0.  0.
         12    1    1    2    0    0  0.78426851324E+01 -0.21113969467E+01 -0.42633980354E+02  0.43400714141E+02  0.00000000000E+00 0. -1.
         11    1    3    3    0    0  0.29465902716E+01  0.51134850466E+01  0.66897061128E+01  0.89208907451E+01  0.51100000000E-03 0. -1.
        -11    1    3    3    0    0  0.91811918840E+00  0.18818730593E+01  0.47119723373E+01  0.51562653757E+01  0.51100000000E-03 0.  1.
        -12    1    3    3    0    0 -0.11707394592E+02 -0.48839611592E+01  0.31232301904E+02  0.33710129738E+02  0.00000000000E+00 0.  1.
</event>
<event>
 7    1  0.2339217E-009  0.4778727E+02  0.7816164E-02  0.1312668E+00
        -11   -1    0    0    0    0  0.00000000000E+00  0.00000000000E+00  0.45593999997E+02  0.45594000000E+02  0.51100000000E-03 0.  1.
         11   -1    0    0    0    0 -0.00000000000E+00 -0.00000000000E+00 -0.45593999997E+02  0.45594000000E+02  0.51100000000E-03 0. -1.
    9900012    2    1    2    0    0  0.80066900024E+01 -0.38145519571E+02  0.19090193841E+02  0.47787271331E+02  0.20000001306E+02 0.  0.
         12    1    1    2    0    0 -0.80066900024E+01  0.38145519571E+02 -0.19090193841E+02  0.43400728669E+02  0.00000000000E+00 0. -1.
         11    1    3    3    0    0  0.37108859117E+01 -0.17235085796E+02  0.73803299321E+01  0.19112512310E+02  0.51100000000E-03 0. -1.
        -11    1    3    3    0    0  0.72231771911E+01 -0.21670027618E+02  0.88023164170E+01  0.24479484477E+02  0.51100000000E-03 0.  1.
         12    1    3    3    0    0 -0.29273731005E+01  0.75959384329E+00  0.29075474917E+01  0.41952745432E+01  0.00000000000E+00 0. -1.
</event>
<event>
 7    1  0.2339217E-009  0.4778727E+02  0.7816164E-02  0.1312668E+00
        -11   -1    0    0    0    0  0.00000000000E+00  0.00000000000E+00  0.45593999997E+02  0.45594000000E+02  0.51100000000E-03 0.  1.
         11   -1    0    0    0    0 -0.00000000000E+00 -0.00000000000E+00 -0.45593999997E+02  0.45594000000E+02  0.51100000000E-03 0. -1.
    9900012    2    1    2    0    0  0.34962191964E+02  0.25149580331E+02  0.53635170565E+01  0.47787267599E+02  0.19999984290E+02 0.  0.
         12    1    1    2    0    0 -0.34962191964E+02 -0.25149580331E+02 -0.53635170565E+01  0.43400732401E+02  0.00000000000E+00 0. -1.
         11    1    3    3    0    0  0.21385326527E+01  0.55355727201E+01 -0.29971633626E+01  0.66482235018E+01  0.51100000000E-03 0. -1.
        -11    1    3    3    0    0  0.88270553593E+01  0.10563210613E+02 -0.10842277951E+01  0.13808471130E+02  0.51100000000E-03 0.  1.
         12    1    3    3    0    0  0.23996603952E+02  0.90507969972E+01  0.94449082142E+01  0.27330572967E+02  0.00000000000E+00 0. -1.
</event>
<event>
 7    1  0.2339217E-009  0.4778727E+02  0.7816164E-02  0.1312668E+00
        -11   -1    0    0    0    0  0.00000000000E+00  0.00000000000E+00  0.45593999997E+02  0.45594000000E+02  0.51100000000E-03 0. -1.
         11   -1    0    0    0    0 -0.00000000000E+00 -0.00000000000E+00 -0.45593999997E+02  0.45594000000E+02  0.51100000000E-03 0.  1.
    9900012    2    1    2    0    0  0.24371512916E+02 -0.18204519774E+02 -0.30955584378E+02  0.47787269750E+02  0.19999994099E+02 0.  0.
         12    1    1    2    0    0 -0.24371512916E+02  0.18204519774E+02  0.30955584378E+02  0.43400730250E+02  0.00000000000E+00 0. -1.
         11    1    3    3    0    0  0.64092137376E+01  0.10406118720E+01 -0.57399491494E+01  0.86664820026E+01  0.51100000000E-03 0. -1.
        -11    1    3    3    0    0  0.35790378840E+01 -0.55457834564E+01 -0.15831583879E+02  0.17152383936E+02  0.51100000000E-03 0.  1.
         12    1    3    3    0    0  0.14383261295E+02 -0.13699348189E+02 -0.93840513503E+01  0.21968403812E+02  0.00000000000E+00 0. -1.
</event>
<event>
 7    1  0.2339217E-009  0.4778729E+02  0.7816164E-02  0.1312668E+00
        -11   -1    0    0    0    0  0.00000000000E+00  0.00000000000E+00  0.45593999997E+02  0.45594000000E+02  0.51100000000E-03 0. -1.
         11   -1    0    0    0    0 -0.00000000000E+00 -0.00000000000E+00 -0.45593999997E+02  0.45594000000E+02  0.51100000000E-03 0.  1.
    9900012    2    1    2    0    0  0.11336501529E+02 -0.40831719428E+02  0.93742203410E+01  0.47787290497E+02  0.20000088693E+02 0.  0.
         12    1    1    2    0    0 -0.11336501529E+02  0.40831719428E+02 -0.93742203410E+01  0.43400709503E+02  0.00000000000E+00 0. -1.
         11    1    3    3    0    0  0.82459921872E+01 -0.53832738487E+01  0.16455843281E+01  0.99841861223E+01  0.51100000000E-03 0. -1.
        -11    1    3    3    0    0  0.44916168163E+01 -0.13002857467E+02  0.66711279434E+01  0.15288978783E+02  0.51100000000E-03 0.  1.
        -12    1    3    3    0    0 -0.14011074747E+01 -0.22445588112E+02  0.10575080695E+01  0.22514125592E+02  0.00000000000E+00 0.  1.
</event>
<event>
 7    1  0.2339217E-009  0.4778727E+02  0.7816164E-02  0.1312668E+00
        -11   -1    0    0    0    0  0.00000000000E+00  0.00000000000E+00  0.45593999997E+02  0.45594000000E+02  0.51100000000E-03 0.  1.
         11   -1    0    0    0    0 -0.00000000000E+00 -0.00000000000E+00 -0.45593999997E+02  0.45594000000E+02  0.51100000000E-03 0. -1.
    9900012    2    1    2    0    0  0.17600512823E+02 -0.31714581729E+02  0.23833399940E+02  0.47787266152E+02  0.19999977692E+02 0.  0.
         12    1    1    2    0    0 -0.17600512823E+02  0.31714581729E+02 -0.23833399940E+02  0.43400733848E+02  0.00000000000E+00 0. -1.
         11    1    3    3    0    0  0.28134704236E+00 -0.53515234243E+01  0.70945719057E+01  0.88910578619E+01  0.51100000000E-03 0. -1.
        -11    1    3    3    0    0  0.10866758162E+02 -0.15153528587E+02  0.17979042690E+02  0.25902931068E+02  0.51100000000E-03 0.  1.
         12    1    3    3    0    0  0.64524076185E+01 -0.11209529718E+02 -0.12402146560E+01  0.12993277222E+02  0.00000000000E+00 0. -1.
</event>
<event>
 7    1  0.2339217E-009  0.4778727E+02  0.7816164E-02  0.1312668E+00
        -11   -1    0    0    0    0  0.00000000000E+00  0.00000000000E+00  0.45593999997E+02  0.45594000000E+02  0.51100000000E-03 0.  1.
         11   -1    0    0    0    0 -0.00000000000E+00 -0.00000000000E+00 -0.45593999997E+02  0.45594000000E+02  0.51100000000E-03 0. -1.
    9900012    2    1    2    0    0  0.86589158107E+01  0.37764499275E+02  0.19557329642E+02  0.47787269922E+02  0.19999994884E+02 0.  0.
         12    1    1    2    0    0 -0.86589158107E+01 -0.37764499275E+02 -0.19557329642E+02  0.43400730078E+02  0.00000000000E+00 0. -1.
         11    1    3    3    0    0  0.51573743011E+01  0.35733919247E+01  0.35393025871E+01  0.72037700264E+01  0.51100000000E-03 0. -1.
        -11    1    3    3    0    0  0.81301800074E+01  0.22275488840E+02  0.14285874414E+02  0.27683631229E+02  0.51100000000E-03 0.  1.
         12    1    3    3    0    0 -0.46286384978E+01  0.11915618511E+02  0.17321526409E+01  0.12899868666E+02  0.00000000000E+00 0. -1.
</event>
<event>
 7    1  0.2339217E-009  0.4778727E+02  0.7816164E-02  0.1312668E+00
        -11   -1    0    0    0    0  0.00000000000E+00  0.00000000000E+00  0.45593999997E+02  0.45594000000E+02  0.51100000000E-03 0. -1.
         11   -1    0    0    0    0 -0.00000000000E+00 -0.00000000000E+00 -0.45593999997E+02  0.45594000000E+02  0.51100000000E-03 0.  1.
    9900012    2    1    2    0    0 -0.38148014612E+02  0.20682552811E+02 -0.76426310000E+00  0.47787272959E+02  0.20000008727E+02 0.  0.
         12    1    1    2    0    0  0.38148014612E+02 -0.20682552811E+02  0.76426310000E+00  0.43400727041E+02  0.00000000000E+00 0. -1.
         11    1    3    3    0    0 -0.82696134893E+01  0.31524939341E+01  0.52534787894E+01  0.10291927172E+02  0.51100000000E-03 0. -1.
        -11    1    3    3    0    0 -0.13074624053E+02  0.87137161513E+01  0.37489364821E+01  0.16153302087E+02  0.51100000000E-03 0.  1.
        -12    1    3    3    0    0 -0.16803777070E+02  0.88163427255E+01 -0.97666783715E+01  0.21342043699E+02  0.00000000000E+00 0.  1.
</event>
<event>
 7    1  0.2339217E-009  0.4778727E+02  0.7816164E-02  0.1312668E+00
        -11   -1    0    0    0    0  0.00000000000E+00  0.00000000000E+00  0.45593999997E+02  0.45594000000E+02  0.51100000000E-03 0. -1.
         11   -1    0    0    0    0 -0.00000000000E+00 -0.00000000000E+00 -0.45593999997E+02  0.45594000000E+02  0.51100000000E-03 0.  1.
    9900012    2    1    2    0    0  0.30914065443E+02 -0.18728673296E+02 -0.24024583821E+02  0.47787271050E+02  0.20000000024E+02 0.  0.
         12    1    1    2    0    0 -0.30914065443E+02  0.18728673296E+02  0.24024583821E+02  0.43400728950E+02  0.00000000000E+00 0. -1.
         11    1    3    3    0    0  0.33923624705E+01 -0.53886074113E+01  0.13448304917E+01  0.65079783556E+01  0.51100000000E-03 0. -1.
        -11    1    3    3    0    0  0.30384637319E+01 -0.42956937837E+01 -0.59855319327E+00  0.52956126293E+01  0.51100000000E-03 0.  1.
        -12    1    3    3    0    0  0.24483239241E+02 -0.90443721009E+01 -0.24770861119E+02  0.35983680065E+02  0.00000000000E+00 0.  1.
</event>
<event>
 7    1  0.2339217E-009  0.4778727E+02  0.7816164E-02  0.1312668E+00
        -11   -1    0    0    0    0  0.00000000000E+00  0.00000000000E+00  0.45593999997E+02  0.45594000000E+02  0.51100000000E-03 0.  1.
         11   -1    0    0    0    0 -0.00000000000E+00 -0.00000000000E+00 -0.45593999997E+02  0.45594000000E+02  0.51100000000E-03 0. -1.
    9900012    2    1    2    0    0 -0.12911337118E+02 -0.40927300589E+02  0.64712209951E+01  0.47787271195E+02  0.20000000685E+02 0.  0.
         12    1    1    2    0    0  0.12911337118E+02  0.40927300589E+02 -0.64712209951E+01  0.43400728805E+02  0.00000000000E+00 0. -1.
         11    1    3    3    0    0 -0.13281797662E+01 -0.47759950367E+01 -0.67388094300E+00  0.50028297861E+01  0.51100000000E-03 0. -1.
        -11    1    3    3    0    0  0.10142043143E+01 -0.22112981134E+02 -0.11787512520E+01  0.22167588949E+02  0.51100000000E-03 0.  1.
         12    1    3    3    0    0 -0.12597361666E+02 -0.14038324418E+02  0.83238531901E+01  0.20616852459E+02  0.00000000000E+00 0. -1.
</event>
<event>
 7    1  0.2339217E-009  0.4778727E+02  0.7816164E-02  0.1312668E+00
        -11   -1    0    0    0    0  0.00000000000E+00  0.00000000000E+00  0.45593999997E+02  0.45594000000E+02  0.51100000000E-03 0.  1.
         11   -1    0    0    0    0 -0.00000000000E+00 -0.00000000000E+00 -0.45593999997E+02  0.45594000000E+02  0.51100000000E-03 0. -1.
    9900012    2    1    2    0    0 -0.19566795272E+02 -0.37214176639E+02  0.10764228589E+02  0.47787273771E+02  0.20000012430E+02 0.  0.
         12    1    1    2    0    0  0.19566795272E+02  0.37214176639E+02 -0.10764228589E+02  0.43400726229E+02  0.00000000000E+00 0. -1.
         11    1    3    3    0    0 -0.11913017137E+01 -0.22636081843E+01  0.24518316901E+01  0.35432471947E+01  0.51100000000E-03 0. -1.
        -11    1    3    3    0    0 -0.29564430027E+01 -0.88677403573E+01 -0.56069298752E+01  0.10900231060E+02  0.51100000000E-03 0.  1.
        -12    1    3    3    0    0 -0.15419050556E+02 -0.26082828097E+02  0.13919326774E+02  0.33343795516E+02  0.00000000000E+00 0.  1.
</event>
<event>
 7    1  0.2339217E-009  0.4778727E+02  0.7816164E-02  0.1312668E+00
        -11   -1    0    0    0    0  0.00000000000E+00  0.00000000000E+00  0.45593999997E+02  0.45594000000E+02  0.51100000000E-03 0.  1.
         11   -1    0    0    0    0 -0.00000000000E+00 -0.00000000000E+00 -0.45593999997E+02  0.45594000000E+02  0.51100000000E-03 0. -1.
    9900012    2    1    2    0    0  0.10578877291E+02 -0.17323447046E+02  0.38361560062E+02  0.47787265529E+02  0.19999974851E+02 0.  0.
         12    1    1    2    0    0 -0.10578877291E+02  0.17323447046E+02 -0.38361560062E+02  0.43400734471E+02  0.00000000000E+00 0. -1.
         11    1    3    3    0    0  0.35789282457E+01 -0.65105263333E+01  0.17819134379E+02  0.19305885911E+02  0.51100000000E-03 0. -1.
        -11    1    3    3    0    0  0.59436440308E+00 -0.11625441268E+02  0.18216802310E+02  0.21618419008E+02  0.51100000000E-03 0.  1.
         12    1    3    3    0    0  0.64055846420E+01  0.81252055575E+00  0.23256233724E+01  0.68629606096E+01  0.00000000000E+00 0. -1.
</event>
<event>
 7    1  0.2339217E-009  0.4778728E+02  0.7816164E-02  0.1312668E+00
        -11   -1    0    0    0    0  0.00000000000E+00  0.00000000000E+00  0.45593999997E+02  0.45594000000E+02  0.51100000000E-03 0.  1.
         11   -1    0    0    0    0 -0.00000000000E+00 -0.00000000000E+00 -0.45593999997E+02  0.45594000000E+02  0.51100000000E-03 0. -1.
    9900012    2    1    2    0    0  0.28849184803E+02  0.22625352529E+02  0.23225864514E+02  0.47787276236E+02  0.20000023668E+02 0.  0.
         12    1    1    2    0    0 -0.28849184803E+02 -0.22625352529E+02 -0.23225864514E+02  0.43400723764E+02  0.00000000000E+00 0. -1.
         11    1    3    3    0    0  0.11728530711E+02  0.29006895336E+01  0.13979737447E+02  0.18477161356E+02  0.51100000000E-03 0. -1.
        -11    1    3    3    0    0  0.45324457529E+01  0.74878392758E+01  0.77500629263E+01  0.11690777440E+02  0.51100000000E-03 0.  1.
        -12    1    3    3    0    0  0.12588208339E+02  0.12236823719E+02  0.14960641411E+01  0.17619337440E+02  0.00000000000E+00 0.  1.
</event>
<event>
 7    1  0.2339217E-009  0.4778727E+02  0.7816164E-02  0.1312668E+00
        -11   -1    0    0    0    0  0.00000000000E+00  0.00000000000E+00  0.45593999997E+02  0.45594000000E+02  0.51100000000E-03 0. -1.
         11   -1    0    0    0    0 -0.00000000000E+00 -0.00000000000E+00 -0.45593999997E+02  0.45594000000E+02  0.51100000000E-03 0.  1.
    9900012    2    1    2    0    0  0.29406840049E+02  0.29470828436E+02  0.12260973283E+02  0.47787269175E+02  0.19999991475E+02 0.  0.
         12    1    1    2    0    0 -0.29406840049E+02 -0.29470828436E+02 -0.12260973283E+02  0.43400730825E+02  0.00000000000E+00 0. -1.
         11    1    3    3    0    0  0.15625718538E+02  0.10637403028E+02  0.94223992849E+01  0.21121056592E+02  0.51100000000E-03 0. -1.
        -11    1    3    3    0    0  0.13530508054E+02  0.12987950662E+02 -0.22787368999E+01  0.18893230341E+02  0.51100000000E-03 0.  1.
         12    1    3    3    0    0  0.25061345684E+00  0.58454747461E+01  0.51173108976E+01  0.77729822420E+01  0.00000000000E+00 0. -1.
</event>
<event>
 7    1  0.2339217E-009  0.4778727E+02  0.7816164E-02  0.1312668E+00
        -11   -1    0    0    0    0  0.00000000000E+00  0.00000000000E+00  0.45593999997E+02  0.45594000000E+02  0.51100000000E-03 0.  1.
         11   -1    0    0    0    0 -0.00000000000E+00 -0.00000000000E+00 -0.45593999997E+02  0.45594000000E+02  0.51100000000E-03 0. -1.
    9900012    2    1    2    0    0 -0.32022061493E+02  0.17747868294E+02  0.23307167433E+02  0.47787270685E+02  0.19999998363E+02 0.  0.
         12    1    1    2    0    0  0.32022061493E+02 -0.17747868294E+02 -0.23307167433E+02  0.43400729315E+02  0.00000000000E+00 0. -1.
         11    1    3    3    0    0 -0.93481864577E+01  0.47448600584E+01  0.21624697773E+00  0.10485659256E+02  0.51100000000E-03 0. -1.
        -11    1    3    3    0    0 -0.14592093863E+02  0.69242818160E+01  0.55947758523E+01  0.17093168199E+02  0.51100000000E-03 0.  1.
         12    1    3    3    0    0 -0.80817811727E+01  0.60787264200E+01  0.17496144603E+02  0.20208443230E+02  0.00000000000E+00 0. -1.
</event>
<event>
 7    1  0.2339217E-009  0.4778727E+02  0.7816164E-02  0.1312668E+00
        -11   -1    0    0    0    0  0.00000000000E+00  0.00000000000E+00  0.45593999997E+02  0.45594000000E+02  0.51100000000E-03 0. -1.
         11   -1    0    0    0    0 -0.00000000000E+00 -0.00000000000E+00 -0.45593999997E+02  0.45594000000E+02  0.51100000000E-03 0.  1.
    9900012    2    1    2    0    0 -0.55718096449E+01 -0.42509697174E+02  0.67456450649E+01  0.47787272542E+02  0.20000006827E+02 0.  0.
         12    1    1    2    0    0  0.55718096449E+01  0.42509697174E+02 -0.67456450649E+01  0.43400727458E+02  0.00000000000E+00 0. -1.
         11    1    3    3    0    0 -0.21110911104E+01 -0.92701294578E+01  0.80787332675E+01  0.12476295015E+02  0.51100000000E-03 0. -1.
        -11    1    3    3    0    0 -0.63601128504E+01 -0.18997048742E+02  0.27312562730E+01  0.20218769929E+02  0.51100000000E-03 0.  1.
        -12    1    3    3    0    0  0.28993943159E+01 -0.14242518975E+02 -0.40643444757E+01  0.15092207597E+02  0.00000000000E+00 0.  1.
</event>
<event>
 7    1  0.2339217E-009  0.4778727E+02  0.7816164E-02  0.1312668E+00
        -11   -1    0    0    0    0  0.00000000000E+00  0.00000000000E+00  0.45593999997E+02  0.45594000000E+02  0.51100000000E-03 0. -1.
         11   -1    0    0    0    0 -0.00000000000E+00 -0.00000000000E+00 -0.45593999997E+02  0.45594000000E+02  0.51100000000E-03 0.  1.
    9900012    2    1    2    0    0 -0.16682855506E+02  0.33603172430E+02 -0.21820454944E+02  0.47787272827E+02  0.20000008127E+02 0.  0.
         12    1    1    2    0    0  0.16682855506E+02 -0.33603172430E+02  0.21820454944E+02  0.43400727173E+02  0.00000000000E+00 0. -1.
         11    1    3    3    0    0 -0.77220869324E+01  0.90021799669E+01 -0.15929416163E+01  0.11966926673E+02  0.51100000000E-03 0. -1.
        -11    1    3    3    0    0  0.14549274812E+01  0.88226513384E+01 -0.12434444426E+01  0.90278538400E+01  0.51100000000E-03 0.  1.
         12    1    3    3    0    0 -0.10415696055E+02  0.15778341125E+02 -0.18984068885E+02  0.26792492314E+02  0.00000000000E+00 0. -1.
</event>
<event>
 7    1  0.2339217E-009  0.4778727E+02  0.7816164E-02  0.1312668E+00
        -11   -1    0    0    0    0  0.00000000000E+00  0.00000000000E+00  0.45593999997E+02  0.45594000000E+02  0.51100000000E-03 0. -1.
         11   -1    0    0    0    0 -0.00000000000E+00 -0.00000000000E+00 -0.45593999997E+02  0.45594000000E+02  0.51100000000E-03 0.  1.
    9900012    2    1    2    0    0  0.64969055157E+01  0.27228443827E+02 -0.33166625166E+02  0.47787274667E+02  0.20000016518E+02 0.  0.
         12    1    1    2    0    0 -0.64969055157E+01 -0.27228443827E+02  0.33166625166E+02  0.43400725333E+02  0.00000000000E+00 0. -1.
         11    1    3    3    0    0 -0.42927943550E+01  0.12033987834E+02 -0.15669127586E+02  0.20217974828E+02  0.51100000000E-03 0. -1.
        -11    1    3    3    0    0 -0.53152970165E+00  0.61820489367E+01 -0.85209814944E+01  0.10540748492E+02  0.51100000000E-03 0.  1.
         12    1    3    3    0    0  0.11321229572E+02  0.90124070569E+01 -0.89765160849E+01  0.17028551348E+02  0.00000000000E+00 0. -1.
</event>
<event>
 7    1  0.2339217E-009  0.4778728E+02  0.7816164E-02  0.1312668E+00
        -11   -1    0    0    0    0  0.00000000000E+00  0.00000000000E+00  0.45593999997E+02  0.45594000000E+02  0.51100000000E-03 0.  1.
         11   -1    0    0    0    0 -0.00000000000E+00 -0.00000000000E+00 -0.45593999997E+02  0.45594000000E+02  0.51100000000E-03 0. -1.
    9900012    2    1    2    0    0  0.13820558071E+01  0.25469189986E+02  0.35114571937E+02  0.47787275592E+02  0.20000020733E+02 0.  0.
         12    1    1    2    0    0 -0.13820558071E+01 -0.25469189986E+02 -0.35114571937E+02  0.43400724408E+02  0.00000000000E+00 0. -1.
         11    1    3    3    0    0 -0.38167901214E+01  0.58240924653E+01  0.13202158542E+02  0.14925981720E+02  0.51100000000E-03 0.  1.
        -11    1    3    3    0    0  0.49756145503E+01  0.22754366873E+01  0.11167203828E+02  0.12435465165E+02  0.51100000000E-03 0. -1.
        -12    1    3    3    0    0  0.22323137820E+00  0.17369660834E+02  0.10745209568E+02  0.20425828707E+02  0.00000000000E+00 0.  1.
</event>
<event>
 7    1  0.2339217E-009  0.4778727E+02  0.7816164E-02  0.1312668E+00
        -11   -1    0    0    0    0  0.00000000000E+00  0.00000000000E+00  0.45593999997E+02  0.45594000000E+02  0.51100000000E-03 0.  1.
         11   -1    0    0    0    0 -0.00000000000E+00 -0.00000000000E+00 -0.45593999997E+02  0.45594000000E+02  0.51100000000E-03 0. -1.
    9900012    2    1    2    0    0  0.40252855770E+02 -0.29779149622E+01  0.15951893791E+02  0.47787270850E+02  0.19999999115E+02 0.  0.
         12    1    1    2    0    0 -0.40252855770E+02  0.29779149622E+01 -0.15951893791E+02  0.43400729150E+02  0.00000000000E+00 0. -1.
         11    1    3    3    0    0  0.31177539544E+01 -0.14534795869E+01  0.77555823585E+01  0.84842236304E+01  0.51100000000E-03 0. -1.
        -11    1    3    3    0    0  0.15008223183E+02  0.89929611688E+00  0.80258347623E+01  0.17043166388E+02  0.51100000000E-03 0.  1.
        -12    1    3    3    0    0  0.22126878633E+02 -0.24237314922E+01  0.17047667034E+00  0.22259880832E+02  0.00000000000E+00 0.  1.
</event>
<event>
 7    1  0.2339217E-009  0.4778727E+02  0.7816164E-02  0.1312668E+00
        -11   -1    0    0    0    0  0.00000000000E+00  0.00000000000E+00  0.45593999997E+02  0.45594000000E+02  0.51100000000E-03 0.  1.
         11   -1    0    0    0    0 -0.00000000000E+00 -0.00000000000E+00 -0.45593999997E+02  0.45594000000E+02  0.51100000000E-03 0. -1.
    9900012    2    1    2    0    0 -0.30524992037E+01 -0.13927588494E+02  0.40991805101E+02  0.47787267770E+02  0.19999985071E+02 0.  0.
         12    1    1    2    0    0  0.30524992037E+01  0.13927588494E+02 -0.40991805101E+02  0.43400732230E+02  0.00000000000E+00 0. -1.
         11    1    3    3    0    0  0.31761700583E+01 -0.27348580989E+01  0.17525601133E+02  0.18019827979E+02  0.51100000000E-03 0. -1.
        -11    1    3    3    0    0 -0.54965429375E+01 -0.87326679338E+01  0.24810037619E+02  0.26870233353E+02  0.51100000000E-03 0.  1.
        -12    1    3    3    0    0 -0.73212632450E+00 -0.24600624616E+01 -0.13438336503E+01  0.28972064389E+01  0.00000000000E+00 0.  1.
</event>
<event>
 7    1  0.2339217E-009  0.4778727E+02  0.7816164E-02  0.1312668E+00
        -11   -1    0    0    0    0  0.00000000000E+00  0.00000000000E+00  0.45593999997E+02  0.45594000000E+02  0.51100000000E-03 0.  1.
         11   -1    0    0    0    0 -0.00000000000E+00 -0.00000000000E+00 -0.45593999997E+02  0.45594000000E+02  0.51100000000E-03 0. -1.
    9900012    2    1    2    0    0 -0.27147751912E+02  0.27034483898E+02  0.20390188500E+02  0.47787267972E+02  0.19999985991E+02 0.  0.
         12    1    1    2    0    0  0.27147751912E+02 -0.27034483898E+02 -0.20390188500E+02  0.43400732028E+02  0.00000000000E+00 0. -1.
         11    1    3    3    0    0 -0.11446234584E+02  0.63717201355E+01  0.72085932367E+01  0.14952555646E+02  0.51100000000E-03 0. -1.
        -11    1    3    3    0    0 -0.14566228815E+02  0.16401716010E+02  0.16388682548E+02  0.27382115073E+02  0.51100000000E-03 0.  1.
         12    1    3    3    0    0 -0.11352885141E+01  0.42610477522E+01 -0.32070872841E+01  0.54525972531E+01  0.00000000000E+00 0. -1.
</event>
<event>
 7    1  0.2339217E-009  0.4778727E+02  0.7816164E-02  0.1312668E+00
        -11   -1    0    0    0    0  0.00000000000E+00  0.00000000000E+00  0.45593999997E+02  0.45594000000E+02  0.51100000000E-03 0. -1.
         11   -1    0    0    0    0 -0.00000000000E+00 -0.00000000000E+00 -0.45593999997E+02  0.45594000000E+02  0.51100000000E-03 0.  1.
    9900012    2    1    2    0    0  0.10757346264E+02  0.42046397009E+02  0.56659714951E-01  0.47787271776E+02  0.20000003335E+02 0.  0.
         12    1    1    2    0    0 -0.10757346264E+02 -0.42046397009E+02 -0.56659714951E-01  0.43400728224E+02  0.00000000000E+00 0. -1.
         11    1    3    3    0    0 -0.25695375443E+01  0.57898911783E+01 -0.41143663487E+01  0.75533683718E+01  0.51100000000E-03 0. -1.
        -11    1    3    3    0    0 -0.21366817599E+00  0.12632211608E+02 -0.31100138374E+00  0.12637845794E+02  0.51100000000E-03 0.  1.
        -12    1    3    3    0    0  0.13540551985E+02  0.23624294223E+02  0.44820274474E+01  0.27596057610E+02  0.00000000000E+00 0.  1.
</event>
<event>
 7    1  0.2339217E-009  0.4778727E+02  0.7816164E-02  0.1312668E+00
        -11   -1    0    0    0    0  0.00000000000E+00  0.00000000000E+00  0.45593999997E+02  0.45594000000E+02  0.51100000000E-03 0. -1.
         11   -1    0    0    0    0 -0.00000000000E+00 -0.00000000000E+00 -0.45593999997E+02  0.45594000000E+02  0.51100000000E-03 0.  1.
    9900012    2    1    2    0    0  0.21035747306E+02  0.13430658677E+02 -0.35506875601E+02  0.47787268760E+02  0.19999989584E+02 0.  0.
         12    1    1    2    0    0 -0.21035747306E+02 -0.13430658677E+02  0.35506875601E+02  0.43400731240E+02  0.00000000000E+00 0. -1.
         11    1    3    3    0    0  0.62855245005E+01  0.22516566299E+01 -0.10355015370E+02  0.12320881437E+02  0.51100000000E-03 0. -1.
        -11    1    3    3    0    0  0.15447300831E+02  0.34575173743E+01 -0.10826883965E+02  0.19177980759E+02  0.51100000000E-03 0.  1.
         12    1    3    3    0    0 -0.69707802555E+00  0.77214846731E+01 -0.14324976266E+02  0.16288406563E+02  0.00000000000E+00 0. -1.
</event>
<event>
 7    1  0.2339217E-009  0.4778727E+02  0.7816164E-02  0.1312668E+00
        -11   -1    0    0    0    0  0.00000000000E+00  0.00000000000E+00  0.45593999997E+02  0.45594000000E+02  0.51100000000E-03 0.  1.
         11   -1    0    0    0    0 -0.00000000000E+00 -0.00000000000E+00 -0.45593999997E+02  0.45594000000E+02  0.51100000000E-03 0. -1.
    9900012    2    1    2    0    0  0.38057093584E+02 -0.73146146771E+00 -0.20850556311E+02  0.47787272973E+02  0.20000008794E+02 0.  0.
         12    1    1    2    0    0 -0.38057093584E+02  0.73146146771E+00  0.20850556311E+02  0.43400727027E+02  0.00000000000E+00 0. -1.
         11    1    3    3    0    0  0.51775480826E+01  0.39856232883E+01  0.33649413971E+00  0.65425855524E+01  0.51100000000E-03 0. -1.
        -11    1    3    3    0    0  0.39075814685E+01  0.34359496240E+01 -0.41821246379E+01  0.66757104116E+01  0.51100000000E-03 0.  1.
        -12    1    3    3    0    0  0.28971964033E+02 -0.81530343800E+01 -0.17004925813E+02  0.34568977009E+02  0.00000000000E+00 0.  1.
</event>
<event>
 7    1  0.2339217E-009  0.4778724E+02  0.7816164E-02  0.1312668E+00
        -11   -1    0    0    0    0  0.00000000000E+00  0.00000000000E+00  0.45593999997E+02  0.45594000000E+02  0.51100000000E-03 0.  1.
         11   -1    0    0    0    0 -0.00000000000E+00 -0.00000000000E+00 -0.45593999997E+02  0.45594000000E+02  0.51100000000E-03 0. -1.
    9900012    2    1    2    0    0  0.11345726262E+01 -0.38477678454E+02  0.20045132598E+02  0.47787235777E+02  0.19999839201E+02 0.  0.
         12    1    1    2    0    0 -0.11345726262E+01  0.38477678454E+02 -0.20045132598E+02  0.43400764223E+02  0.00000000000E+00 0. -1.
         11    1    3    3    0    0  0.19701663198E+01 -0.14539264338E+01  0.44215324153E+00  0.24881634096E+01  0.51100000000E-03 0. -1.
        -11    1    3    3    0    0  0.38070209541E+01 -0.29685481905E+01  0.73828132823E+01  0.88210894524E+01  0.51100000000E-03 0.  1.
         12    1    3    3    0    0 -0.46426146477E+01 -0.34055203830E+02  0.12220166074E+02  0.36477982915E+02  0.00000000000E+00 0. -1.
</event>
<event>
 7    1  0.2339217E-009  0.4778727E+02  0.7816164E-02  0.1312668E+00
        -11   -1    0    0    0    0  0.00000000000E+00  0.00000000000E+00  0.45593999997E+02  0.45594000000E+02  0.51100000000E-03 0.  1.
         11   -1    0    0    0    0 -0.00000000000E+00 -0.00000000000E+00 -0.45593999997E+02  0.45594000000E+02  0.51100000000E-03 0. -1.
    9900012    2    1    2    0    0 -0.21441977232E+02 -0.73545962452E+01  0.37010472922E+02  0.47787267524E+02  0.19999983949E+02 0.  0.
         12    1    1    2    0    0  0.21441977232E+02  0.73545962452E+01 -0.37010472922E+02  0.43400732476E+02  0.00000000000E+00 0. -1.
         11    1    3    3    0    0 -0.34527741246E+01  0.17867112474E+01  0.67116656051E+00  0.39451807373E+01  0.51100000000E-03 0. -1.
        -11    1    3    3    0    0  0.87798734142E+00 -0.48528524813E+01  0.50861899137E+01  0.70845160086E+01  0.51100000000E-03 0.  1.
        -12    1    3    3    0    0 -0.18867190448E+02 -0.42884550113E+01  0.31253116448E+02  0.36757570778E+02  0.00000000000E+00 0.  1.
</event>
<event>
 7    1  0.2339217E-009  0.4778726E+02  0.7816164E-02  0.1312668E+00
        -11   -1    0    0    0    0  0.00000000000E+00  0.00000000000E+00  0.45593999997E+02  0.45594000000E+02  0.51100000000E-03 0.  1.
         11   -1    0    0    0    0 -0.00000000000E+00 -0.00000000000E+00 -0.45593999997E+02  0.45594000000E+02  0.51100000000E-03 0. -1.
    9900012    2    1    2    0    0  0.49786339516E+01  0.39959156807E+02  0.16189593936E+02  0.47787263133E+02  0.19999963930E+02 0.  0.
         12    1    1    2    0    0 -0.49786339516E+01 -0.39959156807E+02 -0.16189593936E+02  0.43400736867E+02  0.00000000000E+00 0. -1.
         11    1    3    3    0    0  0.22869598244E+01 -0.49255080675E+00  0.14310132497E+01  0.27423695443E+01  0.51100000000E-03 0. -1.
        -11    1    3    3    0    0 -0.34919555749E+01  0.28585170974E+02  0.72301886363E+01  0.29691436162E+02  0.51100000000E-03 0.  1.
         12    1    3    3    0    0  0.61836297022E+01  0.11866536640E+02  0.75283920497E+01  0.15353457427E+02  0.00000000000E+00 0. -1.
</event>
<event>
 7    1  0.2339217E-009  0.4778727E+02  0.7816164E-02  0.1312668E+00
        -11   -1    0    0    0    0  0.00000000000E+00  0.00000000000E+00  0.45593999997E+02  0.45594000000E+02  0.51100000000E-03 0.  1.
         11   -1    0    0    0    0 -0.00000000000E+00 -0.00000000000E+00 -0.45593999997E+02  0.45594000000E+02  0.51100000000E-03 0. -1.
    9900012    2    1    2    0    0  0.10524859355E+02 -0.13843189033E+02  0.39764514260E+02  0.47787272571E+02  0.20000006962E+02 0.  0.
         12    1    1    2    0    0 -0.10524859355E+02  0.13843189033E+02 -0.39764514260E+02  0.43400727429E+02  0.00000000000E+00 0. -1.
         11    1    3    3    0    0  0.40104301246E+01 -0.85292149615E+01  0.10305186716E+02  0.13965240104E+02  0.51100000000E-03 0. -1.
        -11    1    3    3    0    0  0.97403918673E+01 -0.46515450012E+01  0.12365900713E+02  0.16414250069E+02  0.51100000000E-03 0.  1.
         12    1    3    3    0    0 -0.32259626372E+01 -0.66242906988E+00  0.17093426831E+02  0.17407782399E+02  0.00000000000E+00 0. -1.
</event>
<event>
 7    1  0.2339217E-009  0.4778727E+02  0.7816164E-02  0.1312668E+00
        -11   -1    0    0    0    0  0.00000000000E+00  0.00000000000E+00  0.45593999997E+02  0.45594000000E+02  0.51100000000E-03 0.  1.
         11   -1    0    0    0    0 -0.00000000000E+00 -0.00000000000E+00 -0.45593999997E+02  0.45594000000E+02  0.51100000000E-03 0. -1.
    9900012    2    1    2    0    0  0.10991193608E+02  0.16513524924E+02  0.38602076258E+02  0.47787272659E+02  0.20000007360E+02 0.  0.
         12    1    1    2    0    0 -0.10991193608E+02 -0.16513524924E+02 -0.38602076258E+02  0.43400727341E+02  0.00000000000E+00 0. -1.
         11    1    3    3    0    0 -0.43015063963E-01  0.42288902652E+01  0.62362619802E+00  0.42748418762E+01  0.51100000000E-03 0. -1.
        -11    1    3    3    0    0  0.79034554486E+01  0.12141003164E+02  0.17151040588E+02  0.22450540292E+02  0.51100000000E-03 0.  1.
         12    1    3    3    0    0  0.31307532237E+01  0.14363149446E+00  0.20827409472E+02  0.21061890491E+02  0.00000000000E+00 0. -1.
</event>
<event>
 7    1  0.2339217E-009  0.4778727E+02  0.7816164E-02  0.1312668E+00
        -11   -1    0    0    0    0  0.00000000000E+00  0.00000000000E+00  0.45593999997E+02  0.45594000000E+02  0.51100000000E-03 0. -1.
         11   -1    0    0    0    0 -0.00000000000E+00 -0.00000000000E+00 -0.45593999997E+02  0.45594000000E+02  0.51100000000E-03 0.  1.
    9900012    2    1    2    0    0  0.85287592097E+01  0.30136270694E+02 -0.30044777543E+02  0.47787271866E+02  0.20000003745E+02 0.  0.
         12    1    1    2    0    0 -0.85287592097E+01 -0.30136270694E+02  0.30044777543E+02  0.43400728134E+02  0.00000000000E+00 0. -1.
         11    1    3    3    0    0 -0.19792865286E+00  0.31874223954E+01  0.19646447669E+01  0.37494888451E+01  0.51100000000E-03 0. -1.
        -11    1    3    3    0    0 -0.24554961357E+01  0.60790023183E+01 -0.74460300863E+01  0.99210430281E+01  0.51100000000E-03 0.  1.
        -12    1    3    3    0    0  0.11182183998E+02  0.20869845980E+02 -0.24563392223E+02  0.34116739993E+02  0.00000000000E+00 0.  1.
</event>
<event>
 7    1  0.2339217E-009  0.4778728E+02  0.7816164E-02  0.1312668E+00
        -11   -1    0    0    0    0  0.00000000000E+00  0.00000000000E+00  0.45593999997E+02  0.45594000000E+02  0.51100000000E-03 0. -1.
         11   -1    0    0    0    0 -0.00000000000E+00 -0.00000000000E+00 -0.45593999997E+02  0.45594000000E+02  0.51100000000E-03 0.  1.
    9900012    2    1    2    0    0  0.38420389701E+02 -0.18368702946E+02 -0.83718137274E+01  0.47787275838E+02  0.20000021856E+02 0.  0.
         12    1    1    2    0    0 -0.38420389701E+02  0.18368702946E+02  0.83718137274E+01  0.43400724162E+02  0.00000000000E+00 0. -1.
         11    1    3    3    0    0  0.15026766626E+02 -0.18019398882E+01 -0.33863105171E+01  0.15508636361E+02  0.51100000000E-03 0. -1.
        -11    1    3    3    0    0 -0.61680619435E+00  0.16301033362E+01 -0.54620774691E+00  0.18264802030E+01  0.51100000000E-03 0.  1.
        -12    1    3    3    0    0  0.24010429269E+02 -0.18196866394E+02 -0.44392954634E+01  0.30452159274E+02  0.00000000000E+00 0.  1.
</event>
<event>
 7    1  0.2339217E-009  0.4778727E+02  0.7816164E-02  0.1312668E+00
        -11   -1    0    0    0    0  0.00000000000E+00  0.00000000000E+00  0.45593999997E+02  0.45594000000E+02  0.51100000000E-03 0.  1.
         11   -1    0    0    0    0 -0.00000000000E+00 -0.00000000000E+00 -0.45593999997E+02  0.45594000000E+02  0.51100000000E-03 0. -1.
    9900012    2    1    2    0    0 -0.29612518638E+02 -0.17135863577E+02  0.26703631960E+02  0.47787273733E+02  0.20000012259E+02 0.  0.
         12    1    1    2    0    0  0.29612518638E+02  0.17135863577E+02 -0.26703631960E+02  0.43400726267E+02  0.00000000000E+00 0. -1.
         11    1    3    3    0    0 -0.10138704864E+02  0.14923047610E+01  0.40162019877E+01  0.11006824632E+02  0.51100000000E-03 0.  1.
        -11    1    3    3    0    0 -0.54853181367E+01 -0.57207136821E+01  0.11021052057E+01  0.80018695464E+01  0.51100000000E-03 0. -1.
        -12    1    3    3    0    0 -0.13988495638E+02 -0.12907454656E+02  0.21585324767E+02  0.28778579554E+02  0.00000000000E+00 0.  1.
</event>
<event>
 7    1  0.2339217E-009  0.4778727E+02  0.7816164E-02  0.1312668E+00
        -11   -1    0    0    0    0  0.00000000000E+00  0.00000000000E+00  0.45593999997E+02  0.45594000000E+02  0.51100000000E-03 0. -1.
         11   -1    0    0    0    0 -0.00000000000E+00 -0.00000000000E+00 -0.45593999997E+02  0.45594000000E+02  0.51100000000E-03 0.  1.
    9900012    2    1    2    0    0 -0.32663848452E+02 -0.19073715209E+02 -0.21281198758E+02  0.47787273875E+02  0.20000012908E+02 0.  0.
         12    1    1    2    0    0  0.32663848452E+02  0.19073715209E+02  0.21281198758E+02  0.43400726125E+02  0.00000000000E+00 0. -1.
         11    1    3    3    0    0 -0.16157647442E+02 -0.28986552684E+01 -0.13321082487E+02  0.21140553732E+02  0.51100000000E-03 0. -1.
        -11    1    3    3    0    0 -0.82709355653E+01 -0.12491111967E+01 -0.21489386959E+01  0.86363529158E+01  0.51100000000E-03 0.  1.
        -12    1    3    3    0    0 -0.82352654446E+01 -0.14925948744E+02 -0.58111775754E+01  0.18010367227E+02  0.00000000000E+00 0.  1.
</event>
<event>
 7    1  0.2339217E-009  0.4778727E+02  0.7816164E-02  0.1312668E+00
        -11   -1    0    0    0    0  0.00000000000E+00  0.00000000000E+00  0.45593999997E+02  0.45594000000E+02  0.51100000000E-03 0.  1.
         11   -1    0    0    0    0 -0.00000000000E+00 -0.00000000000E+00 -0.45593999997E+02  0.45594000000E+02  0.51100000000E-03 0. -1.
    9900012    2    1    2    0    0 -0.90101933034E-01  0.32750635425E+00  0.43399399458E+02  0.47787271296E+02  0.20000001146E+02 0.  0.
         12    1    1    2    0    0  0.90101933034E-01 -0.32750635425E+00 -0.43399399458E+02  0.43400728704E+02  0.00000000000E+00 0. -1.
         11    1    3    3    0    0 -0.22306158198E+01 -0.63513433381E+00  0.53044572142E+00  0.23791627691E+01  0.51100000000E-03 0. -1.
        -11    1    3    3    0    0  0.12184758945E+01 -0.67289976665E+01  0.25283611549E+02  0.26192080985E+02  0.51100000000E-03 0.  1.
        -12    1    3    3    0    0  0.92203799217E+00  0.76916383545E+01  0.17585342187E+02  0.19216027541E+02  0.00000000000E+00 0.  1.
</event>
<event>
 7    1  0.2339217E-009  0.4778727E+02  0.7816164E-02  0.1312668E+00
        -11   -1    0    0    0    0  0.00000000000E+00  0.00000000000E+00  0.45593999997E+02  0.45594000000E+02  0.51100000000E-03 0.  1.
         11   -1    0    0    0    0 -0.00000000000E+00 -0.00000000000E+00 -0.45593999997E+02  0.45594000000E+02  0.51100000000E-03 0. -1.
    9900012    2    1    2    0    0 -0.20611849911E+02  0.83329456022E+01  0.37273809256E+02  0.47787271946E+02  0.20000004112E+02 0.  0.
         12    1    1    2    0    0  0.20611849911E+02 -0.83329456022E+01 -0.37273809256E+02  0.43400728054E+02  0.00000000000E+00 0. -1.
         11    1    3    3    0    0 -0.53277270224E+01  0.68828986836E+01  0.73595289813E+01  0.11398317271E+02  0.51100000000E-03 0. -1.
        -11    1    3    3    0    0 -0.28359438898E+01  0.38651040749E+01  0.11152530750E+01  0.49219302045E+01  0.51100000000E-03 0.  1.
        -12    1    3    3    0    0 -0.12448178999E+02 -0.24150571563E+01  0.28799027199E+02  0.31467024471E+02  0.00000000000E+00 0.  1.
</event>
<event>
 7    1  0.2339217E-009  0.4778727E+02  0.7816164E-02  0.1312668E+00
        -11   -1    0    0    0    0  0.00000000000E+00  0.00000000000E+00  0.45593999997E+02  0.45594000000E+02  0.51100000000E-03 0. -1.
         11   -1    0    0    0    0 -0.00000000000E+00 -0.00000000000E+00 -0.45593999997E+02  0.45594000000E+02  0.51100000000E-03 0.  1.
    9900012    2    1    2    0    0  0.46732536810E+00 -0.34598863590E+02 -0.26197773021E+02  0.47787273439E+02  0.20000010918E+02 0.  0.
         12    1    1    2    0    0 -0.46732536810E+00  0.34598863590E+02  0.26197773021E+02  0.43400726561E+02  0.00000000000E+00 0. -1.
         11    1    3    3    0    0 -0.71628076944E+01 -0.20745566782E+02 -0.13669992472E+02  0.25856392819E+02  0.51100000000E-03 0. -1.
        -11    1    3    3    0    0  0.73071011550E+00 -0.49967705230E+01  0.78032135269E-01  0.50505190038E+01  0.51100000000E-03 0.  1.
        -12    1    3    3    0    0  0.68994229470E+01 -0.88565262849E+01 -0.12605812685E+02  0.16880361616E+02  0.00000000000E+00 0.  1.
</event>
<event>
 7    1  0.2339217E-009  0.4778727E+02  0.7816164E-02  0.1312668E+00
        -11   -1    0    0    0    0  0.00000000000E+00  0.00000000000E+00  0.45593999997E+02  0.45594000000E+02  0.51100000000E-03 0.  1.
         11   -1    0    0    0    0 -0.00000000000E+00 -0.00000000000E+00 -0.45593999997E+02  0.45594000000E+02  0.51100000000E-03 0. -1.
    9900012    2    1    2    0    0  0.77201644346E+01 -0.26701715793E+02  0.33332275265E+02  0.47787272592E+02  0.20000007058E+02 0.  0.
         12    1    1    2    0    0 -0.77201644346E+01  0.26701715793E+02 -0.33332275265E+02  0.43400727408E+02  0.00000000000E+00 0. -1.
         11    1    3    3    0    0  0.63378200674E+01 -0.69034785012E+01  0.68808142919E+01  0.11626331502E+02  0.51100000000E-03 0. -1.
        -11    1    3    3    0    0  0.64643729588E+01 -0.14896369537E+02  0.12387417559E+02  0.20423957922E+02  0.51100000000E-03 0.  1.
         12    1    3    3    0    0 -0.50820285916E+01 -0.49018677540E+01  0.14064043414E+02  0.15736983168E+02  0.00000000000E+00 0. -1.
</event>
<event>
 7    1  0.2339217E-009  0.4778727E+02  0.7816164E-02  0.1312668E+00
        -11   -1    0    0    0    0  0.00000000000E+00  0.00000000000E+00  0.45593999997E+02  0.45594000000E+02  0.51100000000E-03 0.  1.
         11   -1    0    0    0    0 -0.00000000000E+00 -0.00000000000E+00 -0.45593999997E+02  0.45594000000E+02  0.51100000000E-03 0. -1.
    9900012    2    1    2    0    0 -0.80436907378E+01 -0.26227006014E+02  0.33631329220E+02  0.47787272929E+02  0.20000008594E+02 0.  0.
         12    1    1    2    0    0  0.80436907378E+01  0.26227006014E+02 -0.33631329220E+02  0.43400727071E+02  0.00000000000E+00 0. -1.
         11    1    3    3    0    0 -0.38405787266E+01 -0.14445865151E+02  0.15159802638E+02  0.21289731825E+02  0.51100000000E-03 0.  1.
        -11    1    3    3    0    0 -0.59506181265E+01 -0.71023829029E+01  0.22645343712E+01  0.95384388223E+01  0.51100000000E-03 0. -1.
         12    1    3    3    0    0  0.17475061153E+01 -0.46787579601E+01  0.16206992211E+02  0.16959102282E+02  0.00000000000E+00 0. -1.
</event>
<event>
 7    1  0.2339217E-009  0.4778726E+02  0.7816164E-02  0.1312668E+00
        -11   -1    0    0    0    0  0.00000000000E+00  0.00000000000E+00  0.45593999997E+02  0.45594000000E+02  0.51100000000E-03 0. -1.
         11   -1    0    0    0    0 -0.00000000000E+00 -0.00000000000E+00 -0.45593999997E+02  0.45594000000E+02  0.51100000000E-03 0.  1.
    9900012    2    1    2    0    0 -0.39447769942E+02  0.60518330588E+01 -0.17054991028E+02  0.47787263189E+02  0.19999964185E+02 0.  0.
         12    1    1    2    0    0  0.39447769942E+02 -0.60518330588E+01  0.17054991028E+02  0.43400736811E+02  0.00000000000E+00 0. -1.
         11    1    3    3    0    0 -0.59966992769E-01 -0.45564609481E+00 -0.36060953629E+01  0.36352624983E+01  0.51100000000E-03 0. -1.
        -11    1    3    3    0    0 -0.17642403598E+02  0.23112741927E+01 -0.12937657865E+02  0.21999531459E+02  0.51100000000E-03 0.  1.
        -12    1    3    3    0    0 -0.21745399351E+02  0.41962049609E+01 -0.51123780052E+00  0.22152469232E+02  0.00000000000E+00 0.  1.
</event>
<event>
 7    1  0.2339217E-009  0.4778727E+02  0.7816164E-02  0.1312668E+00
        -11   -1    0    0    0    0  0.00000000000E+00  0.00000000000E+00  0.45593999997E+02  0.45594000000E+02  0.51100000000E-03 0.  1.
         11   -1    0    0    0    0 -0.00000000000E+00 -0.00000000000E+00 -0.45593999997E+02  0.45594000000E+02  0.51100000000E-03 0. -1.
    9900012    2    1    2    0    0  0.15110031557E+02 -0.25224408721E+01  0.40607234439E+02  0.47787271315E+02  0.20000001232E+02 0.  0.
         12    1    1    2    0    0 -0.15110031557E+02  0.25224408721E+01 -0.40607234439E+02  0.43400728685E+02  0.00000000000E+00 0. -1.
         11    1    3    3    0    0  0.67990973651E+00 -0.35813521440E+01  0.16368085791E+02  0.16769096373E+02  0.51100000000E-03 0. -1.
        -11    1    3    3    0    0 -0.20338598832E+01  0.17993962268E+01  0.21795648499E+01  0.34820850078E+01  0.51100000000E-03 0.  1.
        -12    1    3    3    0    0  0.16463981703E+02 -0.74048495490E+00  0.22059583798E+02  0.27536089934E+02  0.00000000000E+00 0.  1.
</event>
<event>
 7    1  0.2339217E-009  0.4778728E+02  0.7816164E-02  0.1312668E+00
        -11   -1    0    0    0    0  0.00000000000E+00  0.00000000000E+00  0.45593999997E+02  0.45594000000E+02  0.51100000000E-03 0.  1.
         11   -1    0    0    0    0 -0.00000000000E+00 -0.00000000000E+00 -0.45593999997E+02  0.45594000000E+02  0.51100000000E-03 0. -1.
    9900012    2    1    2    0    0  0.87581726897E+01 -0.40787028764E+02 -0.11972280379E+02  0.47787276484E+02  0.20000024801E+02 0.  0.
         12    1    1    2    0    0 -0.87581726897E+01  0.40787028764E+02  0.11972280379E+02  0.43400723516E+02  0.00000000000E+00 0. -1.
         11    1    3    3    0    0  0.14408027976E+01 -0.68318354530E+01 -0.40771961259E+01  0.80853829142E+01  0.51100000000E-03 0. -1.
        -11    1    3    3    0    0  0.38208627372E+01 -0.57097450785E+01 -0.88756524593E+01  0.11223964886E+02  0.51100000000E-03 0.  1.
         12    1    3    3    0    0  0.34965071548E+01 -0.28245448232E+02  0.98056820633E+00  0.28477928684E+02  0.00000000000E+00 0. -1.
</event>
<event>
 7    1  0.2339217E-009  0.4778727E+02  0.7816164E-02  0.1312668E+00
        -11   -1    0    0    0    0  0.00000000000E+00  0.00000000000E+00  0.45593999997E+02  0.45594000000E+02  0.51100000000E-03 0. -1.
         11   -1    0    0    0    0 -0.00000000000E+00 -0.00000000000E+00 -0.45593999997E+02  0.45594000000E+02  0.51100000000E-03 0.  1.
    9900012    2    1    2    0    0  0.17576610396E+01 -0.14598258495E+02 -0.40834112052E+02  0.47787271545E+02  0.20000002281E+02 0.  0.
         12    1    1    2    0    0 -0.17576610396E+01  0.14598258495E+02  0.40834112052E+02  0.43400728455E+02  0.00000000000E+00 0. -1.
         11    1    3    3    0    0  0.94201319893E+00 -0.54236450926E+01 -0.12238260869E+02  0.13419327268E+02  0.51100000000E-03 0. -1.
        -11    1    3    3    0    0 -0.92628377959E+00 -0.12729451290E+02 -0.27409410091E+02  0.30235288879E+02  0.51100000000E-03 0.  1.
         12    1    3    3    0    0  0.17419316203E+01  0.35548378873E+01 -0.11864410908E+01  0.41326553978E+01  0.00000000000E+00 0. -1.
</event>
<event>
 7    1  0.2339217E-009  0.4778727E+02  0.7816164E-02  0.1312668E+00
        -11   -1    0    0    0    0  0.00000000000E+00  0.00000000000E+00  0.45593999997E+02  0.45594000000E+02  0.51100000000E-03 0.  1.
         11   -1    0    0    0    0 -0.00000000000E+00 -0.00000000000E+00 -0.45593999997E+02  0.45594000000E+02  0.51100000000E-03 0. -1.
    9900012    2    1    2    0    0  0.22823042126E+02  0.47684369753E+01  0.36605926028E+02  0.47787273469E+02  0.20000011053E+02 0.  0.
         12    1    1    2    0    0 -0.22823042126E+02 -0.47684369753E+01 -0.36605926028E+02  0.43400726531E+02  0.00000000000E+00 0. -1.
         11    1    3    3    0    0 -0.22040465231E+01  0.56339317638E+00  0.11591779847E+01  0.25532189112E+01  0.51100000000E-03 0.  1.
        -11    1    3    3    0    0  0.63467917140E+01  0.14858007045E+01  0.19834313010E+01  0.68134696581E+01  0.51100000000E-03 0. -1.
         12    1    3    3    0    0  0.18680296935E+02  0.27192430944E+01  0.33463316742E+02  0.38420584899E+02  0.00000000000E+00 0. -1.
</event>
<event>
 7    1  0.2339217E-009  0.4778727E+02  0.7816164E-02  0.1312668E+00
        -11   -1    0    0    0    0  0.00000000000E+00  0.00000000000E+00  0.45593999997E+02  0.45594000000E+02  0.51100000000E-03 0. -1.
         11   -1    0    0    0    0 -0.00000000000E+00 -0.00000000000E+00 -0.45593999997E+02  0.45594000000E+02  0.51100000000E-03 0.  1.
    9900012    2    1    2    0    0 -0.21482258361E+02 -0.17109559214E+02  0.33606527200E+02  0.47787272918E+02  0.20000008542E+02 0.  0.
         12    1    1    2    0    0  0.21482258361E+02  0.17109559214E+02 -0.33606527200E+02  0.43400727082E+02  0.00000000000E+00 0. -1.
         11    1    3    3    0    0 -0.45466858217E+01 -0.62036518939E+01  0.45063567062E+01  0.89143087116E+01  0.51100000000E-03 0. -1.
        -11    1    3    3    0    0 -0.14251929271E+02 -0.70369471807E+01  0.90773284552E+01  0.18303934160E+02  0.51100000000E-03 0.  1.
         12    1    3    3    0    0 -0.26836432680E+01 -0.38689601393E+01  0.20022842039E+02  0.20569030047E+02  0.00000000000E+00 0. -1.
</event>
<event>
 7    1  0.2339217E-009  0.4778726E+02  0.7816164E-02  0.1312668E+00
        -11   -1    0    0    0    0  0.00000000000E+00  0.00000000000E+00  0.45593999997E+02  0.45594000000E+02  0.51100000000E-03 0.  1.
         11   -1    0    0    0    0 -0.00000000000E+00 -0.00000000000E+00 -0.45593999997E+02  0.45594000000E+02  0.51100000000E-03 0. -1.
    9900012    2    1    2    0    0  0.25901785212E+02 -0.19997969904E+01  0.34766688578E+02  0.47787259224E+02  0.19999946107E+02 0.  0.
         12    1    1    2    0    0 -0.25901785212E+02  0.19997969904E+01 -0.34766688578E+02  0.43400740776E+02  0.00000000000E+00 0. -1.
         11    1    3    3    0    0  0.66077698528E+01  0.70280828815E+00  0.17183466228E+01  0.68636198390E+01  0.51100000000E-03 0. -1.
        -11    1    3    3    0    0  0.14321191778E+02  0.46685166476E+01  0.18296145542E+02  0.23698956170E+02  0.51100000000E-03 0.  1.
         12    1    3    3    0    0  0.49728235815E+01 -0.73711219261E+01  0.14752196414E+02  0.17224683215E+02  0.00000000000E+00 0. -1.
</event>
<event>
 7    1  0.2339217E-009  0.4778729E+02  0.7816164E-02  0.1312668E+00
        -11   -1    0    0    0    0  0.00000000000E+00  0.00000000000E+00  0.45593999997E+02  0.45594000000E+02  0.51100000000E-03 0.  1.
         11   -1    0    0    0    0 -0.00000000000E+00 -0.00000000000E+00 -0.45593999997E+02  0.45594000000E+02  0.51100000000E-03 0. -1.
    9900012    2    1    2    0    0 -0.15283327966E+01  0.43253727100E+02 -0.32250338801E+01  0.47787290873E+02  0.20000090405E+02 0.  0.
         12    1    1    2    0    0  0.15283327966E+01 -0.43253727100E+02  0.32250338801E+01  0.43400709127E+02  0.00000000000E+00 0. -1.
         11    1    3    3    0    0 -0.19842837451E+01  0.12906649149E+02 -0.83856557251E+00  0.13085188830E+02  0.51100000000E-03 0. -1.
        -11    1    3    3    0    0  0.32531867475E+01  0.30286009261E+02  0.78824697779E+00  0.30470426885E+02  0.51100000000E-03 0.  1.
         12    1    3    3    0    0 -0.27972357990E+01  0.61068690484E-01 -0.31747152854E+01  0.42316751581E+01  0.00000000000E+00 0. -1.
</event>
<event>
 7    1  0.2339217E-009  0.4778727E+02  0.7816164E-02  0.1312668E+00
        -11   -1    0    0    0    0  0.00000000000E+00  0.00000000000E+00  0.45593999997E+02  0.45594000000E+02  0.51100000000E-03 0.  1.
         11   -1    0    0    0    0 -0.00000000000E+00 -0.00000000000E+00 -0.45593999997E+02  0.45594000000E+02  0.51100000000E-03 0. -1.
    9900012    2    1    2    0    0  0.11938733906E+02  0.33514844923E+02  0.24856491567E+02  0.47787269931E+02  0.19999994923E+02 0.  0.
         12    1    1    2    0    0 -0.11938733906E+02 -0.33514844923E+02 -0.24856491567E+02  0.43400730069E+02  0.00000000000E+00 0. -1.
         11    1    3    3    0    0  0.33246618225E+01  0.77508872889E+01 -0.27070091097E+01  0.88576254481E+01  0.51100000000E-03 0. -1.
        -11    1    3    3    0    0  0.12834418183E+01  0.28160698902E+01  0.52438541615E+01  0.60889637260E+01  0.51100000000E-03 0.  1.
         12    1    3    3    0    0  0.73306302654E+01  0.22947887744E+02  0.22319646515E+02  0.32840680757E+02  0.00000000000E+00 0. -1.
</event>
<event>
 7    1  0.2339217E-009  0.4778727E+02  0.7816164E-02  0.1312668E+00
        -11   -1    0    0    0    0  0.00000000000E+00  0.00000000000E+00  0.45593999997E+02  0.45594000000E+02  0.51100000000E-03 0. -1.
         11   -1    0    0    0    0 -0.00000000000E+00 -0.00000000000E+00 -0.45593999997E+02  0.45594000000E+02  0.51100000000E-03 0.  1.
    9900012    2    1    2    0    0  0.41182956717E+02 -0.13079215714E+02  0.40646522292E+01  0.47787271833E+02  0.20000003596E+02 0.  0.
         12    1    1    2    0    0 -0.41182956717E+02  0.13079215714E+02 -0.40646522292E+01  0.43400728167E+02  0.00000000000E+00 0. -1.
         11    1    3    3    0    0  0.30005659788E+01 -0.49202762793E+01  0.13424562816E+01  0.59173223664E+01  0.51100000000E-03 0. -1.
        -11    1    3    3    0    0  0.21319020787E+01 -0.18234380842E+01 -0.37663768511E+01  0.46963313092E+01  0.51100000000E-03 0.  1.
        -12    1    3    3    0    0  0.36050488660E+02 -0.63355013508E+01  0.64885727987E+01  0.37173618158E+02  0.00000000000E+00 0.  1.
</event>
<event>
 7    1  0.2339217E-009  0.4778727E+02  0.7816164E-02  0.1312668E+00
        -11   -1    0    0    0    0  0.00000000000E+00  0.00000000000E+00  0.45593999997E+02  0.45594000000E+02  0.51100000000E-03 0.  1.
         11   -1    0    0    0    0 -0.00000000000E+00 -0.00000000000E+00 -0.45593999997E+02  0.45594000000E+02  0.51100000000E-03 0. -1.
    9900012    2    1    2    0    0 -0.40955158680E+02  0.83557292665E+01  0.11682458253E+02  0.47787273452E+02  0.20000010975E+02 0.  0.
         12    1    1    2    0    0  0.40955158680E+02 -0.83557292665E+01 -0.11682458253E+02  0.43400726548E+02  0.00000000000E+00 0. -1.
         11    1    3    3    0    0 -0.13411365396E+02 -0.25527194587E+01  0.41025539760E+01  0.14255246325E+02  0.51100000000E-03 0. -1.
        -11    1    3    3    0    0 -0.19091975013E+02  0.67616920115E+01  0.11548938641E+02  0.23315273379E+02  0.51100000000E-03 0.  1.
         12    1    3    3    0    0 -0.84518182719E+01  0.41467567138E+01 -0.39690343642E+01  0.10216753747E+02  0.00000000000E+00 0. -1.
</event>
<event>
 7    1  0.2339217E-009  0.4778727E+02  0.7816164E-02  0.1312668E+00
        -11   -1    0    0    0    0  0.00000000000E+00  0.00000000000E+00  0.45593999997E+02  0.45594000000E+02  0.51100000000E-03 0.  1.
         11   -1    0    0    0    0 -0.00000000000E+00 -0.00000000000E+00 -0.45593999997E+02  0.45594000000E+02  0.51100000000E-03 0. -1.
    9900012    2    1    2    0    0 -0.27356909496E+02 -0.26933849528E+02  0.20243275954E+02  0.47787274558E+02  0.20000016018E+02 0.  0.
         12    1    1    2    0    0  0.27356909496E+02  0.26933849528E+02 -0.20243275954E+02  0.43400725442E+02  0.00000000000E+00 0. -1.
         11    1    3    3    0    0 -0.70722267876E+01 -0.14196539646E+02  0.46828324163E+01  0.16537443858E+02  0.51100000000E-03 0. -1.
        -11    1    3    3    0    0 -0.20556782533E+02 -0.12416778843E+02  0.17211253677E+02  0.29546318863E+02  0.51100000000E-03 0.  1.
         12    1    3    3    0    0  0.27209982488E+00 -0.32053103974E+00 -0.16508101394E+01  0.17035118369E+01  0.00000000000E+00 0. -1.
</event>
<event>
 7    1  0.2339217E-009  0.4778727E+02  0.7816164E-02  0.1312668E+00
        -11   -1    0    0    0    0  0.00000000000E+00  0.00000000000E+00  0.45593999997E+02  0.45594000000E+02  0.51100000000E-03 0.  1.
         11   -1    0    0    0    0 -0.00000000000E+00 -0.00000000000E+00 -0.45593999997E+02  0.45594000000E+02  0.51100000000E-03 0. -1.
    9900012    2    1    2    0    0  0.13825267810E+02 -0.18581766842E+02  0.36704264863E+02  0.47787272493E+02  0.20000006606E+02 0.  0.
         12    1    1    2    0    0 -0.13825267810E+02  0.18581766842E+02 -0.36704264863E+02  0.43400727507E+02  0.00000000000E+00 0. -1.
         11    1    3    3    0    0  0.22231520939E+01 -0.62547610623E+01  0.21927959964E+02  0.22910693347E+02  0.51100000000E-03 0. -1.
        -11    1    3    3    0    0  0.28116708790E+01  0.17742273350E+01  0.17148463749E+01  0.37408654237E+01  0.51100000000E-03 0.  1.
        -12    1    3    3    0    0  0.87904448372E+01 -0.14101233115E+02  0.13061458523E+02  0.21135713722E+02  0.00000000000E+00 0.  1.
</event>
<event>
 7    1  0.2339217E-009  0.4778727E+02  0.7816164E-02  0.1312668E+00
        -11   -1    0    0    0    0  0.00000000000E+00  0.00000000000E+00  0.45593999997E+02  0.45594000000E+02  0.51100000000E-03 0.  1.
         11   -1    0    0    0    0 -0.00000000000E+00 -0.00000000000E+00 -0.45593999997E+02  0.45594000000E+02  0.51100000000E-03 0. -1.
    9900012    2    1    2    0    0 -0.26076433048E+02 -0.57573261902E+01  0.34212514018E+02  0.47787270964E+02  0.19999999635E+02 0.  0.
         12    1    1    2    0    0  0.26076433048E+02  0.57573261902E+01 -0.34212514018E+02  0.43400729036E+02  0.00000000000E+00 0. -1.
         11    1    3    3    0    0  0.23192218995E+01  0.13743132684E+01  0.83064163479E+00  0.28209028635E+01  0.51100000000E-03 0. -1.
        -11    1    3    3    0    0 -0.31384877246E+01 -0.16213709487E+01  0.12975558871E+01  0.37633230651E+01  0.51100000000E-03 0.  1.
        -12    1    3    3    0    0 -0.25257167223E+02 -0.55102685098E+01  0.32084316496E+02  0.41203045036E+02  0.00000000000E+00 0.  1.
</event>
<event>
 7    1  0.2339217E-009  0.4778729E+02  0.7816164E-02  0.1312668E+00
        -11   -1    0    0    0    0  0.00000000000E+00  0.00000000000E+00  0.45593999997E+02  0.45594000000E+02  0.51100000000E-03 0.  1.
         11   -1    0    0    0    0 -0.00000000000E+00 -0.00000000000E+00 -0.45593999997E+02  0.45594000000E+02  0.51100000000E-03 0. -1.
    9900012    2    1    2    0    0 -0.20950912038E+02 -0.32517969229E+01  0.37869606550E+02  0.47787285735E+02  0.20000066981E+02 0.  0.
         12    1    1    2    0    0  0.20950912038E+02  0.32517969229E+01 -0.37869606550E+02  0.43400714265E+02  0.00000000000E+00 0. -1.
         11    1    3    3    0    0  0.12405935160E+01  0.27290415548E+01  0.63811165660E+01  0.70502048885E+01  0.51100000000E-03 0. -1.
        -11    1    3    3    0    0 -0.99304187834E+01  0.13779494129E+01  0.65062745323E+01  0.11951718301E+02  0.51100000000E-03 0.  1.
        -12    1    3    3    0    0 -0.12261086771E+02 -0.73587878907E+01  0.24982215451E+02  0.28785362546E+02  0.00000000000E+00 0.  1.
</event>
<event>
 7    1  0.2339217E-009  0.4778729E+02  0.7816164E-02  0.1312668E+00
        -11   -1    0    0    0    0  0.00000000000E+00  0.00000000000E+00  0.45593999997E+02  0.45594000000E+02  0.51100000000E-03 0.  1.
         11   -1    0    0    0    0 -0.00000000000E+00 -0.00000000000E+00 -0.45593999997E+02  0.45594000000E+02  0.51100000000E-03 0. -1.
    9900012    2    1    2    0    0  0.24147735722E+02 -0.35534566897E+02 -0.61484214649E+01  0.47787289504E+02  0.20000084165E+02 0.  0.
         12    1    1    2    0    0 -0.24147735722E+02  0.35534566897E+02  0.61484214649E+01  0.43400710496E+02  0.00000000000E+00 0. -1.
         11    1    3    3    0    0  0.18401099047E+02 -0.29692613513E+02 -0.83978812544E+01  0.35927373313E+02  0.51100000000E-03 0. -1.
        -11    1    3    3    0    0  0.28900673940E+01 -0.57963921356E+01  0.47749271285E+01  0.80467745511E+01  0.51100000000E-03 0.  1.
        -12    1    3    3    0    0  0.28565692816E+01 -0.45561248100E-01 -0.25254673390E+01  0.38131416402E+01  0.00000000000E+00 0.  1.
</event>
<event>
 7    1  0.2339217E-009  0.4778727E+02  0.7816164E-02  0.1312668E+00
        -11   -1    0    0    0    0  0.00000000000E+00  0.00000000000E+00  0.45593999997E+02  0.45594000000E+02  0.51100000000E-03 0. -1.
         11   -1    0    0    0    0 -0.00000000000E+00 -0.00000000000E+00 -0.45593999997E+02  0.45594000000E+02  0.51100000000E-03 0.  1.
    9900012    2    1    2    0    0  0.22140938889E+02 -0.31115100549E+02 -0.20621661696E+02  0.47787267424E+02  0.19999983493E+02 0.  0.
         12    1    1    2    0    0 -0.22140938889E+02  0.31115100549E+02  0.20621661696E+02  0.43400732576E+02  0.00000000000E+00 0. -1.
         11    1    3    3    0    0  0.34306030679E+01 -0.11346770697E+02  0.51005248525E+00  0.11865007226E+02  0.51100000000E-03 0. -1.
        -11    1    3    3    0    0 -0.41424542934E+00 -0.37735180468E+01 -0.47916542310E+01  0.61131815167E+01  0.51100000000E-03 0.  1.
        -12    1    3    3    0    0  0.19124581250E+02 -0.15994811805E+02 -0.16340059950E+02  0.29809078682E+02  0.00000000000E+00 0.  1.
</event>
<event>
 7    1  0.2339217E-009  0.4778725E+02  0.7816164E-02  0.1312668E+00
        -11   -1    0    0    0    0  0.00000000000E+00  0.00000000000E+00  0.45593999997E+02  0.45594000000E+02  0.51100000000E-03 0.  1.
         11   -1    0    0    0    0 -0.00000000000E+00 -0.00000000000E+00 -0.45593999997E+02  0.45594000000E+02  0.51100000000E-03 0. -1.
    9900012    2    1    2    0    0 -0.19387014144E+02  0.16352909329E+01  0.38795552962E+02  0.47787246280E+02  0.19999887089E+02 0.  0.
         12    1    1    2    0    0  0.19387014144E+02 -0.16352909329E+01 -0.38795552962E+02  0.43400753720E+02  0.00000000000E+00 0. -1.
         11    1    3    3    0    0  0.15967123232E+01  0.55201650649E+01  0.44384797671E+01  0.72609789623E+01  0.51100000000E-03 0. -1.
        -11    1    3    3    0    0 -0.28609998506E+01  0.15636223551E+00  0.56999188910E+01  0.63795646339E+01  0.51100000000E-03 0.  1.
         12    1    3    3    0    0 -0.18122726616E+02 -0.40412363675E+01  0.28657154304E+02  0.34146702684E+02  0.00000000000E+00 0. -1.
</event>
<event>
 7    1  0.2339217E-009  0.4778727E+02  0.7816164E-02  0.1312668E+00
        -11   -1    0    0    0    0  0.00000000000E+00  0.00000000000E+00  0.45593999997E+02  0.45594000000E+02  0.51100000000E-03 0.  1.
         11   -1    0    0    0    0 -0.00000000000E+00 -0.00000000000E+00 -0.45593999997E+02  0.45594000000E+02  0.51100000000E-03 0. -1.
    9900012    2    1    2    0    0  0.24901178905E+02  0.13013018611E+02  0.33078933122E+02  0.47787272117E+02  0.20000004892E+02 0.  0.
         12    1    1    2    0    0 -0.24901178905E+02 -0.13013018611E+02 -0.33078933122E+02  0.43400727883E+02  0.00000000000E+00 0. -1.
         11    1    3    3    0    0  0.54134459987E+01 -0.12662816851E+01  0.53037197255E+01  0.76836391166E+01  0.51100000000E-03 0.  1.
        -11    1    3    3    0    0 -0.98831382658E+00  0.56111130760E+01  0.19427867407E+01  0.60196158310E+01  0.51100000000E-03 0. -1.
         12    1    3    3    0    0  0.20476046733E+02  0.86681872205E+01  0.25832426656E+02  0.34084017170E+02  0.00000000000E+00 0. -1.
</event>
<event>
 7    1  0.2339217E-009  0.4778728E+02  0.7816164E-02  0.1312668E+00
        -11   -1    0    0    0    0  0.00000000000E+00  0.00000000000E+00  0.45593999997E+02  0.45594000000E+02  0.51100000000E-03 0. -1.
         11   -1    0    0    0    0 -0.00000000000E+00 -0.00000000000E+00 -0.45593999997E+02  0.45594000000E+02  0.51100000000E-03 0.  1.
    9900012    2    1    2    0    0  0.34102651410E+02 -0.24395835849E+02 -0.11201553076E+02  0.47787280752E+02  0.20000044260E+02 0.  0.
         12    1    1    2    0    0 -0.34102651410E+02  0.24395835849E+02  0.11201553076E+02  0.43400719248E+02  0.00000000000E+00 0. -1.
         11    1    3    3    0    0  0.17538972242E+00  0.44546397200E+00 -0.12797171374E+01  0.13663366781E+01  0.51100000000E-03 0. -1.
        -11    1    3    3    0    0  0.26600176953E+02 -0.13963752527E+02 -0.13334745478E+02  0.32869001138E+02  0.51100000000E-03 0.  1.
         12    1    3    3    0    0  0.73270847343E+01 -0.10877547293E+02  0.34129095387E+01  0.13551942936E+02  0.00000000000E+00 0. -1.
</event>
<event>
 7    1  0.2339217E-009  0.4778726E+02  0.7816164E-02  0.1312668E+00
        -11   -1    0    0    0    0  0.00000000000E+00  0.00000000000E+00  0.45593999997E+02  0.45594000000E+02  0.51100000000E-03 0.  1.
         11   -1    0    0    0    0 -0.00000000000E+00 -0.00000000000E+00 -0.45593999997E+02  0.45594000000E+02  0.51100000000E-03 0. -1.
    9900012    2    1    2    0    0 -0.93426694995E+01 -0.39330716351E+02  0.15793468554E+02  0.47787258405E+02  0.19999942373E+02 0.  0.
         12    1    1    2    0    0  0.93426694995E+01  0.39330716351E+02 -0.15793468554E+02  0.43400741595E+02  0.00000000000E+00 0. -1.
         11    1    3    3    0    0 -0.55925061705E+01 -0.80364400419E+01  0.39771844878E+01  0.10567804433E+02  0.51100000000E-03 0. -1.
        -11    1    3    3    0    0 -0.80688774384E+01 -0.14648278713E+02  0.69183870738E+00  0.16737905886E+02  0.51100000000E-03 0.  1.
        -12    1    3    3    0    0  0.43187141094E+01 -0.16645997595E+02  0.11124445359E+02  0.20481548087E+02  0.00000000000E+00 0.  1.
</event>
<event>
 7    1  0.2339217E-009  0.4778731E+02  0.7816164E-02  0.1312668E+00
        -11   -1    0    0    0    0  0.00000000000E+00  0.00000000000E+00  0.45593999997E+02  0.45594000000E+02  0.51100000000E-03 0. -1.
         11   -1    0    0    0    0 -0.00000000000E+00 -0.00000000000E+00 -0.45593999997E+02  0.45594000000E+02  0.51100000000E-03 0.  1.
    9900012    2    1    2    0    0 -0.30920956450E+02 -0.30197170402E+02 -0.39554438747E+01  0.47787306638E+02  0.20000162283E+02 0.  0.
         12    1    1    2    0    0  0.30920956450E+02  0.30197170402E+02  0.39554438747E+01  0.43400693362E+02  0.00000000000E+00 0. -1.
         11    1    3    3    0    0 -0.19229580965E+02 -0.13973532835E+02  0.32616884246E+01  0.23993228537E+02  0.51100000000E-03 0. -1.
        -11    1    3    3    0    0 -0.79159159003E+01 -0.14788266086E+02 -0.15641826993E+01  0.16846400392E+02  0.51100000000E-03 0.  1.
         12    1    3    3    0    0 -0.37754595844E+01 -0.14353714805E+01 -0.56529496000E+01  0.69476777084E+01  0.00000000000E+00 0. -1.
</event>
<event>
 7    1  0.2339217E-009  0.4778727E+02  0.7816164E-02  0.1312668E+00
        -11   -1    0    0    0    0  0.00000000000E+00  0.00000000000E+00  0.45593999997E+02  0.45594000000E+02  0.51100000000E-03 0.  1.
         11   -1    0    0    0    0 -0.00000000000E+00 -0.00000000000E+00 -0.45593999997E+02  0.45594000000E+02  0.51100000000E-03 0. -1.
    9900012    2    1    2    0    0  0.19100066463E+02 -0.32894851004E+01  0.38832846227E+02  0.47787271928E+02  0.20000004028E+02 0.  0.
         12    1    1    2    0    0 -0.19100066463E+02  0.32894851004E+01 -0.38832846227E+02  0.43400728072E+02  0.00000000000E+00 0. -1.
         11    1    3    3    0    0 -0.29583987293E+01  0.25076905967E+01  0.97365225974E+01  0.10480482227E+02  0.51100000000E-03 0.  1.
        -11    1    3    3    0    0  0.27079096763E+01  0.41928302001E+00  0.18148015868E+01  0.32866515067E+01  0.51100000000E-03 0. -1.
         12    1    3    3    0    0  0.19350555516E+02 -0.62164587171E+01  0.27281522042E+02  0.34020138194E+02  0.00000000000E+00 0. -1.
</event>
<event>
 7    1  0.2339217E-009  0.4778728E+02  0.7816164E-02  0.1312668E+00
        -11   -1    0    0    0    0  0.00000000000E+00  0.00000000000E+00  0.45593999997E+02  0.45594000000E+02  0.51100000000E-03 0.  1.
         11   -1    0    0    0    0 -0.00000000000E+00 -0.00000000000E+00 -0.45593999997E+02  0.45594000000E+02  0.51100000000E-03 0. -1.
    9900012    2    1    2    0    0 -0.34934384847E+02 -0.41822641909E+01  0.25411020873E+02  0.47787279267E+02  0.20000037489E+02 0.  0.
         12    1    1    2    0    0  0.34934384847E+02  0.41822641909E+01 -0.25411020873E+02  0.43400720733E+02  0.00000000000E+00 0. -1.
         11    1    3    3    0    0 -0.10983721637E+02 -0.35188998048E+01  0.29063243001E+01  0.11894180007E+02  0.51100000000E-03 0. -1.
        -11    1    3    3    0    0 -0.23272504142E+02  0.21621928292E+01  0.14814589348E+02  0.27672307180E+02  0.51100000000E-03 0.  1.
         12    1    3    3    0    0 -0.67815906814E+00 -0.28255572153E+01  0.76901072243E+01  0.82207920799E+01  0.00000000000E+00 0. -1.
</event>
<event>
 7    1  0.2339217E-009  0.4778727E+02  0.7816164E-02  0.1312668E+00
        -11   -1    0    0    0    0  0.00000000000E+00  0.00000000000E+00  0.45593999997E+02  0.45594000000E+02  0.51100000000E-03 0. -1.
         11   -1    0    0    0    0 -0.00000000000E+00 -0.00000000000E+00 -0.45593999997E+02  0.45594000000E+02  0.51100000000E-03 0.  1.
    9900012    2    1    2    0    0 -0.27778165627E+02  0.70254170389E+01 -0.32598165546E+02  0.47787269970E+02  0.19999995101E+02 0.  0.
         12    1    1    2    0    0  0.27778165627E+02 -0.70254170389E+01  0.32598165546E+02  0.43400730030E+02  0.00000000000E+00 0. -1.
         11    1    3    3    0    0 -0.13087018482E+01  0.32579149471E+00  0.43200760615E+00  0.14161466938E+01  0.51100000000E-03 0. -1.
        -11    1    3    3    0    0 -0.25527920882E+02  0.15632782800E+01 -0.32139286212E+02  0.41073742245E+02  0.51100000000E-03 0.  1.
        -12    1    3    3    0    0 -0.94154289675E+00  0.51363472642E+01 -0.89088693968E+00  0.52973810306E+01  0.00000000000E+00 0.  1.
</event>
<event>
 7    1  0.2339217E-009  0.4778727E+02  0.7816164E-02  0.1312668E+00
        -11   -1    0    0    0    0  0.00000000000E+00  0.00000000000E+00  0.45593999997E+02  0.45594000000E+02  0.51100000000E-03 0. -1.
         11   -1    0    0    0    0 -0.00000000000E+00 -0.00000000000E+00 -0.45593999997E+02  0.45594000000E+02  0.51100000000E-03 0.  1.
    9900012    2    1    2    0    0 -0.38865439621E+02  0.18303071701E+02 -0.61723960653E+01  0.47787270700E+02  0.19999998428E+02 0.  0.
         12    1    1    2    0    0  0.38865439621E+02 -0.18303071701E+02  0.61723960653E+01  0.43400729300E+02  0.00000000000E+00 0. -1.
         11    1    3    3    0    0 -0.14825815254E+02  0.24063205712E+01  0.87518714785E+00  0.15045302571E+02  0.51100000000E-03 0.  1.
        -11    1    3    3    0    0 -0.25079809833E+02  0.11848089840E+02 -0.67745664947E+01  0.28552913084E+02  0.51100000000E-03 0. -1.
         12    1    3    3    0    0  0.10401854664E+01  0.40486612895E+01 -0.27301671844E+00  0.41890550450E+01  0.00000000000E+00 0. -1.
</event>
<event>
 7    1  0.2339217E-009  0.4778727E+02  0.7816164E-02  0.1312668E+00
        -11   -1    0    0    0    0  0.00000000000E+00  0.00000000000E+00  0.45593999997E+02  0.45594000000E+02  0.51100000000E-03 0. -1.
         11   -1    0    0    0    0 -0.00000000000E+00 -0.00000000000E+00 -0.45593999997E+02  0.45594000000E+02  0.51100000000E-03 0.  1.
    9900012    2    1    2    0    0  0.29701090924E+01 -0.35777003843E+02 -0.24388685831E+02  0.47787267880E+02  0.19999985570E+02 0.  0.
         12    1    1    2    0    0 -0.29701090924E+01  0.35777003843E+02  0.24388685831E+02  0.43400732120E+02  0.00000000000E+00 0. -1.
         11    1    3    3    0    0  0.15414344401E+00 -0.28354132415E+00 -0.34240603804E+01  0.34392361992E+01  0.51100000000E-03 0. -1.
        -11    1    3    3    0    0  0.92737581031E+01 -0.17825913591E+02 -0.87292515355E+01  0.21908117613E+02  0.51100000000E-03 0.  1.
        -12    1    3    3    0    0 -0.64577924547E+01 -0.17667548928E+02 -0.12235373915E+02  0.22439914068E+02  0.00000000000E+00 0.  1.
</event>
<event>
 7    1  0.2339217E-009  0.4778730E+02  0.7816164E-02  0.1312668E+00
        -11   -1    0    0    0    0  0.00000000000E+00  0.00000000000E+00  0.45593999997E+02  0.45594000000E+02  0.51100000000E-03 0.  1.
         11   -1    0    0    0    0 -0.00000000000E+00 -0.00000000000E+00 -0.45593999997E+02  0.45594000000E+02  0.51100000000E-03 0. -1.
    9900012    2    1    2    0    0 -0.35508999159E+02  0.24934925070E+02 -0.99079342303E+00  0.47787295154E+02  0.20000109924E+02 0.  0.
         12    1    1    2    0    0  0.35508999159E+02 -0.24934925070E+02  0.99079342303E+00  0.43400704846E+02  0.00000000000E+00 0. -1.
         11    1    3    3    0    0 -0.99742708919E+01  0.11131868144E+02 -0.35265204207E+01  0.15357112839E+02  0.51100000000E-03 0. -1.
        -11    1    3    3    0    0 -0.26873026464E+02  0.13778676450E+02  0.76337263942E+00  0.30209174336E+02  0.51100000000E-03 0.  1.
        -12    1    3    3    0    0  0.13382981968E+01  0.24380476532E-01  0.17723543583E+01  0.22210079789E+01  0.00000000000E+00 0.  1.
</event>
<event>
 7    1  0.2339217E-009  0.4778727E+02  0.7816164E-02  0.1312668E+00
        -11   -1    0    0    0    0  0.00000000000E+00  0.00000000000E+00  0.45593999997E+02  0.45594000000E+02  0.51100000000E-03 0.  1.
         11   -1    0    0    0    0 -0.00000000000E+00 -0.00000000000E+00 -0.45593999997E+02  0.45594000000E+02  0.51100000000E-03 0. -1.
    9900012    2    1    2    0    0 -0.29141531061E+02 -0.21003869207E+01  0.32093344920E+02  0.47787271366E+02  0.20000001466E+02 0.  0.
         12    1    1    2    0    0  0.29141531061E+02  0.21003869207E+01 -0.32093344920E+02  0.43400728634E+02  0.00000000000E+00 0. -1.
         11    1    3    3    0    0 -0.34786605167E+01  0.49233063533E+01  0.11338481105E+02  0.12841385380E+02  0.51100000000E-03 0. -1.
        -11    1    3    3    0    0 -0.11815583949E+02  0.14087597894E+01  0.90343845539E+01  0.14940305644E+02  0.51100000000E-03 0.  1.
        -12    1    3    3    0    0 -0.13847286596E+02 -0.84324530635E+01  0.11720479261E+02  0.20005580342E+02  0.00000000000E+00 0.  1.
</event>
<event>
 7    1  0.2339217E-009  0.4778726E+02  0.7816164E-02  0.1312668E+00
        -11   -1    0    0    0    0  0.00000000000E+00  0.00000000000E+00  0.45593999997E+02  0.45594000000E+02  0.51100000000E-03 0. -1.
         11   -1    0    0    0    0 -0.00000000000E+00 -0.00000000000E+00 -0.45593999997E+02  0.45594000000E+02  0.51100000000E-03 0.  1.
    9900012    2    1    2    0    0 -0.21946476132E+02 -0.36756021238E+02 -0.71393911235E+01  0.47787264782E+02  0.19999971448E+02 0.  0.
         12    1    1    2    0    0  0.21946476132E+02  0.36756021238E+02  0.71393911235E+01  0.43400735218E+02  0.00000000000E+00 0. -1.
         11    1    3    3    0    0  0.91104325775E-01 -0.17919312042E+02 -0.91081541030E+00  0.17942676195E+02  0.51100000000E-03 0. -1.
        -11    1    3    3    0    0 -0.51348863749E+01 -0.29210293765E+01 -0.48094470718E+00  0.59271223012E+01  0.51100000000E-03 0.  1.
        -12    1    3    3    0    0 -0.16902694083E+02 -0.15915679819E+02 -0.57476310060E+01  0.23917466286E+02  0.00000000000E+00 0.  1.
</event>
<event>
 7    1  0.2339217E-009  0.4778727E+02  0.7816164E-02  0.1312668E+00
        -11   -1    0    0    0    0  0.00000000000E+00  0.00000000000E+00  0.45593999997E+02  0.45594000000E+02  0.51100000000E-03 0. -1.
         11   -1    0    0    0    0 -0.00000000000E+00 -0.00000000000E+00 -0.45593999997E+02  0.45594000000E+02  0.51100000000E-03 0.  1.
    9900012    2    1    2    0    0  0.16946946298E+01 -0.41916899967E+02 -0.11123158892E+02  0.47787272398E+02  0.20000006169E+02 0.  0.
         12    1    1    2    0    0 -0.16946946298E+01  0.41916899967E+02  0.11123158892E+02  0.43400727602E+02  0.00000000000E+00 0. -1.
         11    1    3    3    0    0 -0.81468062986E-01 -0.10632891049E+02 -0.93104304457E+01  0.14133263050E+02  0.51100000000E-03 0. -1.
        -11    1    3    3    0    0 -0.18999254113E+01 -0.16345051791E+02 -0.63132629074E+01  0.17624633994E+02  0.51100000000E-03 0.  1.
         12    1    3    3    0    0  0.36760881041E+01 -0.14938957127E+02  0.45005344614E+01  0.16029375353E+02  0.00000000000E+00 0. -1.
</event>
<event>
 7    1  0.2339217E-009  0.4778728E+02  0.7816164E-02  0.1312668E+00
        -11   -1    0    0    0    0  0.00000000000E+00  0.00000000000E+00  0.45593999997E+02  0.45594000000E+02  0.51100000000E-03 0. -1.
         11   -1    0    0    0    0 -0.00000000000E+00 -0.00000000000E+00 -0.45593999997E+02  0.45594000000E+02  0.51100000000E-03 0.  1.
    9900012    2    1    2    0    0  0.16629001072E+02 -0.12198021927E+02 -0.38187792640E+02  0.47787275094E+02  0.20000018465E+02 0.  0.
         12    1    1    2    0    0 -0.16629001072E+02  0.12198021927E+02  0.38187792640E+02  0.43400724906E+02  0.00000000000E+00 0. -1.
         11    1    3    3    0    0  0.69333369648E+00  0.88444775925E-01  0.79514140579E+00  0.10586709637E+01  0.51100000000E-03 0. -1.
        -11    1    3    3    0    0 -0.12241362798E+01 -0.59475348119E+01 -0.40596110968E+01  0.73042537257E+01  0.51100000000E-03 0.  1.
        -12    1    3    3    0    0  0.17159803656E+02 -0.63389318909E+01 -0.34923322949E+02  0.39424350405E+02  0.00000000000E+00 0.  1.
</event>
<event>
 7    1  0.2339217E-009  0.4778727E+02  0.7816164E-02  0.1312668E+00
        -11   -1    0    0    0    0  0.00000000000E+00  0.00000000000E+00  0.45593999997E+02  0.45594000000E+02  0.51100000000E-03 0.  1.
         11   -1    0    0    0    0 -0.00000000000E+00 -0.00000000000E+00 -0.45593999997E+02  0.45594000000E+02  0.51100000000E-03 0. -1.
    9900012    2    1    2    0    0  0.92370552084E+01 -0.25546331167E+02  0.33847968012E+02  0.47787272315E+02  0.20000005794E+02 0.  0.
         12    1    1    2    0    0 -0.92370552084E+01  0.25546331167E+02 -0.33847968012E+02  0.43400727685E+02  0.00000000000E+00 0. -1.
         11    1    3    3    0    0  0.73814530238E+00  0.27462386977E+01  0.31324659959E+01  0.42307244000E+01  0.51100000000E-03 0. -1.
        -11    1    3    3    0    0  0.30655967569E+01 -0.35820983697E+01  0.15882133482E+01  0.49751114668E+01  0.51100000000E-03 0.  1.
        -12    1    3    3    0    0  0.54333131491E+01 -0.24710471495E+02  0.29127288668E+02  0.38581436449E+02  0.00000000000E+00 0.  1.
</event>
<event>
 7    1  0.2339217E-009  0.4778727E+02  0.7816164E-02  0.1312668E+00
        -11   -1    0    0    0    0  0.00000000000E+00  0.00000000000E+00  0.45593999997E+02  0.45594000000E+02  0.51100000000E-03 0.  1.
         11   -1    0    0    0    0 -0.00000000000E+00 -0.00000000000E+00 -0.45593999997E+02  0.45594000000E+02  0.51100000000E-03 0. -1.
    9900012    2    1    2    0    0 -0.34901702564E+02 -0.17964874146E+02  0.18513709365E+02  0.47787274437E+02  0.20000015467E+02 0.  0.
         12    1    1    2    0    0  0.34901702564E+02  0.17964874146E+02 -0.18513709365E+02  0.43400725563E+02  0.00000000000E+00 0. -1.
         11    1    3    3    0    0  0.16691545063E+01 -0.15647130910E+01  0.78533165767E+00  0.24189150247E+01  0.51100000000E-03 0. -1.
        -11    1    3    3    0    0  0.17359223167E+00  0.78921711364E+00  0.14456254326E+01  0.16561494703E+01  0.51100000000E-03 0.  1.
        -12    1    3    3    0    0 -0.36744449302E+02 -0.17189378169E+02  0.16282752274E+02  0.43712209942E+02  0.00000000000E+00 0.  1.
</event>
<event>
 7    1  0.2339217E-009  0.4778727E+02  0.7816164E-02  0.1312668E+00
        -11   -1    0    0    0    0  0.00000000000E+00  0.00000000000E+00  0.45593999997E+02  0.45594000000E+02  0.51100000000E-03 0.  1.
         11   -1    0    0    0    0 -0.00000000000E+00 -0.00000000000E+00 -0.45593999997E+02  0.45594000000E+02  0.51100000000E-03 0. -1.
    9900012    2    1    2    0    0  0.31962052010E+02 -0.26856194309E+02  0.11865723599E+02  0.47787270306E+02  0.19999996633E+02 0.  0.
         12    1    1    2    0    0 -0.31962052010E+02  0.26856194309E+02 -0.11865723599E+02  0.43400729694E+02  0.00000000000E+00 0. -1.
         11    1    3    3    0    0  0.63231108452E+01 -0.89497314504E+01 -0.14247284285E+01  0.11050306564E+02  0.51100000000E-03 0. -1.
        -11    1    3    3    0    0 -0.17034646778E+01 -0.18316213872E+01  0.13802500651E+01  0.28568722964E+01  0.51100000000E-03 0.  1.
         12    1    3    3    0    0  0.27342405843E+02 -0.16074841471E+02  0.11910201963E+02  0.33880091446E+02  0.00000000000E+00 0. -1.
</event>
<event>
 7    1  0.2339217E-009  0.4778727E+02  0.7816164E-02  0.1312668E+00
        -11   -1    0    0    0    0  0.00000000000E+00  0.00000000000E+00  0.45593999997E+02  0.45594000000E+02  0.51100000000E-03 0. -1.
         11   -1    0    0    0    0 -0.00000000000E+00 -0.00000000000E+00 -0.45593999997E+02  0.45594000000E+02  0.51100000000E-03 0.  1.
    9900012    2    1    2    0    0  0.19814659295E+01 -0.36037309108E+02 -0.24104143651E+02  0.47787267332E+02  0.19999983073E+02 0.  0.
         12    1    1    2    0    0 -0.19814659295E+01  0.36037309108E+02  0.24104143651E+02  0.43400732668E+02  0.00000000000E+00 0. -1.
         11    1    3    3    0    0 -0.21933332705E+01 -0.37741769091E+01  0.10380539277E+01  0.44869453300E+01  0.51100000000E-03 0. -1.
        -11    1    3    3    0    0 -0.53333116888E+00 -0.19863424629E+00 -0.52357375002E+01  0.52665781236E+01  0.51100000000E-03 0.  1.
        -12    1    3    3    0    0  0.47081303689E+01 -0.32064497953E+02 -0.19906460078E+02  0.38033743878E+02  0.00000000000E+00 0.  1.
</event>
<event>
 7    1  0.2339217E-009  0.4778728E+02  0.7816164E-02  0.1312668E+00
        -11   -1    0    0    0    0  0.00000000000E+00  0.00000000000E+00  0.45593999997E+02  0.45594000000E+02  0.51100000000E-03 0.  1.
         11   -1    0    0    0    0 -0.00000000000E+00 -0.00000000000E+00 -0.45593999997E+02  0.45594000000E+02  0.51100000000E-03 0. -1.
    9900012    2    1    2    0    0 -0.35258815821E+02  0.24222063567E+02 -0.73300679146E+01  0.47787281663E+02  0.20000048413E+02 0.  0.
         12    1    1    2    0    0  0.35258815821E+02 -0.24222063567E+02  0.73300679146E+01  0.43400718337E+02  0.00000000000E+00 0. -1.
         11    1    3    3    0    0 -0.77898361147E+01  0.90875490475E+01 -0.13554476778E+01  0.12045842978E+02  0.51100000000E-03 0. -1.
        -11    1    3    3    0    0 -0.59774867258E+01  0.10170471627E+02  0.25929999323E+01  0.12078596342E+02  0.51100000000E-03 0.  1.
         12    1    3    3    0    0 -0.21491492981E+02  0.49640428923E+01 -0.85676201691E+01  0.23662842343E+02  0.00000000000E+00 0. -1.
</event>
<event>
 7    1  0.2339217E-009  0.4778728E+02  0.7816164E-02  0.1312668E+00
        -11   -1    0    0    0    0  0.00000000000E+00  0.00000000000E+00  0.45593999997E+02  0.45594000000E+02  0.51100000000E-03 0.  1.
         11   -1    0    0    0    0 -0.00000000000E+00 -0.00000000000E+00 -0.45593999997E+02  0.45594000000E+02  0.51100000000E-03 0. -1.
    9900012    2    1    2    0    0 -0.32411164043E+02 -0.24380129649E+02  0.15451484569E+02  0.47787278212E+02  0.20000032681E+02 0.  0.
         12    1    1    2    0    0  0.32411164043E+02  0.24380129649E+02 -0.15451484569E+02  0.43400721788E+02  0.00000000000E+00 0. -1.
         11    1    3    3    0    0 -0.62531122518E+01 -0.47002601219E+00  0.62665868579E+01  0.88652382029E+01  0.51100000000E-03 0. -1.
        -11    1    3    3    0    0 -0.18389273399E+02 -0.13936598558E+02  0.11944732827E+02  0.25982124588E+02  0.51100000000E-03 0.  1.
         12    1    3    3    0    0 -0.77687783921E+01 -0.99735050783E+01 -0.27598351156E+01  0.12939915422E+02  0.00000000000E+00 0. -1.
</event>
<event>
 7    1  0.2574240E-009  0.4778729E+02  0.7816164E-02  0.1312668E+00
        -11   -1    0    0    0    0  0.00000000000E+00  0.00000000000E+00  0.45593999997E+02  0.45594000000E+02  0.51100000000E-03 0. -1.
         11   -1    0    0    0    0 -0.00000000000E+00 -0.00000000000E+00 -0.45593999997E+02  0.45594000000E+02  0.51100000000E-03 0.  1.
    9900012    2    1    2    0    0  0.39870756392E+02  0.14870341255E+02  0.85333259462E+01  0.47787286688E+02  0.20000071324E+02 0.  0.
         12    1    1    2    0    0 -0.39870756392E+02 -0.14870341255E+02 -0.85333259462E+01  0.43400713312E+02  0.00000000000E+00 0. -1.
         11    1    3    3    0    0  0.13131090569E+02 -0.21820081986E+01  0.12138807610E+01  0.13366383433E+02  0.51100000000E-03 0. -1.
        -11    1    3    3    0    0  0.62381273980E+01  0.57608906799E+01 -0.27725898495E+01  0.89324884324E+01  0.51100000000E-03 0.  1.
        -12    1    3    3    0    0  0.20501538425E+02  0.11291458773E+02  0.10092035035E+02  0.25488414822E+02  0.00000000000E+00 0.  1.
</event>
<event>
 7    1  0.2339217E-009  0.4778726E+02  0.7816164E-02  0.1312668E+00
        -11   -1    0    0    0    0  0.00000000000E+00  0.00000000000E+00  0.45593999997E+02  0.45594000000E+02  0.51100000000E-03 0.  1.
         11   -1    0    0    0    0 -0.00000000000E+00 -0.00000000000E+00 -0.45593999997E+02  0.45594000000E+02  0.51100000000E-03 0. -1.
    9900012    2    1    2    0    0  0.17688925130E+02 -0.36981126144E+02  0.14252096145E+02  0.47787262591E+02  0.19999961456E+02 0.  0.
         12    1    1    2    0    0 -0.17688925130E+02  0.36981126144E+02 -0.14252096145E+02  0.43400737409E+02  0.00000000000E+00 0. -1.
         11    1    3    3    0    0  0.36376472111E+01 -0.46528889025E+01  0.82565871718E+01  0.10151506507E+02  0.51100000000E-03 0. -1.
        -11    1    3    3    0    0 -0.13239474729E+01 -0.57655819547E+01  0.34277208383E+01  0.68369615030E+01  0.51100000000E-03 0.  1.
         12    1    3    3    0    0  0.15375225391E+02 -0.26562655287E+02  0.25677881349E+01  0.30798794581E+02  0.00000000000E+00 0. -1.
</event>
<event>
 7    1  0.2339217E-009  0.4778727E+02  0.7816164E-02  0.1312668E+00
        -11   -1    0    0    0    0  0.00000000000E+00  0.00000000000E+00  0.45593999997E+02  0.45594000000E+02  0.51100000000E-03 0. -1.
         11   -1    0    0    0    0 -0.00000000000E+00 -0.00000000000E+00 -0.45593999997E+02  0.45594000000E+02  0.51100000000E-03 0.  1.
    9900012    2    1    2    0    0  0.15017984245E+02 -0.25606445736E+02 -0.31660598236E+02  0.47787269653E+02  0.19999993657E+02 0.  0.
         12    1    1    2    0    0 -0.15017984245E+02  0.25606445736E+02  0.31660598236E+02  0.43400730347E+02  0.00000000000E+00 0. -1.
         11    1    3    3    0    0 -0.11645661546E+01 -0.13900777615E+02 -0.13345878632E+02  0.19305447660E+02  0.51100000000E-03 0. -1.
        -11    1    3    3    0    0  0.25239720729E+01 -0.58507034671E+01 -0.86933935981E+01  0.10778509108E+02  0.51100000000E-03 0.  1.
        -12    1    3    3    0    0  0.13658578327E+02 -0.58549646537E+01 -0.96213260054E+01  0.17703312885E+02  0.00000000000E+00 0.  1.
</event>
<event>
 7    1  0.2339217E-009  0.4778727E+02  0.7816164E-02  0.1312668E+00
        -11   -1    0    0    0    0  0.00000000000E+00  0.00000000000E+00  0.45593999997E+02  0.45594000000E+02  0.51100000000E-03 0.  1.
         11   -1    0    0    0    0 -0.00000000000E+00 -0.00000000000E+00 -0.45593999997E+02  0.45594000000E+02  0.51100000000E-03 0. -1.
    9900012    2    1    2    0    0  0.42660347690E+02  0.42706405433E+01 -0.67438696176E+01  0.47787269440E+02  0.19999992686E+02 0.  0.
         12    1    1    2    0    0 -0.42660347690E+02 -0.42706405433E+01  0.67438696176E+01  0.43400730560E+02  0.00000000000E+00 0. -1.
         11    1    3    3    0    0  0.14407271082E+02  0.20920528442E+01 -0.59128193944E+01  0.15713293053E+02  0.51100000000E-03 0. -1.
        -11    1    3    3    0    0  0.17960875841E+02 -0.49031546923E+01 -0.42997503688E+01  0.19108161617E+02  0.51100000000E-03 0.  1.
        -12    1    3    3    0    0  0.10292200768E+02  0.70817423915E+01  0.34687001456E+01  0.12965814770E+02  0.00000000000E+00 0.  1.
</event>
<event>
 7    1  0.2339217E-009  0.4778727E+02  0.7816164E-02  0.1312668E+00
        -11   -1    0    0    0    0  0.00000000000E+00  0.00000000000E+00  0.45593999997E+02  0.45594000000E+02  0.51100000000E-03 0.  1.
         11   -1    0    0    0    0 -0.00000000000E+00 -0.00000000000E+00 -0.45593999997E+02  0.45594000000E+02  0.51100000000E-03 0. -1.
    9900012    2    1    2    0    0  0.28507150520E+02 -0.15396737589E+02  0.28877437898E+02  0.47787267532E+02  0.19999983986E+02 0.  0.
         12    1    1    2    0    0 -0.28507150520E+02  0.15396737589E+02 -0.28877437898E+02  0.43400732468E+02  0.00000000000E+00 0. -1.
         11    1    3    3    0    0  0.31989782395E+01  0.96169441808E-01  0.11422112862E+02  0.11862013861E+02  0.51100000000E-03 0. -1.
        -11    1    3    3    0    0  0.12206339575E+02 -0.90822988823E+01  0.14551341049E+02  0.21052895416E+02  0.51100000000E-03 0.  1.
         12    1    3    3    0    0  0.13101832706E+02 -0.64106081490E+01  0.29039839875E+01  0.14872358256E+02  0.00000000000E+00 0. -1.
</event>
<event>
 7    1  0.2339217E-009  0.4778727E+02  0.7816164E-02  0.1312668E+00
        -11   -1    0    0    0    0  0.00000000000E+00  0.00000000000E+00  0.45593999997E+02  0.45594000000E+02  0.51100000000E-03 0.  1.
         11   -1    0    0    0    0 -0.00000000000E+00 -0.00000000000E+00 -0.45593999997E+02  0.45594000000E+02  0.51100000000E-03 0. -1.
    9900012    2    1    2    0    0 -0.10057248606E+02 -0.23297974680E+02  0.35209082512E+02  0.47787269994E+02  0.19999995211E+02 0.  0.
         12    1    1    2    0    0  0.10057248606E+02  0.23297974680E+02 -0.35209082512E+02  0.43400730006E+02  0.00000000000E+00 0. -1.
         11    1    3    3    0    0 -0.96890507976E+01 -0.38784507395E+01  0.68750277878E+01  0.12497443452E+02  0.51100000000E-03 0. -1.
        -11    1    3    3    0    0 -0.15806650039E+01 -0.39887217987E+01  0.19773394563E+01  0.47242221612E+01  0.51100000000E-03 0.  1.
        -12    1    3    3    0    0  0.12124671951E+01 -0.15430802142E+02  0.26356715268E+02  0.30565604381E+02  0.00000000000E+00 0.  1.
</event>
<event>
 7    1  0.2339217E-009  0.4778727E+02  0.7816164E-02  0.1312668E+00
        -11   -1    0    0    0    0  0.00000000000E+00  0.00000000000E+00  0.45593999997E+02  0.45594000000E+02  0.51100000000E-03 0.  1.
         11   -1    0    0    0    0 -0.00000000000E+00 -0.00000000000E+00 -0.45593999997E+02  0.45594000000E+02  0.51100000000E-03 0. -1.
    9900012    2    1    2    0    0  0.36453096703E+02 -0.22544799443E+02  0.68210742515E+01  0.47787270800E+02  0.19999998885E+02 0.  0.
         12    1    1    2    0    0 -0.36453096703E+02  0.22544799443E+02 -0.68210742515E+01  0.43400729200E+02  0.00000000000E+00 0. -1.
         11    1    3    3    0    0  0.14747073230E+02 -0.45717061403E+01  0.74317317459E+01  0.17134973093E+02  0.51100000000E-03 0. -1.
        -11    1    3    3    0    0  0.78458640586E+01 -0.34723751015E+01  0.48595270508E+01  0.98605261061E+01  0.51100000000E-03 0.  1.
         12    1    3    3    0    0  0.13860159414E+02 -0.14500718202E+02 -0.54701845452E+01  0.20791771601E+02  0.00000000000E+00 0. -1.
</event>
<event>
 7    1  0.2339217E-009  0.4778727E+02  0.7816164E-02  0.1312668E+00
        -11   -1    0    0    0    0  0.00000000000E+00  0.00000000000E+00  0.45593999997E+02  0.45594000000E+02  0.51100000000E-03 0. -1.
         11   -1    0    0    0    0 -0.00000000000E+00 -0.00000000000E+00 -0.45593999997E+02  0.45594000000E+02  0.51100000000E-03 0.  1.
    9900012    2    1    2    0    0 -0.30208449625E+01 -0.14482739507E+02 -0.40801322377E+02  0.47787272406E+02  0.20000006209E+02 0.  0.
         12    1    1    2    0    0  0.30208449625E+01  0.14482739507E+02  0.40801322377E+02  0.43400727594E+02  0.00000000000E+00 0. -1.
         11    1    3    3    0    0  0.24991923702E+01 -0.58639729102E+01 -0.16655556039E+01  0.65883394361E+01  0.51100000000E-03 0. -1.
        -11    1    3    3    0    0  0.17269033568E+01 -0.96383113000E+00 -0.10499924411E+02  0.10684548589E+02  0.51100000000E-03 0.  1.
        -12    1    3    3    0    0 -0.72469406895E+01 -0.76549354670E+01 -0.28635842363E+02  0.30514384382E+02  0.00000000000E+00 0.  1.
</event>
<event>
 7    1  0.2339217E-009  0.4778727E+02  0.7816164E-02  0.1312668E+00
        -11   -1    0    0    0    0  0.00000000000E+00  0.00000000000E+00  0.45593999997E+02  0.45594000000E+02  0.51100000000E-03 0.  1.
         11   -1    0    0    0    0 -0.00000000000E+00 -0.00000000000E+00 -0.45593999997E+02  0.45594000000E+02  0.51100000000E-03 0. -1.
    9900012    2    1    2    0    0  0.20580369310E+02  0.13247516198E+01  0.38187910067E+02  0.47787273703E+02  0.20000012123E+02 0.  0.
         12    1    1    2    0    0 -0.20580369310E+02 -0.13247516198E+01 -0.38187910067E+02  0.43400726297E+02  0.00000000000E+00 0. -1.
         11    1    3    3    0    0 -0.56989624367E+00 -0.33626284796E+01  0.77554725098E+01  0.84722727843E+01  0.51100000000E-03 0. -1.
        -11    1    3    3    0    0  0.19719378585E+02  0.78419296873E+01  0.24217605156E+02  0.32200033428E+02  0.51100000000E-03 0.  1.
        -12    1    3    3    0    0  0.14308869680E+01 -0.31545495879E+01  0.62148324017E+01  0.71149674911E+01  0.00000000000E+00 0.  1.
</event>
<event>
 7    1  0.2339217E-009  0.4778727E+02  0.7816164E-02  0.1312668E+00
        -11   -1    0    0    0    0  0.00000000000E+00  0.00000000000E+00  0.45593999997E+02  0.45594000000E+02  0.51100000000E-03 0.  1.
         11   -1    0    0    0    0 -0.00000000000E+00 -0.00000000000E+00 -0.45593999997E+02  0.45594000000E+02  0.51100000000E-03 0. -1.
    9900012    2    1    2    0    0 -0.62374755589E+01  0.60214979952E+01  0.42525978506E+02  0.47787269737E+02  0.19999994041E+02 0.  0.
         12    1    1    2    0    0  0.62374755589E+01 -0.60214979952E+01 -0.42525978506E+02  0.43400730263E+02  0.00000000000E+00 0. -1.
         11    1    3    3    0    0 -0.20462592928E+01 -0.36834111641E+01  0.54172538080E+01  0.68630411611E+01  0.51100000000E-03 0. -1.
        -11    1    3    3    0    0  0.37308210477E+01 -0.10380449687E+01  0.94655372111E+01  0.10227069864E+02  0.51100000000E-03 0.  1.
         12    1    3    3    0    0 -0.79220373137E+01  0.10742954128E+02  0.27643187487E+02  0.30697158712E+02  0.00000000000E+00 0. -1.
</event>
<event>
 7    1  0.2339217E-009  0.4778727E+02  0.7816164E-02  0.1312668E+00
        -11   -1    0    0    0    0  0.00000000000E+00  0.00000000000E+00  0.45593999997E+02  0.45594000000E+02  0.51100000000E-03 0.  1.
         11   -1    0    0    0    0 -0.00000000000E+00 -0.00000000000E+00 -0.45593999997E+02  0.45594000000E+02  0.51100000000E-03 0. -1.
    9900012    2    1    2    0    0 -0.29546143382E+02 -0.19079158731E+02  0.25429005541E+02  0.47787271787E+02  0.20000003384E+02 0.  0.
         12    1    1    2    0    0  0.29546143382E+02  0.19079158731E+02 -0.25429005541E+02  0.43400728213E+02  0.00000000000E+00 0. -1.
         11    1    3    3    0    0 -0.16573297284E-01 -0.21337139612E+01 -0.22282603827E+00  0.21453814689E+01  0.51100000000E-03 0. -1.
        -11    1    3    3    0    0 -0.37570042816E+01 -0.86394809299E+01  0.12178536067E+02  0.15397157300E+02  0.51100000000E-03 0.  1.
         12    1    3    3    0    0 -0.25772565803E+02 -0.83059638396E+01  0.13473295513E+02  0.30244733018E+02  0.00000000000E+00 0. -1.
</event>
<event>
 7    1  0.2339217E-009  0.4778728E+02  0.7816164E-02  0.1312668E+00
        -11   -1    0    0    0    0  0.00000000000E+00  0.00000000000E+00  0.45593999997E+02  0.45594000000E+02  0.51100000000E-03 0. -1.
         11   -1    0    0    0    0 -0.00000000000E+00 -0.00000000000E+00 -0.45593999997E+02  0.45594000000E+02  0.51100000000E-03 0.  1.
    9900012    2    1    2    0    0  0.42487877659E+02  0.78501225871E+01 -0.40961772567E+01  0.47787276034E+02  0.20000022751E+02 0.  0.
         12    1    1    2    0    0 -0.42487877659E+02 -0.78501225871E+01  0.40961772567E+01  0.43400723966E+02  0.00000000000E+00 0. -1.
         11    1    3    3    0    0  0.31187489320E+01  0.51473190692E+01 -0.51087388453E+01  0.78943461637E+01  0.51100000000E-03 0. -1.
        -11    1    3    3    0    0  0.16634010940E+01 -0.55351213741E+00  0.10565160117E+01  0.20468280899E+01  0.51100000000E-03 0.  1.
        -12    1    3    3    0    0  0.37705727633E+02  0.32563156553E+01 -0.43954423040E-01  0.37846101781E+02  0.00000000000E+00 0.  1.
</event>
<event>
 7    1  0.2339217E-009  0.4778727E+02  0.7816164E-02  0.1312668E+00
        -11   -1    0    0    0    0  0.00000000000E+00  0.00000000000E+00  0.45593999997E+02  0.45594000000E+02  0.51100000000E-03 0.  1.
         11   -1    0    0    0    0 -0.00000000000E+00 -0.00000000000E+00 -0.45593999997E+02  0.45594000000E+02  0.51100000000E-03 0. -1.
    9900012    2    1    2    0    0 -0.18046231364E+02 -0.32704107648E+02 -0.22099728779E+02  0.47787272637E+02  0.20000007263E+02 0.  0.
         12    1    1    2    0    0  0.18046231364E+02  0.32704107648E+02  0.22099728779E+02  0.43400727363E+02  0.00000000000E+00 0. -1.
         11    1    3    3    0    0 -0.11556191837E+02 -0.91510094294E+01 -0.12475186023E+02  0.19311054086E+02  0.51100000000E-03 0. -1.
        -11    1    3    3    0    0 -0.15479889762E+01 -0.87409570817E+01 -0.93020803748E+01  0.12858044180E+02  0.51100000000E-03 0.  1.
         12    1    3    3    0    0 -0.49420505505E+01 -0.14812141137E+02 -0.32246238156E+00  0.15618174371E+02  0.00000000000E+00 0. -1.
</event>
<event>
 7    1  0.2339217E-009  0.4778727E+02  0.7816164E-02  0.1312668E+00
        -11   -1    0    0    0    0  0.00000000000E+00  0.00000000000E+00  0.45593999997E+02  0.45594000000E+02  0.51100000000E-03 0.  1.
         11   -1    0    0    0    0 -0.00000000000E+00 -0.00000000000E+00 -0.45593999997E+02  0.45594000000E+02  0.51100000000E-03 0. -1.
    9900012    2    1    2    0    0 -0.25493923358E+02  0.23845777457E+02  0.25788794198E+02  0.47787272623E+02  0.20000007196E+02 0.  0.
         12    1    1    2    0    0  0.25493923358E+02 -0.23845777457E+02 -0.25788794198E+02  0.43400727377E+02  0.00000000000E+00 0. -1.
         11    1    3    3    0    0 -0.16283941731E+02  0.11326496012E+02  0.99543375862E+01  0.22193357278E+02  0.51100000000E-03 0. -1.
        -11    1    3    3    0    0 -0.58372663361E+01  0.85706511459E+01  0.16645243018E+01  0.10502398810E+02  0.51100000000E-03 0.  1.
         12    1    3    3    0    0 -0.33727152903E+01  0.39486302995E+01  0.14169932310E+02  0.15091516535E+02  0.00000000000E+00 0. -1.
</event>
<event>
 7    1  0.2339217E-009  0.4778727E+02  0.7816164E-02  0.1312668E+00
        -11   -1    0    0    0    0  0.00000000000E+00  0.00000000000E+00  0.45593999997E+02  0.45594000000E+02  0.51100000000E-03 0.  1.
         11   -1    0    0    0    0 -0.00000000000E+00 -0.00000000000E+00 -0.45593999997E+02  0.45594000000E+02  0.51100000000E-03 0. -1.
    9900012    2    1    2    0    0  0.22138699370E+02 -0.35943068492E+02 -0.10079545087E+02  0.47787269458E+02  0.19999992768E+02 0.  0.
         12    1    1    2    0    0 -0.22138699370E+02  0.35943068492E+02  0.10079545087E+02  0.43400730542E+02  0.00000000000E+00 0. -1.
         11    1    3    3    0    0  0.10205976780E+02 -0.20889948660E+02 -0.13449118417E+02  0.26859462085E+02  0.51100000000E-03 0. -1.
        -11    1    3    3    0    0 -0.35578929395E+00  0.19762744813E+00 -0.80526450828E+00  0.90227147764E+00  0.51100000000E-03 0.  1.
        -12    1    3    3    0    0  0.12288511885E+02 -0.15250747280E+02  0.41748378381E+01  0.20025535895E+02  0.00000000000E+00 0.  1.
</event>
<event>
 7    1  0.2941556E-009  0.4778727E+02  0.7816164E-02  0.1312668E+00
        -11   -1    0    0    0    0  0.00000000000E+00  0.00000000000E+00  0.45593999997E+02  0.45594000000E+02  0.51100000000E-03 0. -1.
         11   -1    0    0    0    0 -0.00000000000E+00 -0.00000000000E+00 -0.45593999997E+02  0.45594000000E+02  0.51100000000E-03 0.  1.
    9900012    2    1    2    0    0  0.16478463247E+02 -0.40150512723E+02 -0.14049154078E+00  0.47787272347E+02  0.20000005939E+02 0.  0.
         12    1    1    2    0    0 -0.16478463247E+02  0.40150512723E+02  0.14049154078E+00  0.43400727653E+02  0.00000000000E+00 0. -1.
         11    1    3    3    0    0  0.10550045585E+01 -0.11307126436E+02  0.52467893561E+01  0.12509713892E+02  0.51100000000E-03 0. -1.
        -11    1    3    3    0    0  0.14836900030E+01  0.10892643506E+01 -0.16880068682E+00  0.18483308101E+01  0.51100000000E-03 0.  1.
        -12    1    3    3    0    0  0.13939768686E+02 -0.29932650638E+02 -0.52184802101E+01  0.33429227645E+02  0.00000000000E+00 0.  1.
</event>
<event>
 7    1  0.2339217E-009  0.4778726E+02  0.7816164E-02  0.1312668E+00
        -11   -1    0    0    0    0  0.00000000000E+00  0.00000000000E+00  0.45593999997E+02  0.45594000000E+02  0.51100000000E-03 0. -1.
         11   -1    0    0    0    0 -0.00000000000E+00 -0.00000000000E+00 -0.45593999997E+02  0.45594000000E+02  0.51100000000E-03 0.  1.
    9900012    2    1    2    0    0 -0.21630365908E+02  0.36555176266E+02 -0.89146097442E+01  0.47787263739E+02  0.19999966690E+02 0.  0.
         12    1    1    2    0    0  0.21630365908E+02 -0.36555176266E+02  0.89146097442E+01  0.43400736261E+02  0.00000000000E+00 0. -1.
         11    1    3    3    0    0 -0.23295920706E+01  0.58626331519E+01 -0.34775429425E+01  0.72035249612E+01  0.51100000000E-03 0.  1.
        -11    1    3    3    0    0 -0.14916587325E+02  0.10061251202E+02  0.22540828857E+01  0.18133235869E+02  0.51100000000E-03 0. -1.
         12    1    3    3    0    0 -0.43841865129E+01  0.20631291912E+02 -0.76911496874E+01  0.22450502908E+02  0.00000000000E+00 0. -1.
</event>
<event>
 7    1  0.2339217E-009  0.4778727E+02  0.7816164E-02  0.1312668E+00
        -11   -1    0    0    0    0  0.00000000000E+00  0.00000000000E+00  0.45593999997E+02  0.45594000000E+02  0.51100000000E-03 0.  1.
         11   -1    0    0    0    0 -0.00000000000E+00 -0.00000000000E+00 -0.45593999997E+02  0.45594000000E+02  0.51100000000E-03 0. -1.
    9900012    2    1    2    0    0  0.11130306970E+02 -0.31903149951E+02  0.27238365920E+02  0.47787270881E+02  0.19999999257E+02 0.  0.
         12    1    1    2    0    0 -0.11130306970E+02  0.31903149951E+02 -0.27238365920E+02  0.43400729119E+02  0.00000000000E+00 0. -1.
         11    1    3    3    0    0  0.31829136532E+00  0.88982399442E+00 -0.27864068447E+00  0.98525987762E+00  0.51100000000E-03 0. -1.
        -11    1    3    3    0    0 -0.15346729547E+01 -0.15749946274E+02  0.17172052819E+02  0.23351561554E+02  0.51100000000E-03 0.  1.
        -12    1    3    3    0    0  0.12346688559E+02 -0.17043027672E+02  0.10344953785E+02  0.23450449450E+02  0.00000000000E+00 0.  1.
</event>
<event>
 7    1  0.2339217E-009  0.4778727E+02  0.7816164E-02  0.1312668E+00
        -11   -1    0    0    0    0  0.00000000000E+00  0.00000000000E+00  0.45593999997E+02  0.45594000000E+02  0.51100000000E-03 0. -1.
         11   -1    0    0    0    0 -0.00000000000E+00 -0.00000000000E+00 -0.45593999997E+02  0.45594000000E+02  0.51100000000E-03 0.  1.
    9900012    2    1    2    0    0 -0.28471574432E+02  0.27542728818E+02  0.17731061726E+02  0.47787274069E+02  0.20000013792E+02 0.  0.
         12    1    1    2    0    0  0.28471574432E+02 -0.27542728818E+02 -0.17731061726E+02  0.43400725931E+02  0.00000000000E+00 0. -1.
         11    1    3    3    0    0 -0.12048305789E+02  0.16557699747E+02  0.12651505489E+02  0.24070307117E+02  0.51100000000E-03 0. -1.
        -11    1    3    3    0    0 -0.17046333694E+02  0.64571339221E+01  0.57132030937E+01  0.19102689882E+02  0.51100000000E-03 0.  1.
         12    1    3    3    0    0  0.62306505123E+00  0.45278951493E+01 -0.63364685700E+00  0.46142770702E+01  0.00000000000E+00 0. -1.
</event>
<event>
 7    1  0.2339217E-009  0.4778728E+02  0.7816164E-02  0.1312668E+00
        -11   -1    0    0    0    0  0.00000000000E+00  0.00000000000E+00  0.45593999997E+02  0.45594000000E+02  0.51100000000E-03 0.  1.
         11   -1    0    0    0    0 -0.00000000000E+00 -0.00000000000E+00 -0.45593999997E+02  0.45594000000E+02  0.51100000000E-03 0. -1.
    9900012    2    1    2    0    0 -0.10690133779E+02  0.22344082812E+02  0.35638264240E+02  0.47787275640E+02  0.20000020954E+02 0.  0.
         12    1    1    2    0    0  0.10690133779E+02 -0.22344082812E+02 -0.35638264240E+02  0.43400724360E+02  0.00000000000E+00 0. -1.
         11    1    3    3    0    0 -0.16536549891E+01  0.48804881140E+01 -0.11615764879E+01  0.52823289610E+01  0.51100000000E-03 0. -1.
        -11    1    3    3    0    0  0.11830861829E+01  0.39207894908E+01  0.97432899544E+01  0.10569010481E+02  0.51100000000E-03 0.  1.
        -12    1    3    3    0    0 -0.10219564973E+02  0.13542805207E+02  0.27056550773E+02  0.31935936198E+02  0.00000000000E+00 0.  1.
</event>
<event>
 7    1  0.2339217E-009  0.4778727E+02  0.7816164E-02  0.1312668E+00
        -11   -1    0    0    0    0  0.00000000000E+00  0.00000000000E+00  0.45593999997E+02  0.45594000000E+02  0.51100000000E-03 0.  1.
         11   -1    0    0    0    0 -0.00000000000E+00 -0.00000000000E+00 -0.45593999997E+02  0.45594000000E+02  0.51100000000E-03 0. -1.
    9900012    2    1    2    0    0 -0.52160929027E+01 -0.39373331581E+02  0.17497322771E+02  0.47787272252E+02  0.20000005504E+02 0.  0.
         12    1    1    2    0    0  0.52160929027E+01  0.39373331581E+02 -0.17497322771E+02  0.43400727748E+02  0.00000000000E+00 0. -1.
         11    1    3    3    0    0 -0.35369831669E+01 -0.60451101767E+01 -0.14835448932E+01  0.71592257041E+01  0.51100000000E-03 0. -1.
        -11    1    3    3    0    0 -0.55573862468E+00 -0.29118944018E+01  0.75571669671E+01  0.81178043371E+01  0.51100000000E-03 0.  1.
        -12    1    3    3    0    0 -0.11233711111E+01 -0.30416327002E+02  0.11423700698E+02  0.32510242210E+02  0.00000000000E+00 0.  1.
</event>
<event>
 7    1  0.2339217E-009  0.4778727E+02  0.7816164E-02  0.1312668E+00
        -11   -1    0    0    0    0  0.00000000000E+00  0.00000000000E+00  0.45593999997E+02  0.45594000000E+02  0.51100000000E-03 0.  1.
         11   -1    0    0    0    0 -0.00000000000E+00 -0.00000000000E+00 -0.45593999997E+02  0.45594000000E+02  0.51100000000E-03 0. -1.
    9900012    2    1    2    0    0 -0.22048016112E+02 -0.27681977560E+02  0.25124018704E+02  0.47787271758E+02  0.20000003253E+02 0.  0.
         12    1    1    2    0    0  0.22048016112E+02  0.27681977560E+02 -0.25124018704E+02  0.43400728242E+02  0.00000000000E+00 0. -1.
         11    1    3    3    0    0 -0.28158802153E+01 -0.20786572109E+00  0.61230086543E+01  0.67426719324E+01  0.51100000000E-03 0. -1.
        -11    1    3    3    0    0 -0.12603235316E+02 -0.20622594844E+02  0.20117653488E+02  0.31446032192E+02  0.51100000000E-03 0.  1.
         12    1    3    3    0    0 -0.66289005807E+01 -0.68515169948E+01 -0.11166434382E+01  0.95985676331E+01  0.00000000000E+00 0. -1.
</event>
<event>
 7    1  0.2339217E-009  0.4778727E+02  0.7816164E-02  0.1312668E+00
        -11   -1    0    0    0    0  0.00000000000E+00  0.00000000000E+00  0.45593999997E+02  0.45594000000E+02  0.51100000000E-03 0.  1.
         11   -1    0    0    0    0 -0.00000000000E+00 -0.00000000000E+00 -0.45593999997E+02  0.45594000000E+02  0.51100000000E-03 0. -1.
    9900012    2    1    2    0    0  0.21634077402E+02 -0.13605712214E+02  0.35078119002E+02  0.47787272557E+02  0.20000006895E+02 0.  0.
         12    1    1    2    0    0 -0.21634077402E+02  0.13605712214E+02 -0.35078119002E+02  0.43400727443E+02  0.00000000000E+00 0. -1.
         11    1    3    3    0    0  0.20167774741E+02 -0.69356004583E+01  0.20353539325E+02  0.29480642039E+02  0.51100000000E-03 0.  1.
        -11    1    3    3    0    0  0.25197440916E+00  0.14294291348E+01 -0.69778196852E-02  0.14514846556E+01  0.51100000000E-03 0. -1.
        -12    1    3    3    0    0  0.12143282516E+01 -0.80995408904E+01  0.14731557497E+02  0.16855145862E+02  0.00000000000E+00 0.  1.
</event>
<event>
 7    1  0.2339217E-009  0.4778727E+02  0.7816164E-02  0.1312668E+00
        -11   -1    0    0    0    0  0.00000000000E+00  0.00000000000E+00  0.45593999997E+02  0.45594000000E+02  0.51100000000E-03 0.  1.
         11   -1    0    0    0    0 -0.00000000000E+00 -0.00000000000E+00 -0.45593999997E+02  0.45594000000E+02  0.51100000000E-03 0. -1.
    9900012    2    1    2    0    0  0.56228360192E+01 -0.68796648019E+01  0.42481492559E+02  0.47787270942E+02  0.19999999534E+02 0.  0.
         12    1    1    2    0    0 -0.56228360192E+01  0.68796648019E+01 -0.42481492559E+02  0.43400729058E+02  0.00000000000E+00 0. -1.
         11    1    3    3    0    0  0.21276567903E+00 -0.48055938026E+01  0.19339213800E+02  0.19928476903E+02  0.51100000000E-03 0. -1.
        -11    1    3    3    0    0  0.61504424957E+00 -0.45002342441E+01  0.21869577129E+02  0.22336266290E+02  0.51100000000E-03 0.  1.
         12    1    3    3    0    0  0.47950260906E+01  0.24261632448E+01  0.12727016300E+01  0.55225277491E+01  0.00000000000E+00 0. -1.
</event>
<event>
 7    1  0.2339217E-009  0.4778727E+02  0.7816164E-02  0.1312668E+00
        -11   -1    0    0    0    0  0.00000000000E+00  0.00000000000E+00  0.45593999997E+02  0.45594000000E+02  0.51100000000E-03 0. -1.
         11   -1    0    0    0    0 -0.00000000000E+00 -0.00000000000E+00 -0.45593999997E+02  0.45594000000E+02  0.51100000000E-03 0.  1.
    9900012    2    1    2    0    0  0.26517410377E+02 -0.13800776558E+02 -0.31464089106E+02  0.47787269707E+02  0.19999993902E+02 0.  0.
         12    1    1    2    0    0 -0.26517410377E+02  0.13800776558E+02  0.31464089106E+02  0.43400730293E+02  0.00000000000E+00 0. -1.
         11    1    3    3    0    0 -0.15176030707E+01 -0.68972706373E+00  0.89630965580E+00  0.18926737075E+01  0.51100000000E-03 0.  1.
        -11    1    3    3    0    0  0.75962566608E+01  0.89965652707E+00 -0.93312077713E+01  0.12065816833E+02  0.51100000000E-03 0. -1.
        -12    1    3    3    0    0  0.20438756787E+02 -0.14010706021E+02 -0.23029190990E+02  0.33828779166E+02  0.00000000000E+00 0.  1.
</event>
<event>
 7    1  0.2339217E-009  0.4778727E+02  0.7816164E-02  0.1312668E+00
        -11   -1    0    0    0    0  0.00000000000E+00  0.00000000000E+00  0.45593999997E+02  0.45594000000E+02  0.51100000000E-03 0. -1.
         11   -1    0    0    0    0 -0.00000000000E+00 -0.00000000000E+00 -0.45593999997E+02  0.45594000000E+02  0.51100000000E-03 0.  1.
    9900012    2    1    2    0    0 -0.78055375364E+01 -0.33612021027E+02 -0.26323541744E+02  0.47787271622E+02  0.20000002634E+02 0.  0.
         12    1    1    2    0    0  0.78055375364E+01  0.33612021027E+02  0.26323541744E+02  0.43400728378E+02  0.00000000000E+00 0. -1.
         11    1    3    3    0    0 -0.12218614029E+01 -0.58082480208E+01 -0.10598635568E+02  0.12147418101E+02  0.51100000000E-03 0. -1.
        -11    1    3    3    0    0 -0.84576388318E+01 -0.98008411058E+01 -0.10859215285E+02  0.16897061811E+02  0.51100000000E-03 0.  1.
         12    1    3    3    0    0  0.18739626983E+01 -0.18002931901E+02 -0.48656908912E+01  0.18742791709E+02  0.00000000000E+00 0. -1.
</event>
<event>
 7    1  0.2524911E-009  0.4778727E+02  0.7816164E-02  0.1312668E+00
        -11   -1    0    0    0    0  0.00000000000E+00  0.00000000000E+00  0.45593999997E+02  0.45594000000E+02  0.51100000000E-03 0. -1.
         11   -1    0    0    0    0 -0.00000000000E+00 -0.00000000000E+00 -0.45593999997E+02  0.45594000000E+02  0.51100000000E-03 0.  1.
    9900012    2    1    2    0    0  0.20032723719E+02 -0.37724297993E+02 -0.76935355067E+01  0.47787272273E+02  0.20000005600E+02 0.  0.
         12    1    1    2    0    0 -0.20032723719E+02  0.37724297993E+02  0.76935355067E+01  0.43400727727E+02  0.00000000000E+00 0. -1.
         11    1    3    3    0    0  0.98298256755E+00  0.12934572755E+01  0.69379265222E+00  0.17665319010E+01  0.51100000000E-03 0. -1.
        -11    1    3    3    0    0 -0.47408967880E+00 -0.65356160720E+01  0.17649979741E+01  0.67863286520E+01  0.51100000000E-03 0.  1.
        -12    1    3    3    0    0  0.19523830831E+02 -0.32482139196E+02 -0.10152326133E+02  0.39234411720E+02  0.00000000000E+00 0.  1.
</event>
<event>
 7    1  0.2339217E-009  0.4778727E+02  0.7816164E-02  0.1312668E+00
        -11   -1    0    0    0    0  0.00000000000E+00  0.00000000000E+00  0.45593999997E+02  0.45594000000E+02  0.51100000000E-03 0.  1.
         11   -1    0    0    0    0 -0.00000000000E+00 -0.00000000000E+00 -0.45593999997E+02  0.45594000000E+02  0.51100000000E-03 0. -1.
    9900012    2    1    2    0    0  0.15380021652E+01  0.33000433330E+02  0.28146565805E+02  0.47787271697E+02  0.20000002975E+02 0.  0.
         12    1    1    2    0    0 -0.15380021652E+01 -0.33000433330E+02 -0.28146565805E+02  0.43400728303E+02  0.00000000000E+00 0. -1.
         11    1    3    3    0    0 -0.35255688583E+01  0.13048861877E+02  0.13160263956E+02  0.18865179027E+02  0.51100000000E-03 0. -1.
        -11    1    3    3    0    0  0.89334865403E+00  0.15079876364E+02  0.16460891568E+02  0.22341926829E+02  0.51100000000E-03 0.  1.
         12    1    3    3    0    0  0.41702223695E+01  0.48716950892E+01 -0.14745897193E+01  0.65801658409E+01  0.00000000000E+00 0. -1.
</event>
<event>
 7    1  0.2339217E-009  0.4778726E+02  0.7816164E-02  0.1312668E+00
        -11   -1    0    0    0    0  0.00000000000E+00  0.00000000000E+00  0.45593999997E+02  0.45594000000E+02  0.51100000000E-03 0. -1.
         11   -1    0    0    0    0 -0.00000000000E+00 -0.00000000000E+00 -0.45593999997E+02  0.45594000000E+02  0.51100000000E-03 0.  1.
    9900012    2    1    2    0    0 -0.16672360235E+02  0.29091271922E+02 -0.27556382304E+02  0.47787263790E+02  0.19999966926E+02 0.  0.
         12    1    1    2    0    0  0.16672360235E+02 -0.29091271922E+02  0.27556382304E+02  0.43400736210E+02  0.00000000000E+00 0. -1.
         11    1    3    3    0    0 -0.77180409409E+01  0.65623919823E+01 -0.18798446857E+01  0.10303735284E+02  0.51100000000E-03 0. -1.
        -11    1    3    3    0    0 -0.85331424367E+01  0.87463619488E+01 -0.64317823615E+01  0.13808736068E+02  0.51100000000E-03 0.  1.
        -12    1    3    3    0    0 -0.42117685702E+00  0.13782517991E+02 -0.19244755257E+02  0.23674792439E+02  0.00000000000E+00 0.  1.
</event>
<event>
 7    1  0.2339217E-009  0.4778727E+02  0.7816164E-02  0.1312668E+00
        -11   -1    0    0    0    0  0.00000000000E+00  0.00000000000E+00  0.45593999997E+02  0.45594000000E+02  0.51100000000E-03 0.  1.
         11   -1    0    0    0    0 -0.00000000000E+00 -0.00000000000E+00 -0.45593999997E+02  0.45594000000E+02  0.51100000000E-03 0. -1.
    9900012    2    1    2    0    0  0.27963491331E+01 -0.16497599508E+02  0.40045386592E+02  0.47787270222E+02  0.19999996248E+02 0.  0.
         12    1    1    2    0    0 -0.27963491331E+01  0.16497599508E+02 -0.40045386592E+02  0.43400729778E+02  0.00000000000E+00 0. -1.
         11    1    3    3    0    0  0.48153120124E+01 -0.98766422605E+01  0.19887458396E+02  0.22721053977E+02  0.51100000000E-03 0. -1.
        -11    1    3    3    0    0 -0.15891536087E+01 -0.40302144998E+01  0.21627307758E+02  0.22056937213E+02  0.51100000000E-03 0.  1.
         12    1    3    3    0    0 -0.42980927058E+00 -0.25907427474E+01 -0.14693795618E+01  0.30092790314E+01  0.00000000000E+00 0. -1.
</event>
<event>
 7    1  0.2339217E-009  0.4778727E+02  0.7816164E-02  0.1312668E+00
        -11   -1    0    0    0    0  0.00000000000E+00  0.00000000000E+00  0.45593999997E+02  0.45594000000E+02  0.51100000000E-03 0.  1.
         11   -1    0    0    0    0 -0.00000000000E+00 -0.00000000000E+00 -0.45593999997E+02  0.45594000000E+02  0.51100000000E-03 0. -1.
    9900012    2    1    2    0    0  0.24336343943E+02 -0.15102422253E+02  0.32608013185E+02  0.47787270533E+02  0.19999997667E+02 0.  0.
         12    1    1    2    0    0 -0.24336343943E+02  0.15102422253E+02 -0.32608013185E+02  0.43400729467E+02  0.00000000000E+00 0. -1.
         11    1    3    3    0    0  0.95288264472E+01 -0.10184417917E+02  0.80231586756E+01  0.16090120483E+02  0.51100000000E-03 0.  1.
        -11    1    3    3    0    0  0.56924993437E+01 -0.77477958572E+01  0.16901342037E+02  0.19444491568E+02  0.51100000000E-03 0. -1.
         12    1    3    3    0    0  0.91150181525E+01  0.28297915205E+01  0.76835124722E+01  0.12252658482E+02  0.00000000000E+00 0. -1.
</event>
<event>
 7    1  0.2339217E-009  0.4778727E+02  0.7816164E-02  0.1312668E+00
        -11   -1    0    0    0    0  0.00000000000E+00  0.00000000000E+00  0.45593999997E+02  0.45594000000E+02  0.51100000000E-03 0.  1.
         11   -1    0    0    0    0 -0.00000000000E+00 -0.00000000000E+00 -0.45593999997E+02  0.45594000000E+02  0.51100000000E-03 0. -1.
    9900012    2    1    2    0    0  0.32180030398E+02 -0.28247320174E+02  0.70822123368E+01  0.47787272068E+02  0.20000004666E+02 0.  0.
         12    1    1    2    0    0 -0.32180030398E+02  0.28247320174E+02 -0.70822123368E+01  0.43400727932E+02  0.00000000000E+00 0. -1.
         11    1    3    3    0    0  0.10192272612E+02 -0.10622388307E+02 -0.22354569091E+01  0.14890091410E+02  0.51100000000E-03 0. -1.
        -11    1    3    3    0    0  0.15407174070E+02 -0.49574901812E+01  0.65245085718E+00  0.16198253427E+02  0.51100000000E-03 0.  1.
        -12    1    3    3    0    0  0.65805837160E+01 -0.12667441686E+02  0.86652183887E+01  0.16698927230E+02  0.00000000000E+00 0.  1.
</event>
<event>
 7    1  0.2339217E-009  0.4778729E+02  0.7816164E-02  0.1312668E+00
        -11   -1    0    0    0    0  0.00000000000E+00  0.00000000000E+00  0.45593999997E+02  0.45594000000E+02  0.51100000000E-03 0.  1.
         11   -1    0    0    0    0 -0.00000000000E+00 -0.00000000000E+00 -0.45593999997E+02  0.45594000000E+02  0.51100000000E-03 0. -1.
    9900012    2    1    2    0    0 -0.10473429040E+02 -0.88941290614E-01  0.42117940276E+02  0.47787291256E+02  0.20000092151E+02 0.  0.
         12    1    1    2    0    0  0.10473429040E+02  0.88941290614E-01 -0.42117940276E+02  0.43400708744E+02  0.00000000000E+00 0. -1.
         11    1    3    3    0    0 -0.48565104023E+01 -0.19066475286E+01  0.39171108661E+01  0.65241670645E+01  0.51100000000E-03 0. -1.
        -11    1    3    3    0    0  0.83413572809E+00 -0.54880870353E+01  0.17954251888E+02  0.18792818917E+02  0.51100000000E-03 0.  1.
        -12    1    3    3    0    0 -0.64510543655E+01  0.73057932733E+01  0.20246577522E+02  0.22470305275E+02  0.00000000000E+00 0.  1.
</event>
<event>
 7    1  0.2339217E-009  0.4778727E+02  0.7816164E-02  0.1312668E+00
        -11   -1    0    0    0    0  0.00000000000E+00  0.00000000000E+00  0.45593999997E+02  0.45594000000E+02  0.51100000000E-03 0.  1.
         11   -1    0    0    0    0 -0.00000000000E+00 -0.00000000000E+00 -0.45593999997E+02  0.45594000000E+02  0.51100000000E-03 0. -1.
    9900012    2    1    2    0    0  0.20196815694E+02 -0.20601963381E+02  0.32423309631E+02  0.47787271126E+02  0.20000000371E+02 0.  0.
         12    1    1    2    0    0 -0.20196815694E+02  0.20601963381E+02 -0.32423309631E+02  0.43400728874E+02  0.00000000000E+00 0. -1.
         11    1    3    3    0    0 -0.72519055272E+00 -0.27657039099E+01 -0.60529208279E+00  0.29225670603E+01  0.51100000000E-03 0. -1.
        -11    1    3    3    0    0 -0.12394953632E+01  0.10714917564E+00  0.18830172700E-01  0.12442606390E+01  0.51100000000E-03 0.  1.
        -12    1    3    3    0    0  0.22161501610E+02 -0.17943408647E+02  0.33009771541E+02  0.43620443426E+02  0.00000000000E+00 0.  1.
</event>
<event>
 7    1  0.2339217E-009  0.4778727E+02  0.7816164E-02  0.1312668E+00
        -11   -1    0    0    0    0  0.00000000000E+00  0.00000000000E+00  0.45593999997E+02  0.45594000000E+02  0.51100000000E-03 0. -1.
         11   -1    0    0    0    0 -0.00000000000E+00 -0.00000000000E+00 -0.45593999997E+02  0.45594000000E+02  0.51100000000E-03 0.  1.
    9900012    2    1    2    0    0 -0.64857650510E+01  0.34647405978E+02 -0.25320264754E+02  0.47787266175E+02  0.19999977798E+02 0.  0.
         12    1    1    2    0    0  0.64857650510E+01 -0.34647405978E+02  0.25320264754E+02  0.43400733825E+02  0.00000000000E+00 0. -1.
         11    1    3    3    0    0 -0.32886508708E+01  0.58005358942E+01 -0.11236888915E+02  0.13066335138E+02  0.51100000000E-03 0.  1.
        -11    1    3    3    0    0 -0.74910126849E+01  0.11281257212E+02 -0.74783534119E+01  0.15469576767E+02  0.51100000000E-03 0. -1.
         12    1    3    3    0    0  0.42938985046E+01  0.17565612872E+02 -0.66050224277E+01  0.19251354270E+02  0.00000000000E+00 0. -1.
</event>
<event>
 7    1  0.2339217E-009  0.4778728E+02  0.7816164E-02  0.1312668E+00
        -11   -1    0    0    0    0  0.00000000000E+00  0.00000000000E+00  0.45593999997E+02  0.45594000000E+02  0.51100000000E-03 0. -1.
         11   -1    0    0    0    0 -0.00000000000E+00 -0.00000000000E+00 -0.45593999997E+02  0.45594000000E+02  0.51100000000E-03 0.  1.
    9900012    2    1    2    0    0 -0.51715972620E+01  0.39887445913E+02 -0.16305491458E+02  0.47787276372E+02  0.20000024292E+02 0.  0.
         12    1    1    2    0    0  0.51715972620E+01 -0.39887445913E+02  0.16305491458E+02  0.43400723628E+02  0.00000000000E+00 0. -1.
         11    1    3    3    0    0  0.11221992265E+01  0.15022268666E+01  0.12247844008E+01  0.22396682237E+01  0.51100000000E-03 0. -1.
        -11    1    3    3    0    0 -0.48653973906E+01  0.19409554256E+02 -0.50914328101E+00  0.20016546038E+02  0.51100000000E-03 0.  1.
         12    1    3    3    0    0 -0.14283990980E+01  0.18975664791E+02 -0.17021132578E+02  0.25531062110E+02  0.00000000000E+00 0. -1.
</event>
<event>
 7    1  0.2339217E-009  0.4778728E+02  0.7816164E-02  0.1312668E+00
        -11   -1    0    0    0    0  0.00000000000E+00  0.00000000000E+00  0.45593999997E+02  0.45594000000E+02  0.51100000000E-03 0. -1.
         11   -1    0    0    0    0 -0.00000000000E+00 -0.00000000000E+00 -0.45593999997E+02  0.45594000000E+02  0.51100000000E-03 0.  1.
    9900012    2    1    2    0    0 -0.15631127798E+01  0.42937149562E+02  0.61302593582E+01  0.47787283256E+02  0.20000055679E+02 0.  0.
         12    1    1    2    0    0  0.15631127798E+01 -0.42937149562E+02 -0.61302593582E+01  0.43400716744E+02  0.00000000000E+00 0. -1.
         11    1    3    3    0    0  0.13600246015E+01  0.17576151704E+00  0.34457499100E+00  0.14139629461E+01  0.51100000000E-03 0. -1.
        -11    1    3    3    0    0 -0.72272462495E+01  0.74711019986E+01  0.23406799048E+01  0.10655009906E+02  0.51100000000E-03 0.  1.
         12    1    3    3    0    0  0.43041088683E+01  0.35290286046E+02  0.34450044624E+01  0.35718310404E+02  0.00000000000E+00 0. -1.
</event>
<event>
 7    1  0.2339217E-009  0.4778722E+02  0.7816164E-02  0.1312668E+00
        -11   -1    0    0    0    0  0.00000000000E+00  0.00000000000E+00  0.45593999997E+02  0.45594000000E+02  0.51100000000E-03 0. -1.
         11   -1    0    0    0    0 -0.00000000000E+00 -0.00000000000E+00 -0.45593999997E+02  0.45594000000E+02  0.51100000000E-03 0.  1.
    9900012    2    1    2    0    0  0.41325565109E+02 -0.13025835913E+02  0.24805039520E+01  0.47787220829E+02  0.19999771046E+02 0.  0.
         12    1    1    2    0    0 -0.41325565109E+02  0.13025835913E+02 -0.24805039520E+01  0.43400779171E+02  0.00000000000E+00 0. -1.
         11    1    3    3    0    0  0.23975146987E+02 -0.94208185140E+01  0.17275997106E+00  0.25760227887E+02  0.51100000000E-03 0. -1.
        -11    1    3    3    0    0  0.15734965983E+02 -0.75317962952E+01  0.61380467281E+00  0.17455482415E+02  0.51100000000E-03 0.  1.
         12    1    3    3    0    0  0.16154521390E+01  0.39267788962E+01  0.16939393081E+01  0.45715105263E+01  0.00000000000E+00 0. -1.
</event>
<event>
 7    1  0.2339217E-009  0.4778728E+02  0.7816164E-02  0.1312668E+00
        -11   -1    0    0    0    0  0.00000000000E+00  0.00000000000E+00  0.45593999997E+02  0.45594000000E+02  0.51100000000E-03 0.  1.
         11   -1    0    0    0    0 -0.00000000000E+00 -0.00000000000E+00 -0.45593999997E+02  0.45594000000E+02  0.51100000000E-03 0. -1.
    9900012    2    1    2    0    0  0.32780028642E+02 -0.23997632479E+02  0.15271085051E+02  0.47787277874E+02  0.20000031139E+02 0.  0.
         12    1    1    2    0    0 -0.32780028642E+02  0.23997632479E+02 -0.15271085051E+02  0.43400722126E+02  0.00000000000E+00 0. -1.
         11    1    3    3    0    0  0.11223169977E+02 -0.31954239477E+01 -0.31067169196E+01  0.12075676744E+02  0.51100000000E-03 0. -1.
        -11    1    3    3    0    0  0.15539187311E+02 -0.12130169362E+02  0.93319660430E+01  0.21810386093E+02  0.51100000000E-03 0.  1.
        -12    1    3    3    0    0  0.60176713548E+01 -0.86720391698E+01  0.90458359277E+01  0.13901215038E+02  0.00000000000E+00 0.  1.
</event>
<event>
 7    1  0.2339217E-009  0.4778727E+02  0.7816164E-02  0.1312668E+00
        -11   -1    0    0    0    0  0.00000000000E+00  0.00000000000E+00  0.45593999997E+02  0.45594000000E+02  0.51100000000E-03 0. -1.
         11   -1    0    0    0    0 -0.00000000000E+00 -0.00000000000E+00 -0.45593999997E+02  0.45594000000E+02  0.51100000000E-03 0.  1.
    9900012    2    1    2    0    0  0.25630608037E+02 -0.78393804571E+01 -0.34135598636E+02  0.47787273640E+02  0.20000011835E+02 0.  0.
         12    1    1    2    0    0 -0.25630608037E+02  0.78393804571E+01  0.34135598636E+02  0.43400726360E+02  0.00000000000E+00 0. -1.
         11    1    3    3    0    0 -0.10906385194E+00  0.39394726277E+01 -0.52840508756E+01  0.65918535652E+01  0.51100000000E-03 0. -1.
        -11    1    3    3    0    0  0.99315899346E+01 -0.31168182364E+01 -0.15880360069E+02  0.18987808476E+02  0.51100000000E-03 0.  1.
         12    1    3    3    0    0  0.15808081954E+02 -0.86620348484E+01 -0.12971187692E+02  0.22207611599E+02  0.00000000000E+00 0. -1.
</event>
<event>
 7    1  0.2339217E-009  0.4778727E+02  0.7816164E-02  0.1312668E+00
        -11   -1    0    0    0    0  0.00000000000E+00  0.00000000000E+00  0.45593999997E+02  0.45594000000E+02  0.51100000000E-03 0.  1.
         11   -1    0    0    0    0 -0.00000000000E+00 -0.00000000000E+00 -0.45593999997E+02  0.45594000000E+02  0.51100000000E-03 0. -1.
    9900012    2    1    2    0    0  0.33012582353E+02  0.27994090858E+02  0.31817977035E+01  0.47787267827E+02  0.19999985331E+02 0.  0.
         12    1    1    2    0    0 -0.33012582353E+02 -0.27994090858E+02 -0.31817977035E+01  0.43400732173E+02  0.00000000000E+00 0. -1.
         11    1    3    3    0    0  0.46786735442E+00  0.25671708486E+01  0.41101625641E+01  0.48685421423E+01  0.51100000000E-03 0. -1.
        -11    1    3    3    0    0  0.13117284010E+02  0.62955083824E+01  0.42660688431E+01  0.15162318728E+02  0.51100000000E-03 0.  1.
         12    1    3    3    0    0  0.19427430989E+02  0.19131411626E+02 -0.51944337037E+01  0.27756406957E+02  0.00000000000E+00 0. -1.
</event>
<event>
 7    1  0.2339217E-009  0.4778727E+02  0.7816164E-02  0.1312668E+00
        -11   -1    0    0    0    0  0.00000000000E+00  0.00000000000E+00  0.45593999997E+02  0.45594000000E+02  0.51100000000E-03 0. -1.
         11   -1    0    0    0    0 -0.00000000000E+00 -0.00000000000E+00 -0.45593999997E+02  0.45594000000E+02  0.51100000000E-03 0.  1.
    9900012    2    1    2    0    0 -0.20691057739E+02 -0.34539730709E+02 -0.16202174052E+02  0.47787270608E+02  0.19999998008E+02 0.  0.
         12    1    1    2    0    0  0.20691057739E+02  0.34539730709E+02  0.16202174052E+02  0.43400729392E+02  0.00000000000E+00 0. -1.
         11    1    3    3    0    0 -0.13860130335E+02 -0.25012996806E+02 -0.10648064248E+02  0.30514496466E+02  0.51100000000E-03 0. -1.
        -11    1    3    3    0    0 -0.17718227031E+01 -0.86925634121E+01 -0.76687129691E+01  0.11726430541E+02  0.51100000000E-03 0.  1.
         12    1    3    3    0    0 -0.50591047012E+01 -0.83417049063E+00  0.21146031652E+01  0.55463436002E+01  0.00000000000E+00 0. -1.
</event>
<event>
 7    1  0.2339217E-009  0.4778727E+02  0.7816164E-02  0.1312668E+00
        -11   -1    0    0    0    0  0.00000000000E+00  0.00000000000E+00  0.45593999997E+02  0.45594000000E+02  0.51100000000E-03 0.  1.
         11   -1    0    0    0    0 -0.00000000000E+00 -0.00000000000E+00 -0.45593999997E+02  0.45594000000E+02  0.51100000000E-03 0. -1.
    9900012    2    1    2    0    0 -0.17627175639E+02 -0.33466969269E+02  0.21280689026E+02  0.47787273295E+02  0.20000010263E+02 0.  0.
         12    1    1    2    0    0  0.17627175639E+02  0.33466969269E+02 -0.21280689026E+02  0.43400726705E+02  0.00000000000E+00 0. -1.
         11    1    3    3    0    0 -0.12951107067E+02 -0.13392528499E+02  0.13525249749E+02  0.23022236531E+02  0.51100000000E-03 0. -1.
        -11    1    3    3    0    0  0.87513552985E+00 -0.53755770101E+01  0.72198662125E+01  0.90437358860E+01  0.51100000000E-03 0.  1.
        -12    1    3    3    0    0 -0.55512041025E+01 -0.14698863759E+02  0.53557306528E+00  0.15721300879E+02  0.00000000000E+00 0.  1.
</event>
<event>
 7    1  0.2339217E-009  0.4778727E+02  0.7816164E-02  0.1312668E+00
        -11   -1    0    0    0    0  0.00000000000E+00  0.00000000000E+00  0.45593999997E+02  0.45594000000E+02  0.51100000000E-03 0.  1.
         11   -1    0    0    0    0 -0.00000000000E+00 -0.00000000000E+00 -0.45593999997E+02  0.45594000000E+02  0.51100000000E-03 0. -1.
    9900012    2    1    2    0    0 -0.41887726114E+01  0.43053866235E+02 -0.35273690631E+01  0.47787267907E+02  0.19999985693E+02 0.  0.
         12    1    1    2    0    0  0.41887726114E+01 -0.43053866235E+02  0.35273690631E+01  0.43400732093E+02  0.00000000000E+00 0. -1.
         11    1    3    3    0    0 -0.37334739761E+01  0.10707993739E+02 -0.52689281338E+01  0.12504461675E+02  0.51100000000E-03 0. -1.
        -11    1    3    3    0    0 -0.29768501807E+01  0.20671215187E+02 -0.51273252837E+01  0.21504656220E+02  0.51100000000E-03 0.  1.
         12    1    3    3    0    0  0.25215515454E+01  0.11674657308E+02  0.68688843544E+01  0.13778150011E+02  0.00000000000E+00 0. -1.
</event>
<event>
 7    1  0.2339217E-009  0.4778727E+02  0.7816164E-02  0.1312668E+00
        -11   -1    0    0    0    0  0.00000000000E+00  0.00000000000E+00  0.45593999997E+02  0.45594000000E+02  0.51100000000E-03 0.  1.
         11   -1    0    0    0    0 -0.00000000000E+00 -0.00000000000E+00 -0.45593999997E+02  0.45594000000E+02  0.51100000000E-03 0. -1.
    9900012    2    1    2    0    0 -0.22993126637E+02 -0.35379026790E+02  0.10161881844E+02  0.47787271299E+02  0.20000001160E+02 0.  0.
         12    1    1    2    0    0  0.22993126637E+02  0.35379026790E+02 -0.10161881844E+02  0.43400728701E+02  0.00000000000E+00 0. -1.
         11    1    3    3    0    0 -0.10623344558E+01 -0.15069736720E+02  0.81697549767E+01  0.17174702791E+02  0.51100000000E-03 0. -1.
        -11    1    3    3    0    0 -0.28202121078E+01 -0.38331092053E+00  0.88803353397E+00  0.29814639715E+01  0.51100000000E-03 0.  1.
        -12    1    3    3    0    0 -0.19110580073E+02 -0.19925979149E+02  0.11040933333E+01  0.27631104536E+02  0.00000000000E+00 0.  1.
</event>
<event>
 7    1  0.2339217E-009  0.4778727E+02  0.7816164E-02  0.1312668E+00
        -11   -1    0    0    0    0  0.00000000000E+00  0.00000000000E+00  0.45593999997E+02  0.45594000000E+02  0.51100000000E-03 0.  1.
         11   -1    0    0    0    0 -0.00000000000E+00 -0.00000000000E+00 -0.45593999997E+02  0.45594000000E+02  0.51100000000E-03 0. -1.
    9900012    2    1    2    0    0 -0.42631914925E+02 -0.59814970437E+01 -0.55104194034E+01  0.47787271907E+02  0.20000003931E+02 0.  0.
         12    1    1    2    0    0  0.42631914925E+02  0.59814970437E+01  0.55104194034E+01  0.43400728093E+02  0.00000000000E+00 0. -1.
         11    1    3    3    0    0 -0.13247428857E+01  0.23586790490E+01 -0.46132099799E+01  0.53478983862E+01  0.51100000000E-03 0. -1.
        -11    1    3    3    0    0 -0.95858100945E+01 -0.11900200288E+01  0.17420406695E+01  0.98152233185E+01  0.51100000000E-03 0.  1.
         12    1    3    3    0    0 -0.31721361945E+02 -0.71501560638E+01 -0.26392500930E+01  0.32624150202E+02  0.00000000000E+00 0. -1.
</event>
<event>
 7    1  0.2339217E-009  0.4778727E+02  0.7816164E-02  0.1312668E+00
        -11   -1    0    0    0    0  0.00000000000E+00  0.00000000000E+00  0.45593999997E+02  0.45594000000E+02  0.51100000000E-03 0.  1.
         11   -1    0    0    0    0 -0.00000000000E+00 -0.00000000000E+00 -0.45593999997E+02  0.45594000000E+02  0.51100000000E-03 0. -1.
    9900012    2    1    2    0    0 -0.33523048449E+02  0.27447181449E+02  0.25457291911E+01  0.47787270929E+02  0.19999999473E+02 0.  0.
         12    1    1    2    0    0  0.33523048449E+02 -0.27447181449E+02 -0.25457291911E+01  0.43400729071E+02  0.00000000000E+00 0. -1.
         11    1    3    3    0    0 -0.83574643445E+01  0.10123380165E+01  0.30627971168E+01  0.89583907578E+01  0.51100000000E-03 0. -1.
        -11    1    3    3    0    0 -0.36681670252E+01 -0.61369547159E+00 -0.20448926768E+01  0.42442499664E+01  0.51100000000E-03 0.  1.
        -12    1    3    3    0    0 -0.21497417079E+02  0.27048538904E+02  0.15278247511E+01  0.34584630205E+02  0.00000000000E+00 0.  1.
</event>
<event>
 7    1  0.2339217E-009  0.4778727E+02  0.7816164E-02  0.1312668E+00
        -11   -1    0    0    0    0  0.00000000000E+00  0.00000000000E+00  0.45593999997E+02  0.45594000000E+02  0.51100000000E-03 0.  1.
         11   -1    0    0    0    0 -0.00000000000E+00 -0.00000000000E+00 -0.45593999997E+02  0.45594000000E+02  0.51100000000E-03 0. -1.
    9900012    2    1    2    0    0  0.30382856003E+02  0.30510911338E+01  0.30841473490E+02  0.47787267483E+02  0.19999983760E+02 0.  0.
         12    1    1    2    0    0 -0.30382856003E+02 -0.30510911338E+01 -0.30841473490E+02  0.43400732517E+02  0.00000000000E+00 0. -1.
         11    1    3    3    0    0  0.89887876891E+01  0.74989891940E+01  0.69697539901E+01  0.13623898634E+02  0.51100000000E-03 0. -1.
        -11    1    3    3    0    0  0.16982254663E+02  0.12983294100E+01  0.14879804289E+02  0.22616171396E+02  0.51100000000E-03 0.  1.
         12    1    3    3    0    0  0.44118136510E+01 -0.57462274702E+01  0.89919152112E+01  0.11547197452E+02  0.00000000000E+00 0. -1.
</event>
<event>
 7    1  0.2339217E-009  0.4778727E+02  0.7816164E-02  0.1312668E+00
        -11   -1    0    0    0    0  0.00000000000E+00  0.00000000000E+00  0.45593999997E+02  0.45594000000E+02  0.51100000000E-03 0.  1.
         11   -1    0    0    0    0 -0.00000000000E+00 -0.00000000000E+00 -0.45593999997E+02  0.45594000000E+02  0.51100000000E-03 0. -1.
    9900012    2    1    2    0    0  0.26167505042E+01  0.20678928959E+02  0.38067811893E+02  0.47787265116E+02  0.19999972972E+02 0.  0.
         12    1    1    2    0    0 -0.26167505042E+01 -0.20678928959E+02 -0.38067811893E+02  0.43400734884E+02  0.00000000000E+00 0. -1.
         11    1    3    3    0    0  0.51724300649E+01  0.15464984013E+01  0.81392572165E+01  0.97669441679E+01  0.51100000000E-03 0. -1.
        -11    1    3    3    0    0  0.19485928912E+01  0.16048279284E+02  0.27804589115E+02  0.32162702908E+02  0.51100000000E-03 0.  1.
         12    1    3    3    0    0 -0.45042724520E+01  0.30841512737E+01  0.21239655620E+01  0.58576180405E+01  0.00000000000E+00 0. -1.
</event>
<event>
 7    1  0.2339217E-009  0.4778727E+02  0.7816164E-02  0.1312668E+00
        -11   -1    0    0    0    0  0.00000000000E+00  0.00000000000E+00  0.45593999997E+02  0.45594000000E+02  0.51100000000E-03 0.  1.
         11   -1    0    0    0    0 -0.00000000000E+00 -0.00000000000E+00 -0.45593999997E+02  0.45594000000E+02  0.51100000000E-03 0. -1.
    9900012    2    1    2    0    0 -0.58096266078E+01 -0.24584742480E+02  0.35291103513E+02  0.47787270614E+02  0.19999998036E+02 0.  0.
         12    1    1    2    0    0  0.58096266078E+01  0.24584742480E+02 -0.35291103513E+02  0.43400729386E+02  0.00000000000E+00 0. -1.
         11    1    3    3    0    0 -0.25281838135E+01 -0.50832906765E+01 -0.28007207088E+00  0.56841884314E+01  0.51100000000E-03 0. -1.
        -11    1    3    3    0    0 -0.17903911346E+01 -0.14473113394E+02  0.15187838708E+02  0.21055805770E+02  0.51100000000E-03 0.  1.
        -12    1    3    3    0    0 -0.14910516596E+01 -0.50283384095E+01  0.20383336875E+02  0.21047276413E+02  0.00000000000E+00 0.  1.
</event>
<event>
 7    1  0.2339217E-009  0.4778728E+02  0.7816164E-02  0.1312668E+00
        -11   -1    0    0    0    0  0.00000000000E+00  0.00000000000E+00  0.45593999997E+02  0.45594000000E+02  0.51100000000E-03 0.  1.
         11   -1    0    0    0    0 -0.00000000000E+00 -0.00000000000E+00 -0.45593999997E+02  0.45594000000E+02  0.51100000000E-03 0. -1.
    9900012    2    1    2    0    0 -0.40685901581E+01  0.38646560233E+02  0.19326480210E+02  0.47787275570E+02  0.20000020635E+02 0.  0.
         12    1    1    2    0    0  0.40685901581E+01 -0.38646560233E+02 -0.19326480210E+02  0.43400724430E+02  0.00000000000E+00 0. -1.
         11    1    3    3    0    0 -0.95292434085E+00  0.39682668038E+01 -0.23708408749E+01  0.47197556018E+01  0.51100000000E-03 0. -1.
        -11    1    3    3    0    0 -0.33028139828E+01  0.37629013707E+01  0.75717219981E+01  0.90773884575E+01  0.51100000000E-03 0.  1.
        -12    1    3    3    0    0  0.18714816560E+00  0.30915392059E+02  0.14125599086E+02  0.33990131511E+02  0.00000000000E+00 0.  1.
</event>
<event>
 7    1  0.2339217E-009  0.4778727E+02  0.7816164E-02  0.1312668E+00
        -11   -1    0    0    0    0  0.00000000000E+00  0.00000000000E+00  0.45593999997E+02  0.45594000000E+02  0.51100000000E-03 0. -1.
         11   -1    0    0    0    0 -0.00000000000E+00 -0.00000000000E+00 -0.45593999997E+02  0.45594000000E+02  0.51100000000E-03 0.  1.
    9900012    2    1    2    0    0 -0.20576075536E+02  0.38073833965E+02  0.32605914013E+01  0.47787272200E+02  0.20000005268E+02 0.  0.
         12    1    1    2    0    0  0.20576075536E+02 -0.38073833965E+02 -0.32605914013E+01  0.43400727800E+02  0.00000000000E+00 0. -1.
         11    1    3    3    0    0 -0.92352224427E+01  0.13188555070E+02 -0.43728691852E+01  0.16683803630E+02  0.51100000000E-03 0. -1.
        -11    1    3    3    0    0 -0.97492040894E+01  0.19765650927E+02  0.32783428921E+00  0.22041674449E+02  0.51100000000E-03 0.  1.
         12    1    3    3    0    0 -0.15916490042E+01  0.51196279688E+01  0.73056262973E+01  0.90617941208E+01  0.00000000000E+00 0. -1.
</event>
<event>
 7    1  0.2339217E-009  0.4778727E+02  0.7816164E-02  0.1312668E+00
        -11   -1    0    0    0    0  0.00000000000E+00  0.00000000000E+00  0.45593999997E+02  0.45594000000E+02  0.51100000000E-03 0.  1.
         11   -1    0    0    0    0 -0.00000000000E+00 -0.00000000000E+00 -0.45593999997E+02  0.45594000000E+02  0.51100000000E-03 0. -1.
    9900012    2    1    2    0    0  0.31118506741E+02 -0.34701713443E+01  0.30053615319E+02  0.47787270229E+02  0.19999996283E+02 0.  0.
         12    1    1    2    0    0 -0.31118506741E+02  0.34701713443E+01 -0.30053615319E+02  0.43400729771E+02  0.00000000000E+00 0. -1.
         11    1    3    3    0    0  0.12792552261E+02  0.38341661692E+01  0.42133577925E+01  0.14003664082E+02  0.51100000000E-03 0. -1.
        -11    1    3    3    0    0  0.58540154972E+01  0.13599859440E+01  0.41419351968E+01  0.72989510647E+01  0.51100000000E-03 0.  1.
        -12    1    3    3    0    0  0.12471938982E+02 -0.86643234575E+01  0.21698322329E+02  0.26484655083E+02  0.00000000000E+00 0.  1.
</event>
<event>
 7    1  0.2339217E-009  0.4778733E+02  0.7816164E-02  0.1312668E+00
        -11   -1    0    0    0    0  0.00000000000E+00  0.00000000000E+00  0.45593999997E+02  0.45594000000E+02  0.51100000000E-03 0.  1.
         11   -1    0    0    0    0 -0.00000000000E+00 -0.00000000000E+00 -0.45593999997E+02  0.45594000000E+02  0.51100000000E-03 0. -1.
    9900012    2    1    2    0    0 -0.13925332291E+01 -0.27969715027E+02  0.33156816024E+02  0.47787325393E+02  0.20000247796E+02 0.  0.
         12    1    1    2    0    0  0.13925332291E+01  0.27969715027E+02 -0.33156816024E+02  0.43400674607E+02  0.00000000000E+00 0. -1.
         11    1    3    3    0    0 -0.38447037834E+01 -0.28983315150E+01  0.21566037953E+01  0.52757002326E+01  0.51100000000E-03 0. -1.
        -11    1    3    3    0    0 -0.34557930552E+01 -0.99388370040E+01  0.20854323762E+02  0.23358634517E+02  0.51100000000E-03 0.  1.
        -12    1    3    3    0    0  0.59079636095E+01 -0.15132546509E+02  0.10145888466E+02  0.19152990644E+02  0.00000000000E+00 0.  1.
</event>
<event>
 7    1  0.2339217E-009  0.4778727E+02  0.7816164E-02  0.1312668E+00
        -11   -1    0    0    0    0  0.00000000000E+00  0.00000000000E+00  0.45593999997E+02  0.45594000000E+02  0.51100000000E-03 0.  1.
         11   -1    0    0    0    0 -0.00000000000E+00 -0.00000000000E+00 -0.45593999997E+02  0.45594000000E+02  0.51100000000E-03 0. -1.
    9900012    2    1    2    0    0 -0.10254046598E+01 -0.69088311564E+00  0.43383112900E+02  0.47787271215E+02  0.20000000777E+02 0.  0.
         12    1    1    2    0    0  0.10254046598E+01  0.69088311564E+00 -0.43383112900E+02  0.43400728785E+02  0.00000000000E+00 0. -1.
         11    1    3    3    0    0 -0.58069505632E-01 -0.22139111764E+01  0.26034264781E+02  0.26128293433E+02  0.51100000000E-03 0. -1.
        -11    1    3    3    0    0  0.43142661208E+01 -0.34779577650E+01  0.91638678003E+01  0.10709134218E+02  0.51100000000E-03 0.  1.
         12    1    3    3    0    0 -0.52816012750E+01  0.50009858258E+01  0.81849803188E+01  0.10949843564E+02  0.00000000000E+00 0. -1.
</event>
<event>
 7    1  0.2339217E-009  0.4778727E+02  0.7816164E-02  0.1312668E+00
        -11   -1    0    0    0    0  0.00000000000E+00  0.00000000000E+00  0.45593999997E+02  0.45594000000E+02  0.51100000000E-03 0.  1.
         11   -1    0    0    0    0 -0.00000000000E+00 -0.00000000000E+00 -0.45593999997E+02  0.45594000000E+02  0.51100000000E-03 0. -1.
    9900012    2    1    2    0    0  0.33641475560E+02 -0.89391926934E+01  0.25922288520E+02  0.47787273209E+02  0.20000009868E+02 0.  0.
         12    1    1    2    0    0 -0.33641475560E+02  0.89391926934E+01 -0.25922288520E+02  0.43400726791E+02  0.00000000000E+00 0. -1.
         11    1    3    3    0    0  0.12530176017E+02 -0.66490384842E+01  0.17912356140E+02  0.22848797048E+02  0.51100000000E-03 0. -1.
        -11    1    3    3    0    0  0.14231006091E+02 -0.35892828195E+01  0.98785772880E+01  0.17691545297E+02  0.51100000000E-03 0.  1.
         12    1    3    3    0    0  0.68802934529E+01  0.12991286102E+01 -0.18686449084E+01  0.72469308633E+01  0.00000000000E+00 0. -1.
</event>
<event>
 7    1  0.2339217E-009  0.4778726E+02  0.7816164E-02  0.1312668E+00
        -11   -1    0    0    0    0  0.00000000000E+00  0.00000000000E+00  0.45593999997E+02  0.45594000000E+02  0.51100000000E-03 0.  1.
         11   -1    0    0    0    0 -0.00000000000E+00 -0.00000000000E+00 -0.45593999997E+02  0.45594000000E+02  0.51100000000E-03 0. -1.
    9900012    2    1    2    0    0 -0.27548496601E+02 -0.33524327423E+02 -0.90758348002E+00  0.47787263809E+02  0.19999967011E+02 0.  0.
         12    1    1    2    0    0  0.27548496601E+02  0.33524327423E+02  0.90758348002E+00  0.43400736191E+02  0.00000000000E+00 0. -1.
         11    1    3    3    0    0 -0.21297024592E+02 -0.32053949715E+02  0.69108875960E+00  0.38490213727E+02  0.51100000000E-03 0.  1.
        -11    1    3    3    0    0  0.91619124336E+00 -0.16936863031E+01  0.97374451532E-01  0.19280720247E+01  0.51100000000E-03 0. -1.
        -12    1    3    3    0    0 -0.71676632523E+01  0.22330859576E+00 -0.16960466912E+01  0.73689780571E+01  0.00000000000E+00 0.  1.
</event>
<event>
 7    1  0.2339217E-009  0.4778727E+02  0.7816164E-02  0.1312668E+00
        -11   -1    0    0    0    0  0.00000000000E+00  0.00000000000E+00  0.45593999997E+02  0.45594000000E+02  0.51100000000E-03 0.  1.
         11   -1    0    0    0    0 -0.00000000000E+00 -0.00000000000E+00 -0.45593999997E+02  0.45594000000E+02  0.51100000000E-03 0. -1.
    9900012    2    1    2    0    0 -0.50157469877E+01 -0.29246681757E+02  0.31671705622E+02  0.47787273639E+02  0.20000011831E+02 0.  0.
         12    1    1    2    0    0  0.50157469877E+01  0.29246681757E+02 -0.31671705622E+02  0.43400726361E+02  0.00000000000E+00 0. -1.
         11    1    3    3    0    0  0.15735248550E+01 -0.14447233362E+02  0.11598385602E+02  0.18593576340E+02  0.51100000000E-03 0. -1.
        -11    1    3    3    0    0 -0.74272602986E+01 -0.11008561512E+02  0.59596144004E+01  0.14555742034E+02  0.51100000000E-03 0.  1.
         12    1    3    3    0    0  0.83798845597E+00 -0.37908868830E+01  0.14113705620E+02  0.14637955265E+02  0.00000000000E+00 0. -1.
</event>
<event>
 7    1  0.2339217E-009  0.4778723E+02  0.7816164E-02  0.1312668E+00
        -11   -1    0    0    0    0  0.00000000000E+00  0.00000000000E+00  0.45593999997E+02  0.45594000000E+02  0.51100000000E-03 0.  1.
         11   -1    0    0    0    0 -0.00000000000E+00 -0.00000000000E+00 -0.45593999997E+02  0.45594000000E+02  0.51100000000E-03 0. -1.
    9900012    2    1    2    0    0 -0.38697432530E+02 -0.10827805257E+02  0.16397999567E+02  0.47787227647E+02  0.19999802131E+02 0.  0.
         12    1    1    2    0    0  0.38697432530E+02  0.10827805257E+02 -0.16397999567E+02  0.43400772353E+02  0.00000000000E+00 0. -1.
         11    1    3    3    0    0 -0.32773698201E+02 -0.88490372367E+01  0.51408107397E+01  0.34334366007E+02  0.51100000000E-03 0.  1.
        -11    1    3    3    0    0 -0.25493498655E+01  0.98497148147E+00  0.30360068871E+01  0.40849347162E+01  0.51100000000E-03 0. -1.
        -12    1    3    3    0    0 -0.33743844630E+01 -0.29637395020E+01  0.82211819406E+01  0.93679269233E+01  0.00000000000E+00 0.  1.
</event>
<event>
 7    1  0.2339217E-009  0.4778728E+02  0.7816164E-02  0.1312668E+00
        -11   -1    0    0    0    0  0.00000000000E+00  0.00000000000E+00  0.45593999997E+02  0.45594000000E+02  0.51100000000E-03 0.  1.
         11   -1    0    0    0    0 -0.00000000000E+00 -0.00000000000E+00 -0.45593999997E+02  0.45594000000E+02  0.51100000000E-03 0. -1.
    9900012    2    1    2    0    0  0.59712683532E+01  0.13941563056E+02  0.40664474416E+02  0.47787277590E+02  0.20000029844E+02 0.  0.
         12    1    1    2    0    0 -0.59712683532E+01 -0.13941563056E+02 -0.40664474416E+02  0.43400722410E+02  0.00000000000E+00 0. -1.
         11    1    3    3    0    0 -0.62472074811E+00  0.76768663090E+01  0.15682849418E+02  0.17472158380E+02  0.51100000000E-03 0. -1.
        -11    1    3    3    0    0  0.78322996046E+01  0.10307552309E+02  0.18805184837E+02  0.22830364183E+02  0.51100000000E-03 0.  1.
         12    1    3    3    0    0 -0.12363105034E+01 -0.40428555617E+01  0.61764401611E+01  0.74847550272E+01  0.00000000000E+00 0. -1.
</event>
<event>
 7    1  0.2339217E-009  0.4778727E+02  0.7816164E-02  0.1312668E+00
        -11   -1    0    0    0    0  0.00000000000E+00  0.00000000000E+00  0.45593999997E+02  0.45594000000E+02  0.51100000000E-03 0.  1.
         11   -1    0    0    0    0 -0.00000000000E+00 -0.00000000000E+00 -0.45593999997E+02  0.45594000000E+02  0.51100000000E-03 0. -1.
    9900012    2    1    2    0    0  0.38812629037E+02 -0.18788867478E+02  0.49174709728E+01  0.47787271497E+02  0.20000002063E+02 0.  0.
         12    1    1    2    0    0 -0.38812629037E+02  0.18788867478E+02 -0.49174709728E+01  0.43400728503E+02  0.00000000000E+00 0. -1.
         11    1    3    3    0    0  0.67836966765E+01  0.12808971871E+01  0.19518832469E+01  0.71741958904E+01  0.51100000000E-03 0. -1.
        -11    1    3    3    0    0  0.14154222402E+02 -0.55770861208E+01  0.78038820462E+01  0.17098142491E+02  0.51100000000E-03 0.  1.
         12    1    3    3    0    0  0.17874709958E+02 -0.14492678544E+02 -0.48382943204E+01  0.23514933115E+02  0.00000000000E+00 0. -1.
</event>
<event>
 7    1  0.2339217E-009  0.4778727E+02  0.7816164E-02  0.1312668E+00
        -11   -1    0    0    0    0  0.00000000000E+00  0.00000000000E+00  0.45593999997E+02  0.45594000000E+02  0.51100000000E-03 0. -1.
         11   -1    0    0    0    0 -0.00000000000E+00 -0.00000000000E+00 -0.45593999997E+02  0.45594000000E+02  0.51100000000E-03 0.  1.
    9900012    2    1    2    0    0  0.15740749815E+02 -0.36415751368E+02  0.17599571607E+02  0.47787273357E+02  0.20000010543E+02 0.  0.
         12    1    1    2    0    0 -0.15740749815E+02  0.36415751368E+02 -0.17599571607E+02  0.43400726643E+02  0.00000000000E+00 0. -1.
         11    1    3    3    0    0  0.21659520017E+01  0.96658926072E+00 -0.35925232280E-01  0.23721158816E+01  0.51100000000E-03 0. -1.
        -11    1    3    3    0    0  0.69515398974E+01 -0.30186600217E+02  0.87180931836E+01  0.32180116356E+02  0.51100000000E-03 0.  1.
        -12    1    3    3    0    0  0.66232579161E+01 -0.71957404108E+01  0.89174036555E+01  0.13235041120E+02  0.00000000000E+00 0.  1.
</event>
<event>
 7    1  0.2339217E-009  0.4778727E+02  0.7816164E-02  0.1312668E+00
        -11   -1    0    0    0    0  0.00000000000E+00  0.00000000000E+00  0.45593999997E+02  0.45594000000E+02  0.51100000000E-03 0.  1.
         11   -1    0    0    0    0 -0.00000000000E+00 -0.00000000000E+00 -0.45593999997E+02  0.45594000000E+02  0.51100000000E-03 0. -1.
    9900012    2    1    2    0    0  0.40398116883E+01  0.42261468533E+02  0.90150679026E+01  0.47787271316E+02  0.20000001238E+02 0.  0.
         12    1    1    2    0    0 -0.40398116883E+01 -0.42261468533E+02 -0.90150679026E+01  0.43400728684E+02  0.00000000000E+00 0. -1.
         11    1    3    3    0    0 -0.21601027455E+01  0.52256791318E+00  0.21887947216E+01  0.31192857659E+01  0.51100000000E-03 0. -1.
        -11    1    3    3    0    0 -0.38144132936E+01  0.94971827572E+01  0.31441948451E+01  0.10706642358E+02  0.51100000000E-03 0.  1.
        -12    1    3    3    0    0  0.10014327727E+02  0.32241717862E+02  0.36820783359E+01  0.33961343192E+02  0.00000000000E+00 0.  1.
</event>
<event>
 7    1  0.2339217E-009  0.4778727E+02  0.7816164E-02  0.1312668E+00
        -11   -1    0    0    0    0  0.00000000000E+00  0.00000000000E+00  0.45593999997E+02  0.45594000000E+02  0.51100000000E-03 0. -1.
         11   -1    0    0    0    0 -0.00000000000E+00 -0.00000000000E+00 -0.45593999997E+02  0.45594000000E+02  0.51100000000E-03 0.  1.
    9900012    2    1    2    0    0  0.28023308010E+02  0.58513953193E+01 -0.32620226494E+02  0.47787265034E+02  0.19999972598E+02 0.  0.
         12    1    1    2    0    0 -0.28023308010E+02 -0.58513953193E+01  0.32620226494E+02  0.43400734966E+02  0.00000000000E+00 0. -1.
         11    1    3    3    0    0  0.54889497318E+01 -0.40019930940E+01 -0.76630909202E+01  0.10240482440E+02  0.51100000000E-03 0. -1.
        -11    1    3    3    0    0 -0.18372488656E+01  0.36244186110E+00 -0.12921158599E+01  0.22751727744E+01  0.51100000000E-03 0.  1.
        -12    1    3    3    0    0  0.24371607144E+02  0.94909465522E+01 -0.23665019714E+02  0.35271609820E+02  0.00000000000E+00 0.  1.
</event>
<event>
 7    1  0.2339217E-009  0.4778727E+02  0.7816164E-02  0.1312668E+00
        -11   -1    0    0    0    0  0.00000000000E+00  0.00000000000E+00  0.45593999997E+02  0.45594000000E+02  0.51100000000E-03 0.  1.
         11   -1    0    0    0    0 -0.00000000000E+00 -0.00000000000E+00 -0.45593999997E+02  0.45594000000E+02  0.51100000000E-03 0. -1.
    9900012    2    1    2    0    0 -0.63914942553E+01 -0.16248568969E+02  0.39733569495E+02  0.47787265707E+02  0.19999975664E+02 0.  0.
         12    1    1    2    0    0  0.63914942553E+01  0.16248568969E+02 -0.39733569495E+02  0.43400734293E+02  0.00000000000E+00 0. -1.
         11    1    3    3    0    0  0.87970519083E+00  0.82655788700E+00  0.97683252009E+01  0.98426244800E+01  0.51100000000E-03 0. -1.
        -11    1    3    3    0    0  0.24360333464E+01 -0.54139287391E-01  0.39046856379E+00  0.24677227331E+01  0.51100000000E-03 0.  1.
        -12    1    3    3    0    0 -0.97072327925E+01 -0.17020987569E+02  0.29574775730E+02  0.35476918494E+02  0.00000000000E+00 0.  1.
</event>
<event>
 7    1  0.2339217E-009  0.4778727E+02  0.7816164E-02  0.1312668E+00
        -11   -1    0    0    0    0  0.00000000000E+00  0.00000000000E+00  0.45593999997E+02  0.45594000000E+02  0.51100000000E-03 0.  1.
         11   -1    0    0    0    0 -0.00000000000E+00 -0.00000000000E+00 -0.45593999997E+02  0.45594000000E+02  0.51100000000E-03 0. -1.
    9900012    2    1    2    0    0 -0.32093679374E+02  0.21935780118E+02  0.19298732290E+02  0.47787265293E+02  0.19999973776E+02 0.  0.
         12    1    1    2    0    0  0.32093679374E+02 -0.21935780118E+02 -0.19298732290E+02  0.43400734707E+02  0.00000000000E+00 0. -1.
         11    1    3    3    0    0 -0.70758825810E+01  0.47837359804E+01  0.55082385638E+01  0.10163313267E+02  0.51100000000E-03 0. -1.
        -11    1    3    3    0    0 -0.25102957917E+02  0.87239064822E+01  0.10332599200E+02  0.28513639665E+02  0.51100000000E-03 0.  1.
         12    1    3    3    0    0  0.85161123635E-01  0.84281376550E+01  0.34578945259E+01  0.91103123602E+01  0.00000000000E+00 0. -1.
</event>
<event>
 7    1  0.2339217E-009  0.4778727E+02  0.7816164E-02  0.1312668E+00
        -11   -1    0    0    0    0  0.00000000000E+00  0.00000000000E+00  0.45593999997E+02  0.45594000000E+02  0.51100000000E-03 0. -1.
         11   -1    0    0    0    0 -0.00000000000E+00 -0.00000000000E+00 -0.45593999997E+02  0.45594000000E+02  0.51100000000E-03 0.  1.
    9900012    2    1    2    0    0  0.22322129078E+02  0.28567830159E+02 -0.23858435232E+02  0.47787270763E+02  0.19999998717E+02 0.  0.
         12    1    1    2    0    0 -0.22322129078E+02 -0.28567830159E+02  0.23858435232E+02  0.43400729237E+02  0.00000000000E+00 0. -1.
         11    1    3    3    0    0 -0.16492667759E+01  0.53269821796E+01 -0.23566256390E+01  0.60539660309E+01  0.51100000000E-03 0. -1.
        -11    1    3    3    0    0  0.33071683087E+00  0.43832214885E+01 -0.68281380064E+01  0.81206818147E+01  0.51100000000E-03 0.  1.
        -12    1    3    3    0    0  0.23640679023E+02  0.18857626491E+02 -0.14673671587E+02  0.33612622917E+02  0.00000000000E+00 0.  1.
</event>
<event>
 7    1  0.2339217E-009  0.4778727E+02  0.7816164E-02  0.1312668E+00
        -11   -1    0    0    0    0  0.00000000000E+00  0.00000000000E+00  0.45593999997E+02  0.45594000000E+02  0.51100000000E-03 0.  1.
         11   -1    0    0    0    0 -0.00000000000E+00 -0.00000000000E+00 -0.45593999997E+02  0.45594000000E+02  0.51100000000E-03 0. -1.
    9900012    2    1    2    0    0  0.18902748039E+02 -0.19283900578E+02  0.33977063937E+02  0.47787267532E+02  0.19999983987E+02 0.  0.
         12    1    1    2    0    0 -0.18902748039E+02  0.19283900578E+02 -0.33977063937E+02  0.43400732468E+02  0.00000000000E+00 0. -1.
         11    1    3    3    0    0  0.24689414300E+01 -0.18405087605E+00  0.10774537411E+01  0.27000839496E+01  0.51100000000E-03 0. -1.
        -11    1    3    3    0    0  0.15051739298E+02 -0.19167328895E+02  0.34953361698E+02  0.42610783227E+02  0.51100000000E-03 0.  1.
        -12    1    3    3    0    0  0.13820673101E+01  0.67479193046E-01 -0.20537515023E+01  0.24764003562E+01  0.00000000000E+00 0.  1.
</event>
<event>
 7    1  0.2339217E-009  0.4778728E+02  0.7816164E-02  0.1312668E+00
        -11   -1    0    0    0    0  0.00000000000E+00  0.00000000000E+00  0.45593999997E+02  0.45594000000E+02  0.51100000000E-03 0.  1.
         11   -1    0    0    0    0 -0.00000000000E+00 -0.00000000000E+00 -0.45593999997E+02  0.45594000000E+02  0.51100000000E-03 0. -1.
    9900012    2    1    2    0    0  0.99949141818E+01 -0.30005035695E+02  0.29722419354E+02  0.47787277785E+02  0.20000030734E+02 0.  0.
         12    1    1    2    0    0 -0.99949141818E+01  0.30005035695E+02 -0.29722419354E+02  0.43400722215E+02  0.00000000000E+00 0. -1.
         11    1    3    3    0    0  0.40261298943E+01 -0.12818677895E+02  0.74671298302E+01  0.15371605416E+02  0.51100000000E-03 0.  1.
        -11    1    3    3    0    0 -0.25229225637E+01 -0.10417528524E+01 -0.95780691163E+00  0.28927118088E+01  0.51100000000E-03 0. -1.
         12    1    3    3    0    0  0.84917068512E+01 -0.16144604948E+02  0.23213096435E+02  0.29522960561E+02  0.00000000000E+00 0. -1.
</event>
<event>
 7    1  0.2339217E-009  0.4778727E+02  0.7816164E-02  0.1312668E+00
        -11   -1    0    0    0    0  0.00000000000E+00  0.00000000000E+00  0.45593999997E+02  0.45594000000E+02  0.51100000000E-03 0.  1.
         11   -1    0    0    0    0 -0.00000000000E+00 -0.00000000000E+00 -0.45593999997E+02  0.45594000000E+02  0.51100000000E-03 0. -1.
    9900012    2    1    2    0    0 -0.79764697441E+01 -0.37206138886E+01  0.42498893525E+02  0.47787274336E+02  0.20000015008E+02 0.  0.
         12    1    1    2    0    0  0.79764697441E+01  0.37206138886E+01 -0.42498893525E+02  0.43400725664E+02  0.00000000000E+00 0. -1.
         11    1    3    3    0    0  0.21652268813E+01  0.95356423537E+00  0.32084383973E+01  0.39864231347E+01  0.51100000000E-03 0. -1.
        -11    1    3    3    0    0 -0.76753578407E+01 -0.34617206053E+01  0.40069281264E+02  0.40944376033E+02  0.51100000000E-03 0.  1.
         12    1    3    3    0    0 -0.24663387847E+01 -0.12124575187E+01 -0.77882613565E+00  0.28564751680E+01  0.00000000000E+00 0. -1.
</event>
<event>
 7    1  0.2339217E-009  0.4778727E+02  0.7816164E-02  0.1312668E+00
        -11   -1    0    0    0    0  0.00000000000E+00  0.00000000000E+00  0.45593999997E+02  0.45594000000E+02  0.51100000000E-03 0.  1.
         11   -1    0    0    0    0 -0.00000000000E+00 -0.00000000000E+00 -0.45593999997E+02  0.45594000000E+02  0.51100000000E-03 0. -1.
    9900012    2    1    2    0    0 -0.18760040778E+02 -0.11439452333E+02  0.37427572660E+02  0.47787269650E+02  0.19999993642E+02 0.  0.
         12    1    1    2    0    0  0.18760040778E+02  0.11439452333E+02 -0.37427572660E+02  0.43400730350E+02  0.00000000000E+00 0. -1.
         11    1    3    3    0    0  0.21479147976E+01 -0.62756147308E+01  0.84553946379E+01  0.10746654222E+02  0.51100000000E-03 0. -1.
        -11    1    3    3    0    0 -0.10741804792E+02 -0.47085574446E+01  0.21228741486E+02  0.24253171932E+02  0.51100000000E-03 0.  1.
        -12    1    3    3    0    0 -0.10166150784E+02 -0.45528015765E+00  0.77434365363E+01  0.12787443496E+02  0.00000000000E+00 0.  1.
</event>
<event>
 7    1  0.2339217E-009  0.4778726E+02  0.7816164E-02  0.1312668E+00
        -11   -1    0    0    0    0  0.00000000000E+00  0.00000000000E+00  0.45593999997E+02  0.45594000000E+02  0.51100000000E-03 0. -1.
         11   -1    0    0    0    0 -0.00000000000E+00 -0.00000000000E+00 -0.45593999997E+02  0.45594000000E+02  0.51100000000E-03 0.  1.
    9900012    2    1    2    0    0 -0.29099957898E+02  0.31907412453E+02 -0.43282732796E+01  0.47787257280E+02  0.19999937243E+02 0.  0.
         12    1    1    2    0    0  0.29099957898E+02 -0.31907412453E+02  0.43282732796E+01  0.43400742720E+02  0.00000000000E+00 0. -1.
         11    1    3    3    0    0 -0.48371120477E+01  0.40679865025E+01  0.11415656468E+01  0.64225648719E+01  0.51100000000E-03 0. -1.
        -11    1    3    3    0    0 -0.20392460714E+02  0.26553842710E+02 -0.10313033430E+02  0.35033094003E+02  0.51100000000E-03 0.  1.
        -12    1    3    3    0    0 -0.38703851357E+01  0.12855832403E+01  0.48431945035E+01  0.63315984053E+01  0.00000000000E+00 0.  1.
</event>
<event>
 7    1  0.2339217E-009  0.4778728E+02  0.7816164E-02  0.1312668E+00
        -11   -1    0    0    0    0  0.00000000000E+00  0.00000000000E+00  0.45593999997E+02  0.45594000000E+02  0.51100000000E-03 0.  1.
         11   -1    0    0    0    0 -0.00000000000E+00 -0.00000000000E+00 -0.45593999997E+02  0.45594000000E+02  0.51100000000E-03 0. -1.
    9900012    2    1    2    0    0  0.38165987878E+01  0.42675819047E+02 -0.69159757399E+01  0.47787277909E+02  0.20000031297E+02 0.  0.
         12    1    1    2    0    0 -0.38165987878E+01 -0.42675819047E+02  0.69159757399E+01  0.43400722091E+02  0.00000000000E+00 0. -1.
         11    1    3    3    0    0 -0.15763588658E+01  0.67665722628E+01 -0.29893998960E+01  0.75635917038E+01  0.51100000000E-03 0. -1.
        -11    1    3    3    0    0  0.10779948131E+02  0.17433189448E+02 -0.44365398784E+01  0.20971558416E+02  0.51100000000E-03 0.  1.
        -12    1    3    3    0    0 -0.53869904779E+01  0.18476057336E+02  0.50996403449E+00  0.19252127789E+02  0.00000000000E+00 0.  1.
</event>
<event>
 7    1  0.2339217E-009  0.4778727E+02  0.7816164E-02  0.1312668E+00
        -11   -1    0    0    0    0  0.00000000000E+00  0.00000000000E+00  0.45593999997E+02  0.45594000000E+02  0.51100000000E-03 0.  1.
         11   -1    0    0    0    0 -0.00000000000E+00 -0.00000000000E+00 -0.45593999997E+02  0.45594000000E+02  0.51100000000E-03 0. -1.
    9900012    2    1    2    0    0  0.10660910494E+02 -0.70921269249E+00  0.42065009549E+02  0.47787273928E+02  0.20000013148E+02 0.  0.
         12    1    1    2    0    0 -0.10660910494E+02  0.70921269249E+00 -0.42065009549E+02  0.43400726072E+02  0.00000000000E+00 0. -1.
         11    1    3    3    0    0  0.10258711131E+02  0.56457900905E+01  0.16625950358E+02  0.20335641750E+02  0.51100000000E-03 0. -1.
        -11    1    3    3    0    0  0.41551775851E+01 -0.28058125704E+01  0.10297300983E+02  0.11453056043E+02  0.51100000000E-03 0.  1.
        -12    1    3    3    0    0 -0.37529782221E+01 -0.35491902126E+01  0.15141758208E+02  0.15998576134E+02  0.00000000000E+00 0.  1.
</event>
<event>
 7    1  0.2339217E-009  0.4778727E+02  0.7816164E-02  0.1312668E+00
        -11   -1    0    0    0    0  0.00000000000E+00  0.00000000000E+00  0.45593999997E+02  0.45594000000E+02  0.51100000000E-03 0.  1.
         11   -1    0    0    0    0 -0.00000000000E+00 -0.00000000000E+00 -0.45593999997E+02  0.45594000000E+02  0.51100000000E-03 0. -1.
    9900012    2    1    2    0    0  0.40130657223E+02  0.99365672703E+01  0.13206748631E+02  0.47787271577E+02  0.20000002426E+02 0.  0.
         12    1    1    2    0    0 -0.40130657223E+02 -0.99365672703E+01 -0.13206748631E+02  0.43400728423E+02  0.00000000000E+00 0. -1.
         11    1    3    3    0    0  0.51871183413E+01  0.56213763149E+01  0.10959992228E+01  0.77270487845E+01  0.51100000000E-03 0. -1.
        -11    1    3    3    0    0  0.90773088817E+01  0.73213005616E+01  0.86046343706E+00  0.11693561307E+02  0.51100000000E-03 0.  1.
         12    1    3    3    0    0  0.25866230000E+02 -0.30061096062E+01  0.11250285971E+02  0.28366661485E+02  0.00000000000E+00 0. -1.
</event>
<event>
 7    1  0.2339217E-009  0.4778726E+02  0.7816164E-02  0.1312668E+00
        -11   -1    0    0    0    0  0.00000000000E+00  0.00000000000E+00  0.45593999997E+02  0.45594000000E+02  0.51100000000E-03 0. -1.
         11   -1    0    0    0    0 -0.00000000000E+00 -0.00000000000E+00 -0.45593999997E+02  0.45594000000E+02  0.51100000000E-03 0.  1.
    9900012    2    1    2    0    0  0.26983584019E+02  0.23958397007E+02 -0.24114427608E+02  0.47787260231E+02  0.19999950696E+02 0.  0.
         12    1    1    2    0    0 -0.26983584019E+02 -0.23958397007E+02  0.24114427608E+02  0.43400739769E+02  0.00000000000E+00 0. -1.
         11    1    3    3    0    0  0.12778595012E+02 -0.47895496479E+00 -0.78653443879E+01  0.15012845531E+02  0.51100000000E-03 0. -1.
        -11    1    3    3    0    0  0.57565826374E+01  0.74924908638E+01 -0.42669697061E+01  0.10367386061E+02  0.51100000000E-03 0.  1.
         12    1    3    3    0    0  0.84484063700E+01  0.16944861108E+02 -0.11982113514E+02  0.22407028639E+02  0.00000000000E+00 0. -1.
</event>
<event>
 7    1  0.2339217E-009  0.4778726E+02  0.7816164E-02  0.1312668E+00
        -11   -1    0    0    0    0  0.00000000000E+00  0.00000000000E+00  0.45593999997E+02  0.45594000000E+02  0.51100000000E-03 0. -1.
         11   -1    0    0    0    0 -0.00000000000E+00 -0.00000000000E+00 -0.45593999997E+02  0.45594000000E+02  0.51100000000E-03 0.  1.
    9900012    2    1    2    0    0  0.10907529890E+02  0.21310323914E+02 -0.36201103787E+02  0.47787262345E+02  0.19999960335E+02 0.  0.
         12    1    1    2    0    0 -0.10907529890E+02 -0.21310323914E+02  0.36201103787E+02  0.43400737655E+02  0.00000000000E+00 0. -1.
         11    1    3    3    0    0  0.22728842996E+01 -0.24546288718E+01 -0.52390152877E+01  0.62159864369E+01  0.51100000000E-03 0. -1.
        -11    1    3    3    0    0  0.74465668819E+01  0.54521989079E+01 -0.12523463871E+02  0.15556830617E+02  0.51100000000E-03 0.  1.
        -12    1    3    3    0    0  0.11880787084E+01  0.18312753878E+02 -0.18438624629E+02  0.26014445291E+02  0.00000000000E+00 0.  1.
</event>
<event>
 7    1  0.2339217E-009  0.4778725E+02  0.7816164E-02  0.1312668E+00
        -11   -1    0    0    0    0  0.00000000000E+00  0.00000000000E+00  0.45593999997E+02  0.45594000000E+02  0.51100000000E-03 0.  1.
         11   -1    0    0    0    0 -0.00000000000E+00 -0.00000000000E+00 -0.45593999997E+02  0.45594000000E+02  0.51100000000E-03 0. -1.
    9900012    2    1    2    0    0  0.68028801077E-01 -0.12676846133E+02  0.41508051150E+02  0.47787246941E+02  0.19999890101E+02 0.  0.
         12    1    1    2    0    0 -0.68028801077E-01  0.12676846133E+02 -0.41508051150E+02  0.43400753059E+02  0.00000000000E+00 0. -1.
         11    1    3    3    0    0 -0.19523229653E+01 -0.20571256223E+01  0.11557104495E+01  0.30625149291E+01  0.51100000000E-03 0. -1.
        -11    1    3    3    0    0  0.73781112329E+01 -0.11171198327E+02  0.23661422258E+02  0.27186303555E+02  0.51100000000E-03 0.  1.
        -12    1    3    3    0    0 -0.53577594665E+01  0.55147781556E+00  0.16690918443E+02  0.17538428457E+02  0.00000000000E+00 0.  1.
</event>
<event>
 7    1  0.2339217E-009  0.4778727E+02  0.7816164E-02  0.1312668E+00
        -11   -1    0    0    0    0  0.00000000000E+00  0.00000000000E+00  0.45593999997E+02  0.45594000000E+02  0.51100000000E-03 0.  1.
         11   -1    0    0    0    0 -0.00000000000E+00 -0.00000000000E+00 -0.45593999997E+02  0.45594000000E+02  0.51100000000E-03 0. -1.
    9900012    2    1    2    0    0 -0.18534808305E+02 -0.11526252649E+02  0.37513058114E+02  0.47787272493E+02  0.20000006605E+02 0.  0.
         12    1    1    2    0    0  0.18534808305E+02  0.11526252649E+02 -0.37513058114E+02  0.43400727507E+02  0.00000000000E+00 0. -1.
         11    1    3    3    0    0 -0.26469251932E+01  0.12738154558E+01  0.14973736043E+02  0.15259147753E+02  0.51100000000E-03 0. -1.
        -11    1    3    3    0    0  0.77628538319E+00  0.10595598147E+01  0.80101866880E-01  0.13159417036E+01  0.51100000000E-03 0.  1.
         12    1    3    3    0    0 -0.16664168495E+02 -0.13859627920E+02  0.22459220204E+02  0.31212183036E+02  0.00000000000E+00 0. -1.
</event>
<event>
 7    1  0.2339217E-009  0.4778727E+02  0.7816164E-02  0.1312668E+00
        -11   -1    0    0    0    0  0.00000000000E+00  0.00000000000E+00  0.45593999997E+02  0.45594000000E+02  0.51100000000E-03 0. -1.
         11   -1    0    0    0    0 -0.00000000000E+00 -0.00000000000E+00 -0.45593999997E+02  0.45594000000E+02  0.51100000000E-03 0.  1.
    9900012    2    1    2    0    0 -0.17704920041E+02  0.13441183348E+02 -0.37275911306E+02  0.47787272274E+02  0.20000005606E+02 0.  0.
         12    1    1    2    0    0  0.17704920041E+02 -0.13441183348E+02  0.37275911306E+02  0.43400727726E+02  0.00000000000E+00 0. -1.
         11    1    3    3    0    0 -0.62679135141E+01 -0.80736452422E+00 -0.11778269717E+02  0.13366608211E+02  0.51100000000E-03 0. -1.
        -11    1    3    3    0    0 -0.73718872751E+01  0.44591543755E+00 -0.14631736798E+02  0.16389975124E+02  0.51100000000E-03 0.  1.
        -12    1    3    3    0    0 -0.40651192518E+01  0.13802632435E+02 -0.10865904791E+02  0.18030688939E+02  0.00000000000E+00 0.  1.
</event>
<event>
 7    1  0.2339217E-009  0.4778727E+02  0.7816164E-02  0.1312668E+00
        -11   -1    0    0    0    0  0.00000000000E+00  0.00000000000E+00  0.45593999997E+02  0.45594000000E+02  0.51100000000E-03 0.  1.
         11   -1    0    0    0    0 -0.00000000000E+00 -0.00000000000E+00 -0.45593999997E+02  0.45594000000E+02  0.51100000000E-03 0. -1.
    9900012    2    1    2    0    0 -0.77115242345E+01 -0.20545675144E+02  0.37443702508E+02  0.47787271542E+02  0.20000002270E+02 0.  0.
         12    1    1    2    0    0  0.77115242345E+01  0.20545675144E+02 -0.37443702508E+02  0.43400728458E+02  0.00000000000E+00 0. -1.
         11    1    3    3    0    0 -0.69810798700E+01 -0.37622887690E+01  0.86821106197E+01  0.11758798323E+02  0.51100000000E-03 0. -1.
        -11    1    3    3    0    0 -0.61390906310E+01 -0.13572141409E+02  0.16377598216E+02  0.22138590285E+02  0.51100000000E-03 0.  1.
         12    1    3    3    0    0  0.54086462664E+01 -0.32112449664E+01  0.12383993672E+02  0.13889882934E+02  0.00000000000E+00 0. -1.
</event>
<event>
 7    1  0.2339217E-009  0.4778727E+02  0.7816164E-02  0.1312668E+00
        -11   -1    0    0    0    0  0.00000000000E+00  0.00000000000E+00  0.45593999997E+02  0.45594000000E+02  0.51100000000E-03 0.  1.
         11   -1    0    0    0    0 -0.00000000000E+00 -0.00000000000E+00 -0.45593999997E+02  0.45594000000E+02  0.51100000000E-03 0. -1.
    9900012    2    1    2    0    0 -0.74367036257E+01  0.35258804053E+02 -0.24189579985E+02  0.47787267243E+02  0.19999982666E+02 0.  0.
         12    1    1    2    0    0  0.74367036257E+01 -0.35258804053E+02  0.24189579985E+02  0.43400732757E+02  0.00000000000E+00 0. -1.
         11    1    3    3    0    0 -0.68148929878E+01  0.58945993774E+01 -0.10682965519E+02  0.13975507890E+02  0.51100000000E-03 0. -1.
        -11    1    3    3    0    0 -0.30642311735E+01  0.19452716487E+02 -0.12989308077E+02  0.23590672224E+02  0.51100000000E-03 0.  1.
         12    1    3    3    0    0  0.24424205356E+01  0.99114881883E+01 -0.51730638908E+00  0.10221087128E+02  0.00000000000E+00 0. -1.
</event>
<event>
 7    1  0.2339217E-009  0.4778727E+02  0.7816164E-02  0.1312668E+00
        -11   -1    0    0    0    0  0.00000000000E+00  0.00000000000E+00  0.45593999997E+02  0.45594000000E+02  0.51100000000E-03 0. -1.
         11   -1    0    0    0    0 -0.00000000000E+00 -0.00000000000E+00 -0.45593999997E+02  0.45594000000E+02  0.51100000000E-03 0.  1.
    9900012    2    1    2    0    0 -0.35869167558E+02  0.22844664527E+02 -0.86687518591E+01  0.47787272616E+02  0.20000007166E+02 0.  0.
         12    1    1    2    0    0  0.35869167558E+02 -0.22844664527E+02  0.86687518591E+01  0.43400727384E+02  0.00000000000E+00 0. -1.
         11    1    3    3    0    0  0.23537816686E+01  0.58544024835E+00  0.62955374356E+00  0.25058664380E+01  0.51100000000E-03 0. -1.
        -11    1    3    3    0    0 -0.59827186365E+01  0.38256156758E+01 -0.52158215861E+00  0.71204147205E+01  0.51100000000E-03 0.  1.
         12    1    3    3    0    0 -0.32240230590E+02  0.18433608603E+02 -0.87767234440E+01  0.38160991458E+02  0.00000000000E+00 0. -1.
</event>
<event>
 7    1  0.2339217E-009  0.4778727E+02  0.7816164E-02  0.1312668E+00
        -11   -1    0    0    0    0  0.00000000000E+00  0.00000000000E+00  0.45593999997E+02  0.45594000000E+02  0.51100000000E-03 0. -1.
         11   -1    0    0    0    0 -0.00000000000E+00 -0.00000000000E+00 -0.45593999997E+02  0.45594000000E+02  0.51100000000E-03 0.  1.
    9900012    2    1    2    0    0  0.10909575959E+02  0.41884273403E+02 -0.32112466175E+01  0.47787270617E+02  0.19999998052E+02 0.  0.
         12    1    1    2    0    0 -0.10909575959E+02 -0.41884273403E+02  0.32112466175E+01  0.43400729383E+02  0.00000000000E+00 0. -1.
         11    1    3    3    0    0  0.41117561082E+01  0.63523429469E+01 -0.41057095204E+01  0.86090446703E+01  0.51100000000E-03 0. -1.
        -11    1    3    3    0    0  0.10070314975E+02  0.16942193654E+02 -0.29108022839E+01  0.19922899882E+02  0.51100000000E-03 0.  1.
         12    1    3    3    0    0 -0.32724951250E+01  0.18589736803E+02  0.38052651868E+01  0.19255326065E+02  0.00000000000E+00 0. -1.
</event>
<event>
 7    1  0.2339217E-009  0.4778727E+02  0.7816164E-02  0.1312668E+00
        -11   -1    0    0    0    0  0.00000000000E+00  0.00000000000E+00  0.45593999997E+02  0.45594000000E+02  0.51100000000E-03 0. -1.
         11   -1    0    0    0    0 -0.00000000000E+00 -0.00000000000E+00 -0.45593999997E+02  0.45594000000E+02  0.51100000000E-03 0.  1.
    9900012    2    1    2    0    0  0.49844997940E+01  0.32355235162E+02 -0.28494151717E+02  0.47787272326E+02  0.20000005843E+02 0.  0.
         12    1    1    2    0    0 -0.49844997940E+01 -0.32355235162E+02  0.28494151717E+02  0.43400727674E+02  0.00000000000E+00 0. -1.
         11    1    3    3    0    0  0.18271934641E+01  0.20259059899E+01 -0.57707051374E+00  0.27885375511E+01  0.51100000000E-03 0. -1.
        -11    1    3    3    0    0  0.32978242152E+01  0.24405539699E+02 -0.29912658970E+02  0.38746266652E+02  0.51100000000E-03 0.  1.
        -12    1    3    3    0    0 -0.14051788531E+00  0.59237894730E+01  0.19955777672E+01  0.62524681224E+01  0.00000000000E+00 0.  1.
</event>
<event>
 7    1  0.2339217E-009  0.4778727E+02  0.7816164E-02  0.1312668E+00
        -11   -1    0    0    0    0  0.00000000000E+00  0.00000000000E+00  0.45593999997E+02  0.45594000000E+02  0.51100000000E-03 0.  1.
         11   -1    0    0    0    0 -0.00000000000E+00 -0.00000000000E+00 -0.45593999997E+02  0.45594000000E+02  0.51100000000E-03 0. -1.
    9900012    2    1    2    0    0  0.21046201875E+02 -0.32559784004E+02  0.19507461811E+02  0.47787271734E+02  0.20000003143E+02 0.  0.
         12    1    1    2    0    0 -0.21046201875E+02  0.32559784004E+02 -0.19507461811E+02  0.43400728266E+02  0.00000000000E+00 0. -1.
         11    1    3    3    0    0  0.48727910140E+01 -0.96492200077E+01  0.12385582804E+02  0.16439409986E+02  0.51100000000E-03 0. -1.
        -11    1    3    3    0    0  0.95649661552E+01 -0.90458957235E+01  0.88927826756E+01  0.15887051047E+02  0.51100000000E-03 0.  1.
         12    1    3    3    0    0  0.66084447061E+01 -0.13864668272E+02 -0.17709036689E+01  0.15460810701E+02  0.00000000000E+00 0. -1.
</event>
<event>
 7    1  0.2339217E-009  0.4778727E+02  0.7816164E-02  0.1312668E+00
        -11   -1    0    0    0    0  0.00000000000E+00  0.00000000000E+00  0.45593999997E+02  0.45594000000E+02  0.51100000000E-03 0.  1.
         11   -1    0    0    0    0 -0.00000000000E+00 -0.00000000000E+00 -0.45593999997E+02  0.45594000000E+02  0.51100000000E-03 0. -1.
    9900012    2    1    2    0    0  0.90473583021E+01  0.15104088604E+02  0.39669069396E+02  0.47787271302E+02  0.20000001174E+02 0.  0.
         12    1    1    2    0    0 -0.90473583021E+01 -0.15104088604E+02 -0.39669069396E+02  0.43400728698E+02  0.00000000000E+00 0. -1.
         11    1    3    3    0    0  0.45227513079E+01  0.31542918773E+01  0.21869581547E+02  0.22554011482E+02  0.51100000000E-03 0. -1.
        -11    1    3    3    0    0 -0.24789739829E+01  0.50859746326E+00  0.86068391711E+01  0.89711573482E+01  0.51100000000E-03 0.  1.
         12    1    3    3    0    0  0.70035809771E+01  0.11441199263E+02  0.91926486775E+01  0.16262102471E+02  0.00000000000E+00 0. -1.
</event>
<event>
 7    1  0.2339217E-009  0.4778727E+02  0.7816164E-02  0.1312668E+00
        -11   -1    0    0    0    0  0.00000000000E+00  0.00000000000E+00  0.45593999997E+02  0.45594000000E+02  0.51100000000E-03 0.  1.
         11   -1    0    0    0    0 -0.00000000000E+00 -0.00000000000E+00 -0.45593999997E+02  0.45594000000E+02  0.51100000000E-03 0. -1.
    9900012    2    1    2    0    0  0.27499344241E+02 -0.16770027403E+02  0.29089098746E+02  0.47787269377E+02  0.19999992396E+02 0.  0.
         12    1    1    2    0    0 -0.27499344241E+02  0.16770027403E+02 -0.29089098746E+02  0.43400730623E+02  0.00000000000E+00 0. -1.
         11    1    3    3    0    0  0.87330505215E+01 -0.96997699000E+01  0.39700299242E+01  0.13642318182E+02  0.51100000000E-03 0. -1.
        -11    1    3    3    0    0  0.13403995099E+02 -0.90867904446E+01  0.13095044544E+02  0.20825874221E+02  0.51100000000E-03 0.  1.
         12    1    3    3    0    0  0.53622986202E+01  0.20165329412E+01  0.12024024278E+02  0.13319076974E+02  0.00000000000E+00 0. -1.
</event>
<event>
 7    1  0.2339217E-009  0.4778727E+02  0.7816164E-02  0.1312668E+00
        -11   -1    0    0    0    0  0.00000000000E+00  0.00000000000E+00  0.45593999997E+02  0.45594000000E+02  0.51100000000E-03 0. -1.
         11   -1    0    0    0    0 -0.00000000000E+00 -0.00000000000E+00 -0.45593999997E+02  0.45594000000E+02  0.51100000000E-03 0.  1.
    9900012    2    1    2    0    0  0.34017704755E+02  0.10860389074E+02 -0.24667202503E+02  0.47787272277E+02  0.20000005617E+02 0.  0.
         12    1    1    2    0    0 -0.34017704755E+02 -0.10860389074E+02  0.24667202503E+02  0.43400727723E+02  0.00000000000E+00 0. -1.
         11    1    3    3    0    0  0.11260634791E+02 -0.67925004468E-01 -0.64602268202E+01  0.12982335711E+02  0.51100000000E-03 0. -1.
        -11    1    3    3    0    0  0.21632881072E+02  0.14417551731E+02 -0.15961931835E+02  0.30506238862E+02  0.51100000000E-03 0.  1.
        -12    1    3    3    0    0  0.11241888924E+01 -0.34892376524E+01 -0.22450438479E+01  0.42986977028E+01  0.00000000000E+00 0.  1.
</event>
<event>
 7    1  0.2339217E-009  0.4778727E+02  0.7816164E-02  0.1312668E+00
        -11   -1    0    0    0    0  0.00000000000E+00  0.00000000000E+00  0.45593999997E+02  0.45594000000E+02  0.51100000000E-03 0.  1.
         11   -1    0    0    0    0 -0.00000000000E+00 -0.00000000000E+00 -0.45593999997E+02  0.45594000000E+02  0.51100000000E-03 0. -1.
    9900012    2    1    2    0    0 -0.70049905472E+01 -0.24388594149E+02  0.35210081279E+02  0.47787271425E+02  0.20000001737E+02 0.  0.
         12    1    1    2    0    0  0.70049905472E+01  0.24388594149E+02 -0.35210081279E+02  0.43400728575E+02  0.00000000000E+00 0. -1.
         11    1    3    3    0    0  0.69606892067E+00 -0.43001562121E+01  0.64193403542E+01  0.77578209721E+01  0.51100000000E-03 0. -1.
        -11    1    3    3    0    0  0.28491193641E+01  0.11792316531E+01  0.54429112269E+00  0.31311853234E+01  0.51100000000E-03 0.  1.
        -12    1    3    3    0    0 -0.10550178832E+02 -0.21267669590E+02  0.28246449802E+02  0.36898265130E+02  0.00000000000E+00 0.  1.
</event>
<event>
 7    1  0.2339217E-009  0.4778727E+02  0.7816164E-02  0.1312668E+00
        -11   -1    0    0    0    0  0.00000000000E+00  0.00000000000E+00  0.45593999997E+02  0.45594000000E+02  0.51100000000E-03 0. -1.
         11   -1    0    0    0    0 -0.00000000000E+00 -0.00000000000E+00 -0.45593999997E+02  0.45594000000E+02  0.51100000000E-03 0.  1.
    9900012    2    1    2    0    0  0.91627556080E+01 -0.35600123780E+00 -0.42420993425E+02  0.47787268320E+02  0.19999987576E+02 0.  0.
         12    1    1    2    0    0 -0.91627556080E+01  0.35600123780E+00  0.42420993425E+02  0.43400731680E+02  0.00000000000E+00 0. -1.
         11    1    3    3    0    0  0.43038968450E+01 -0.19573795373E+01 -0.73729424869E+01  0.87587181643E+01  0.51100000000E-03 0. -1.
        -11    1    3    3    0    0  0.31901785579E+01 -0.56660810508E+01 -0.28079676394E+02  0.28822733048E+02  0.51100000000E-03 0.  1.
         12    1    3    3    0    0  0.16686802051E+01  0.72674593503E+01 -0.69683745441E+01  0.10205817107E+02  0.00000000000E+00 0. -1.
</event>
<event>
 7    1  0.2339217E-009  0.4778727E+02  0.7816164E-02  0.1312668E+00
        -11   -1    0    0    0    0  0.00000000000E+00  0.00000000000E+00  0.45593999997E+02  0.45594000000E+02  0.51100000000E-03 0.  1.
         11   -1    0    0    0    0 -0.00000000000E+00 -0.00000000000E+00 -0.45593999997E+02  0.45594000000E+02  0.51100000000E-03 0. -1.
    9900012    2    1    2    0    0 -0.21733460426E+02  0.10398674329E+02  0.36099132784E+02  0.47787272844E+02  0.20000008206E+02 0.  0.
         12    1    1    2    0    0  0.21733460426E+02 -0.10398674329E+02 -0.36099132784E+02  0.43400727156E+02  0.00000000000E+00 0. -1.
         11    1    3    3    0    0  0.58289849206E+00  0.34813689076E+01  0.45037889359E+01  0.57222211739E+01  0.51100000000E-03 0. -1.
        -11    1    3    3    0    0 -0.27924321885E+01 -0.35014454436E+01  0.10824424513E+02  0.11714348638E+02  0.51100000000E-03 0.  1.
        -12    1    3    3    0    0 -0.19523926730E+02  0.10418750865E+02  0.20770919335E+02  0.30350703032E+02  0.00000000000E+00 0.  1.
</event>
<event>
 7    1  0.2339217E-009  0.4778727E+02  0.7816164E-02  0.1312668E+00
        -11   -1    0    0    0    0  0.00000000000E+00  0.00000000000E+00  0.45593999997E+02  0.45594000000E+02  0.51100000000E-03 0. -1.
         11   -1    0    0    0    0 -0.00000000000E+00 -0.00000000000E+00 -0.45593999997E+02  0.45594000000E+02  0.51100000000E-03 0.  1.
    9900012    2    1    2    0    0 -0.21995306074E+02  0.32525961186E+02 -0.18490317630E+02  0.47787268596E+02  0.19999988836E+02 0.  0.
         12    1    1    2    0    0  0.21995306074E+02 -0.32525961186E+02  0.18490317630E+02  0.43400731404E+02  0.00000000000E+00 0. -1.
         11    1    3    3    0    0  0.15144209731E+01  0.23876552405E+00 -0.92400122394E+00  0.17900442403E+01  0.51100000000E-03 0. -1.
        -11    1    3    3    0    0 -0.13215219295E+02  0.70362699836E+01 -0.87375780331E+01  0.17334831595E+02  0.51100000000E-03 0.  1.
        -12    1    3    3    0    0 -0.10294507752E+02  0.25250925679E+02 -0.88287383728E+01  0.28662392760E+02  0.00000000000E+00 0.  1.
</event>
<event>
 7    1  0.2339217E-009  0.4778727E+02  0.7816164E-02  0.1312668E+00
        -11   -1    0    0    0    0  0.00000000000E+00  0.00000000000E+00  0.45593999997E+02  0.45594000000E+02  0.51100000000E-03 0.  1.
         11   -1    0    0    0    0 -0.00000000000E+00 -0.00000000000E+00 -0.45593999997E+02  0.45594000000E+02  0.51100000000E-03 0. -1.
    9900012    2    1    2    0    0  0.47276631182E+01 -0.20645602537E+02 -0.37881808646E+02  0.47787272714E+02  0.20000007614E+02 0.  0.
         12    1    1    2    0    0 -0.47276631182E+01  0.20645602537E+02  0.37881808646E+02  0.43400727286E+02  0.00000000000E+00 0. -1.
         11    1    3    3    0    0  0.94136439220E+00 -0.19618354977E+01  0.67890832261E+00  0.22794477864E+01  0.51100000000E-03 0. -1.
        -11    1    3    3    0    0 -0.54331001368E+01 -0.10464148497E+02 -0.17804293790E+02  0.21354387336E+02  0.51100000000E-03 0.  1.
         12    1    3    3    0    0  0.92193988628E+01 -0.82196185418E+01 -0.20756423179E+02  0.24153437592E+02  0.00000000000E+00 0. -1.
</event>
<event>
 7    1  0.2339217E-009  0.4778727E+02  0.7816164E-02  0.1312668E+00
        -11   -1    0    0    0    0  0.00000000000E+00  0.00000000000E+00  0.45593999997E+02  0.45594000000E+02  0.51100000000E-03 0. -1.
         11   -1    0    0    0    0 -0.00000000000E+00 -0.00000000000E+00 -0.45593999997E+02  0.45594000000E+02  0.51100000000E-03 0.  1.
    9900012    2    1    2    0    0 -0.34463081708E+02 -0.24103610097E+02 -0.10720783959E+02  0.47787271559E+02  0.20000002346E+02 0.  0.
         12    1    1    2    0    0  0.34463081708E+02  0.24103610097E+02  0.10720783959E+02  0.43400728441E+02  0.00000000000E+00 0. -1.
         11    1    3    3    0    0  0.16545204375E+01 -0.37122049279E+00  0.19033205541E+01  0.25490923729E+01  0.51100000000E-03 0. -1.
        -11    1    3    3    0    0 -0.59374355949E+01 -0.57213202000E+01 -0.15589063378E+01  0.83914739770E+01  0.51100000000E-03 0.  1.
         12    1    3    3    0    0 -0.30180166551E+02 -0.18011069404E+02 -0.11065198175E+02  0.36846705209E+02  0.00000000000E+00 0. -1.
</event>
<event>
 7    1  0.2339217E-009  0.4778727E+02  0.7816164E-02  0.1312668E+00
        -11   -1    0    0    0    0  0.00000000000E+00  0.00000000000E+00  0.45593999997E+02  0.45594000000E+02  0.51100000000E-03 0.  1.
         11   -1    0    0    0    0 -0.00000000000E+00 -0.00000000000E+00 -0.45593999997E+02  0.45594000000E+02  0.51100000000E-03 0. -1.
    9900012    2    1    2    0    0 -0.33681766873E+02 -0.27198018776E+02  0.30707868433E+01  0.47787269858E+02  0.19999994590E+02 0.  0.
         12    1    1    2    0    0  0.33681766873E+02  0.27198018776E+02 -0.30707868433E+01  0.43400730142E+02  0.00000000000E+00 0. -1.
         11    1    3    3    0    0 -0.97779906826E+01 -0.12984736128E+02  0.33481031319E+01  0.16595850956E+02  0.51100000000E-03 0.  1.
        -11    1    3    3    0    0 -0.18306348129E+02 -0.16759804792E+02  0.12638248990E+01  0.24851774426E+02  0.51100000000E-03 0. -1.
         12    1    3    3    0    0 -0.55974280610E+01  0.25465221433E+01 -0.15411411876E+01  0.63396444762E+01  0.00000000000E+00 0. -1.
</event>
<event>
 7    1  0.2339217E-009  0.4778729E+02  0.7816164E-02  0.1312668E+00
        -11   -1    0    0    0    0  0.00000000000E+00  0.00000000000E+00  0.45593999997E+02  0.45594000000E+02  0.51100000000E-03 0. -1.
         11   -1    0    0    0    0 -0.00000000000E+00 -0.00000000000E+00 -0.45593999997E+02  0.45594000000E+02  0.51100000000E-03 0.  1.
    9900012    2    1    2    0    0  0.16052796984E+01  0.90986068204E+01 -0.42405894271E+02  0.47787292196E+02  0.20000096437E+02 0.  0.
         12    1    1    2    0    0 -0.16052796984E+01 -0.90986068204E+01  0.42405894271E+02  0.43400707804E+02  0.00000000000E+00 0. -1.
         11    1    3    3    0    0 -0.38789847384E+01 -0.30440900162E+01 -0.18012061573E+02  0.18674778954E+02  0.51100000000E-03 0. -1.
        -11    1    3    3    0    0 -0.21140783941E+01  0.51307146776E+01 -0.86780456732E+01  0.10300584329E+02  0.51100000000E-03 0.  1.
         12    1    3    3    0    0  0.75983428309E+01  0.70119821590E+01 -0.15715787025E+02  0.18811928912E+02  0.00000000000E+00 0. -1.
</event>
<event>
 7    1  0.2339217E-009  0.4778727E+02  0.7816164E-02  0.1312668E+00
        -11   -1    0    0    0    0  0.00000000000E+00  0.00000000000E+00  0.45593999997E+02  0.45594000000E+02  0.51100000000E-03 0.  1.
         11   -1    0    0    0    0 -0.00000000000E+00 -0.00000000000E+00 -0.45593999997E+02  0.45594000000E+02  0.51100000000E-03 0. -1.
    9900012    2    1    2    0    0 -0.82298393120E+01  0.17345948661E+02  0.38923144653E+02  0.47787269825E+02  0.19999994440E+02 0.  0.
         12    1    1    2    0    0  0.82298393120E+01 -0.17345948661E+02 -0.38923144653E+02  0.43400730175E+02  0.00000000000E+00 0. -1.
         11    1    3    3    0    0 -0.20821929724E+01  0.91004469267E+01  0.18611514715E+02  0.20821674815E+02  0.51100000000E-03 0. -1.
        -11    1    3    3    0    0  0.28832785163E+01  0.60965218965E+01  0.14557635686E+02  0.16043865845E+02  0.51100000000E-03 0.  1.
         12    1    3    3    0    0 -0.90309248559E+01  0.21489798375E+01  0.57539942517E+01  0.10921729165E+02  0.00000000000E+00 0. -1.
</event>
<event>
 7    1  0.2681681E-009  0.4778727E+02  0.7816164E-02  0.1312668E+00
        -11   -1    0    0    0    0  0.00000000000E+00  0.00000000000E+00  0.45593999997E+02  0.45594000000E+02  0.51100000000E-03 0. -1.
         11   -1    0    0    0    0 -0.00000000000E+00 -0.00000000000E+00 -0.45593999997E+02  0.45594000000E+02  0.51100000000E-03 0.  1.
    9900012    2    1    2    0    0  0.18142796559E+02 -0.16975091058E+02 -0.35585230923E+02  0.47787269093E+02  0.19999991102E+02 0.  0.
         12    1    1    2    0    0 -0.18142796559E+02  0.16975091058E+02  0.35585230923E+02  0.43400730907E+02  0.00000000000E+00 0. -1.
         11    1    3    3    0    0  0.87473911190E+00 -0.39429320576E+01 -0.13680886806E+00  0.40411135411E+01  0.51100000000E-03 0.  1.
        -11    1    3    3    0    0  0.81158114199E+01  0.92870381549E+00 -0.69818823881E+01  0.10745955878E+02  0.51100000000E-03 0. -1.
        -12    1    3    3    0    0  0.91522460267E+01 -0.13960862816E+02 -0.28466539667E+02  0.33000199674E+02  0.00000000000E+00 0.  1.
</event>
<event>
 7    1  0.2339217E-009  0.4778727E+02  0.7816164E-02  0.1312668E+00
        -11   -1    0    0    0    0  0.00000000000E+00  0.00000000000E+00  0.45593999997E+02  0.45594000000E+02  0.51100000000E-03 0. -1.
         11   -1    0    0    0    0 -0.00000000000E+00 -0.00000000000E+00 -0.45593999997E+02  0.45594000000E+02  0.51100000000E-03 0.  1.
    9900012    2    1    2    0    0 -0.18377190804E+02 -0.39291890585E+02 -0.14316850963E+01  0.47787268096E+02  0.19999986558E+02 0.  0.
         12    1    1    2    0    0  0.18377190804E+02  0.39291890585E+02  0.14316850963E+01  0.43400731904E+02  0.00000000000E+00 0. -1.
         11    1    3    3    0    0 -0.52798681401E+01 -0.14449808827E+02  0.10809940003E+01  0.15422144176E+02  0.51100000000E-03 0. -1.
        -11    1    3    3    0    0 -0.10945108748E+02 -0.18278321144E+02 -0.87752787548E+01  0.23041222772E+02  0.51100000000E-03 0.  1.
         12    1    3    3    0    0 -0.21522139165E+01 -0.65637606145E+01  0.62625996582E+01  0.93239011484E+01  0.00000000000E+00 0. -1.
</event>
<event>
 7    1  0.2339217E-009  0.4778728E+02  0.7816164E-02  0.1312668E+00
        -11   -1    0    0    0    0  0.00000000000E+00  0.00000000000E+00  0.45593999997E+02  0.45594000000E+02  0.51100000000E-03 0.  1.
         11   -1    0    0    0    0 -0.00000000000E+00 -0.00000000000E+00 -0.45593999997E+02  0.45594000000E+02  0.51100000000E-03 0. -1.
    9900012    2    1    2    0    0  0.23033138734E+02 -0.64612330909E+01  0.36212564145E+02  0.47787276331E+02  0.20000024105E+02 0.  0.
         12    1    1    2    0    0 -0.23033138734E+02  0.64612330909E+01 -0.36212564145E+02  0.43400723669E+02  0.00000000000E+00 0. -1.
         11    1    3    3    0    0  0.10909042239E+02 -0.94065335177E+01  0.17101870238E+02  0.22359875699E+02  0.51100000000E-03 0. -1.
        -11    1    3    3    0    0  0.94884247814E+00 -0.36140658222E+01  0.53521331709E+01  0.65274117042E+01  0.51100000000E-03 0.  1.
        -12    1    3    3    0    0  0.11175254017E+02  0.65593662489E+01  0.13758560736E+02  0.18899988928E+02  0.00000000000E+00 0.  1.
</event>
<event>
 7    1  0.2339217E-009  0.4778726E+02  0.7816164E-02  0.1312668E+00
        -11   -1    0    0    0    0  0.00000000000E+00  0.00000000000E+00  0.45593999997E+02  0.45594000000E+02  0.51100000000E-03 0.  1.
         11   -1    0    0    0    0 -0.00000000000E+00 -0.00000000000E+00 -0.45593999997E+02  0.45594000000E+02  0.51100000000E-03 0. -1.
    9900012    2    1    2    0    0  0.38195570227E+02 -0.10276223159E+02  0.17863974061E+02  0.47787263640E+02  0.19999966238E+02 0.  0.
         12    1    1    2    0    0 -0.38195570227E+02  0.10276223159E+02 -0.17863974061E+02  0.43400736360E+02  0.00000000000E+00 0. -1.
         11    1    3    3    0    0  0.99597727278E+01 -0.61332662683E+01 -0.28574722714E+01  0.12040729876E+02  0.51100000000E-03 0. -1.
        -11    1    3    3    0    0  0.16622803370E+02 -0.50797416459E+01  0.10974080231E+02  0.20556064902E+02  0.51100000000E-03 0.  1.
        -12    1    3    3    0    0  0.11612994130E+02  0.93678475547E+00  0.97473661007E+01  0.15190468862E+02  0.00000000000E+00 0.  1.
</event>
<event>
 7    1  0.2339217E-009  0.4778727E+02  0.7816164E-02  0.1312668E+00
        -11   -1    0    0    0    0  0.00000000000E+00  0.00000000000E+00  0.45593999997E+02  0.45594000000E+02  0.51100000000E-03 0.  1.
         11   -1    0    0    0    0 -0.00000000000E+00 -0.00000000000E+00 -0.45593999997E+02  0.45594000000E+02  0.51100000000E-03 0. -1.
    9900012    2    1    2    0    0 -0.11466019783E+01 -0.22492075956E+01  0.43327244193E+02  0.47787265902E+02  0.19999976552E+02 0.  0.
         12    1    1    2    0    0  0.11466019783E+01  0.22492075956E+01 -0.43327244193E+02  0.43400734098E+02  0.00000000000E+00 0. -1.
         11    1    3    3    0    0  0.10689575147E+01  0.38858966806E+01  0.82587599646E+01  0.91896670013E+01  0.51100000000E-03 0. -1.
        -11    1    3    3    0    0 -0.53198945228E+01  0.22625195485E+01  0.66971902647E+01  0.88471820454E+01  0.51100000000E-03 0.  1.
        -12    1    3    3    0    0  0.31043350297E+01 -0.83976238246E+01  0.28371293964E+02  0.29750416855E+02  0.00000000000E+00 0.  1.
</event>
<event>
 7    1  0.2339217E-009  0.4778727E+02  0.7816164E-02  0.1312668E+00
        -11   -1    0    0    0    0  0.00000000000E+00  0.00000000000E+00  0.45593999997E+02  0.45594000000E+02  0.51100000000E-03 0.  1.
         11   -1    0    0    0    0 -0.00000000000E+00 -0.00000000000E+00 -0.45593999997E+02  0.45594000000E+02  0.51100000000E-03 0. -1.
    9900012    2    1    2    0    0 -0.41217907882E+02  0.11786179775E+02 -0.67670770887E+01  0.47787270788E+02  0.19999998829E+02 0.  0.
         12    1    1    2    0    0  0.41217907882E+02 -0.11786179775E+02  0.67670770887E+01  0.43400729212E+02  0.00000000000E+00 0. -1.
         11    1    3    3    0    0 -0.77914360702E+01  0.92485755205E+00  0.32711460692E+01  0.85007196399E+01  0.51100000000E-03 0. -1.
        -11    1    3    3    0    0 -0.79503458712E+01 -0.34400500477E+01 -0.35321621826E+01  0.93551116373E+01  0.51100000000E-03 0.  1.
         12    1    3    3    0    0 -0.25476125940E+02  0.14301372271E+02 -0.65060609753E+01  0.29931439510E+02  0.00000000000E+00 0. -1.
</event>
<event>
 7    1  0.2339217E-009  0.4778725E+02  0.7816164E-02  0.1312668E+00
        -11   -1    0    0    0    0  0.00000000000E+00  0.00000000000E+00  0.45593999997E+02  0.45594000000E+02  0.51100000000E-03 0.  1.
         11   -1    0    0    0    0 -0.00000000000E+00 -0.00000000000E+00 -0.45593999997E+02  0.45594000000E+02  0.51100000000E-03 0. -1.
    9900012    2    1    2    0    0 -0.85276187925E+01  0.46023470572E+01  0.42305117178E+02  0.47787253230E+02  0.19999918778E+02 0.  0.
         12    1    1    2    0    0  0.85276187925E+01 -0.46023470572E+01 -0.42305117178E+02  0.43400746770E+02  0.00000000000E+00 0. -1.
         11    1    3    3    0    0 -0.24875541255E+01 -0.29341176803E+01  0.25823701671E+01  0.46330991819E+01  0.51100000000E-03 0. -1.
        -11    1    3    3    0    0 -0.46139676511E+01 -0.23540343020E+01  0.57351961754E+01  0.77280431166E+01  0.51100000000E-03 0.  1.
        -12    1    3    3    0    0 -0.14260970159E+01  0.98904990394E+01  0.33987550836E+02  0.35426110932E+02  0.00000000000E+00 0.  1.
</event>
<event>
 7    1  0.2339217E-009  0.4778727E+02  0.7816164E-02  0.1312668E+00
        -11   -1    0    0    0    0  0.00000000000E+00  0.00000000000E+00  0.45593999997E+02  0.45594000000E+02  0.51100000000E-03 0.  1.
         11   -1    0    0    0    0 -0.00000000000E+00 -0.00000000000E+00 -0.45593999997E+02  0.45594000000E+02  0.51100000000E-03 0. -1.
    9900012    2    1    2    0    0 -0.34408656990E+01  0.42182380804E+02  0.96140631397E+01  0.47787274002E+02  0.20000013487E+02 0.  0.
         12    1    1    2    0    0  0.34408656990E+01 -0.42182380804E+02 -0.96140631397E+01  0.43400725998E+02  0.00000000000E+00 0. -1.
         11    1    3    3    0    0  0.85434184757E-02 -0.33895818300E+00 -0.10760688792E+01  0.11282243277E+01  0.51100000000E-03 0. -1.
        -11    1    3    3    0    0 -0.57657164685E+01  0.39427964449E+02  0.13285736796E+02  0.42003793513E+02  0.51100000000E-03 0.  1.
        -12    1    3    3    0    0  0.23163073511E+01  0.30933745378E+01 -0.25956047768E+01  0.46552561619E+01  0.00000000000E+00 0.  1.
</event>
<event>
 7    1  0.2339217E-009  0.4778727E+02  0.7816164E-02  0.1312668E+00
        -11   -1    0    0    0    0  0.00000000000E+00  0.00000000000E+00  0.45593999997E+02  0.45594000000E+02  0.51100000000E-03 0. -1.
         11   -1    0    0    0    0 -0.00000000000E+00 -0.00000000000E+00 -0.45593999997E+02  0.45594000000E+02  0.51100000000E-03 0.  1.
    9900012    2    1    2    0    0 -0.24511843133E+02 -0.35279870070E+02 -0.61744043325E+01  0.47787274721E+02  0.20000016761E+02 0.  0.
         12    1    1    2    0    0  0.24511843133E+02  0.35279870070E+02  0.61744043325E+01  0.43400725279E+02  0.00000000000E+00 0. -1.
         11    1    3    3    0    0 -0.10957757201E+02 -0.12902194155E+02 -0.64697423158E+01  0.18121716883E+02  0.51100000000E-03 0. -1.
        -11    1    3    3    0    0 -0.65162981527E+01 -0.16825032605E+01 -0.33284704691E+01  0.75081072689E+01  0.51100000000E-03 0.  1.
        -12    1    3    3    0    0 -0.70377877794E+01 -0.20695172654E+02  0.36238084524E+01  0.22157450569E+02  0.00000000000E+00 0.  1.
</event>
<event>
 7    1  0.2339217E-009  0.4778727E+02  0.7816164E-02  0.1312668E+00
        -11   -1    0    0    0    0  0.00000000000E+00  0.00000000000E+00  0.45593999997E+02  0.45594000000E+02  0.51100000000E-03 0.  1.
         11   -1    0    0    0    0 -0.00000000000E+00 -0.00000000000E+00 -0.45593999997E+02  0.45594000000E+02  0.51100000000E-03 0. -1.
    9900012    2    1    2    0    0  0.13037948588E+01 -0.33785279075E+02  0.27211730480E+02  0.47787271447E+02  0.20000001836E+02 0.  0.
         12    1    1    2    0    0 -0.13037948588E+01  0.33785279075E+02 -0.27211730480E+02  0.43400728553E+02  0.00000000000E+00 0. -1.
         11    1    3    3    0    0  0.45668064173E+01 -0.11399451783E+02  0.43333170949E+01  0.13022321571E+02  0.51100000000E-03 0. -1.
        -11    1    3    3    0    0 -0.27219888030E+01 -0.10729833850E+02  0.26030090135E+01  0.11371640764E+02  0.51100000000E-03 0.  1.
        -12    1    3    3    0    0 -0.54102275551E+00 -0.11655993443E+02  0.20275404372E+02  0.23393309112E+02  0.00000000000E+00 0.  1.
</event>
<event>
 7    1  0.2339217E-009  0.4778727E+02  0.7816164E-02  0.1312668E+00
        -11   -1    0    0    0    0  0.00000000000E+00  0.00000000000E+00  0.45593999997E+02  0.45594000000E+02  0.51100000000E-03 0. -1.
         11   -1    0    0    0    0 -0.00000000000E+00 -0.00000000000E+00 -0.45593999997E+02  0.45594000000E+02  0.51100000000E-03 0.  1.
    9900012    2    1    2    0    0 -0.15934258745E+02  0.35328060080E+02 -0.19535887364E+02  0.47787270446E+02  0.19999997270E+02 0.  0.
         12    1    1    2    0    0  0.15934258745E+02 -0.35328060080E+02  0.19535887364E+02  0.43400729554E+02  0.00000000000E+00 0. -1.
         11    1    3    3    0    0 -0.21341175008E+00 -0.20937700165E+01 -0.22370021633E+01  0.30714160247E+01  0.51100000000E-03 0. -1.
        -11    1    3    3    0    0 -0.99723597113E+00  0.88437131555E+01 -0.55486849095E+01  0.10487785583E+02  0.51100000000E-03 0.  1.
        -12    1    3    3    0    0 -0.14723611024E+02  0.28578116941E+02 -0.11750200291E+02  0.34228068838E+02  0.00000000000E+00 0.  1.
</event>
<event>
 7    1  0.2339217E-009  0.4778728E+02  0.7816164E-02  0.1312668E+00
        -11   -1    0    0    0    0  0.00000000000E+00  0.00000000000E+00  0.45593999997E+02  0.45594000000E+02  0.51100000000E-03 0. -1.
         11   -1    0    0    0    0 -0.00000000000E+00 -0.00000000000E+00 -0.45593999997E+02  0.45594000000E+02  0.51100000000E-03 0.  1.
    9900012    2    1    2    0    0 -0.27349119918E+02 -0.19749292556E+02  0.27305920110E+02  0.47787283533E+02  0.20000056942E+02 0.  0.
         12    1    1    2    0    0  0.27349119918E+02  0.19749292556E+02 -0.27305920110E+02  0.43400716467E+02  0.00000000000E+00 0. -1.
         11    1    3    3    0    0 -0.71649781297E+01  0.60139834688E+00  0.92495721454E+01  0.11715510092E+02  0.51100000000E-03 0. -1.
        -11    1    3    3    0    0 -0.18577952260E+02 -0.13493862810E+02  0.17750865158E+02  0.29022712792E+02  0.51100000000E-03 0.  1.
         12    1    3    3    0    0 -0.16061895285E+01 -0.68568280928E+01  0.30548280708E+00  0.70490606495E+01  0.00000000000E+00 0. -1.
</event>
<event>
 7    1  0.2339217E-009  0.4778727E+02  0.7816164E-02  0.1312668E+00
        -11   -1    0    0    0    0  0.00000000000E+00  0.00000000000E+00  0.45593999997E+02  0.45594000000E+02  0.51100000000E-03 0. -1.
         11   -1    0    0    0    0 -0.00000000000E+00 -0.00000000000E+00 -0.45593999997E+02  0.45594000000E+02  0.51100000000E-03 0.  1.
    9900012    2    1    2    0    0 -0.34418691441E+02  0.22975994287E+02 -0.13079775380E+02  0.47787272379E+02  0.20000006087E+02 0.  0.
         12    1    1    2    0    0  0.34418691441E+02 -0.22975994287E+02  0.13079775380E+02  0.43400727621E+02  0.00000000000E+00 0. -1.
         11    1    3    3    0    0 -0.99602021605E+01  0.13823689127E+02 -0.11431670608E+02  0.20517872729E+02  0.51100000000E-03 0. -1.
        -11    1    3    3    0    0 -0.11818383104E+02  0.38050651642E+01 -0.45826575388E+01  0.13234555168E+02  0.51100000000E-03 0.  1.
         12    1    3    3    0    0 -0.12640106176E+02  0.53472399953E+01  0.29345527667E+01  0.14034844483E+02  0.00000000000E+00 0. -1.
</event>
<event>
 7    1  0.2339217E-009  0.4778727E+02  0.7816164E-02  0.1312668E+00
        -11   -1    0    0    0    0  0.00000000000E+00  0.00000000000E+00  0.45593999997E+02  0.45594000000E+02  0.51100000000E-03 0. -1.
         11   -1    0    0    0    0 -0.00000000000E+00 -0.00000000000E+00 -0.45593999997E+02  0.45594000000E+02  0.51100000000E-03 0.  1.
    9900012    2    1    2    0    0 -0.37930631600E+02  0.15087286669E+02 -0.14739890025E+02  0.47787269700E+02  0.19999993870E+02 0.  0.
         12    1    1    2    0    0  0.37930631600E+02 -0.15087286669E+02  0.14739890025E+02  0.43400730300E+02  0.00000000000E+00 0. -1.
         11    1    3    3    0    0  0.77203523933E+00 -0.10132239230E+01  0.92213459827E+00  0.15725754695E+01  0.51100000000E-03 0. -1.
        -11    1    3    3    0    0 -0.18313771749E+02  0.15387637310E+01 -0.55729872465E+01  0.19204692567E+02  0.51100000000E-03 0.  1.
         12    1    3    3    0    0 -0.20388895091E+02  0.14561746861E+02 -0.10089037377E+02  0.27010001663E+02  0.00000000000E+00 0. -1.
</event>
<event>
 7    1  0.2339217E-009  0.4778727E+02  0.7816164E-02  0.1312668E+00
        -11   -1    0    0    0    0  0.00000000000E+00  0.00000000000E+00  0.45593999997E+02  0.45594000000E+02  0.51100000000E-03 0. -1.
         11   -1    0    0    0    0 -0.00000000000E+00 -0.00000000000E+00 -0.45593999997E+02  0.45594000000E+02  0.51100000000E-03 0.  1.
    9900012    2    1    2    0    0  0.29881363072E+02 -0.31456772748E+02  0.10949583734E+01  0.47787270229E+02  0.19999996283E+02 0.  0.
         12    1    1    2    0    0 -0.29881363072E+02  0.31456772748E+02 -0.10949583734E+01  0.43400729771E+02  0.00000000000E+00 0. -1.
         11    1    3    3    0    0  0.14291475508E+01 -0.78007592928E+01  0.33931998669E+01  0.86260137877E+01  0.51100000000E-03 0. -1.
        -11    1    3    3    0    0  0.18850067616E+02 -0.18921132470E+02  0.35806339023E+01  0.26947267811E+02  0.51100000000E-03 0.  1.
        -12    1    3    3    0    0  0.96021479055E+01 -0.47348809848E+01 -0.58788753958E+01  0.12213988630E+02  0.00000000000E+00 0.  1.
</event>
<event>
 7    1  0.2339217E-009  0.4778727E+02  0.7816164E-02  0.1312668E+00
        -11   -1    0    0    0    0  0.00000000000E+00  0.00000000000E+00  0.45593999997E+02  0.45594000000E+02  0.51100000000E-03 0.  1.
         11   -1    0    0    0    0 -0.00000000000E+00 -0.00000000000E+00 -0.45593999997E+02  0.45594000000E+02  0.51100000000E-03 0. -1.
    9900012    2    1    2    0    0  0.16143457466E+02 -0.91918093030E+01  0.39224012065E+02  0.47787266139E+02  0.19999977634E+02 0.  0.
         12    1    1    2    0    0 -0.16143457466E+02  0.91918093030E+01 -0.39224012065E+02  0.43400733861E+02  0.00000000000E+00 0. -1.
         11    1    3    3    0    0 -0.63840664485E+00 -0.51341298322E+01  0.74665247528E+00  0.52272691109E+01  0.51100000000E-03 0. -1.
        -11    1    3    3    0    0  0.28835897433E+01 -0.24653779684E+01  0.12399168970E+02  0.12966594377E+02  0.51100000000E-03 0.  1.
        -12    1    3    3    0    0  0.13898274367E+02 -0.15923015024E+01  0.26078190620E+02  0.29593402651E+02  0.00000000000E+00 0.  1.
</event>
<event>
 7    1  0.2339217E-009  0.4778727E+02  0.7816164E-02  0.1312668E+00
        -11   -1    0    0    0    0  0.00000000000E+00  0.00000000000E+00  0.45593999997E+02  0.45594000000E+02  0.51100000000E-03 0.  1.
         11   -1    0    0    0    0 -0.00000000000E+00 -0.00000000000E+00 -0.45593999997E+02  0.45594000000E+02  0.51100000000E-03 0. -1.
    9900012    2    1    2    0    0 -0.30232943997E+02  0.67484466168E+01  0.30398204806E+02  0.47787270860E+02  0.19999999160E+02 0.  0.
         12    1    1    2    0    0  0.30232943997E+02 -0.67484466168E+01 -0.30398204806E+02  0.43400729140E+02  0.00000000000E+00 0. -1.
         11    1    3    3    0    0 -0.18964845520E+02 -0.42382216250E+01  0.10962059269E+02  0.22311311745E+02  0.51100000000E-03 0. -1.
        -11    1    3    3    0    0 -0.10839208285E+01 -0.42943319739E+00  0.12116989595E+01  0.16815206995E+01  0.51100000000E-03 0.  1.
         12    1    3    3    0    0 -0.10184177649E+02  0.11416101439E+02  0.18224446577E+02  0.23794438415E+02  0.00000000000E+00 0. -1.
</event>
<event>
 7    1  0.2339217E-009  0.4778723E+02  0.7816164E-02  0.1312668E+00
        -11   -1    0    0    0    0  0.00000000000E+00  0.00000000000E+00  0.45593999997E+02  0.45594000000E+02  0.51100000000E-03 0. -1.
         11   -1    0    0    0    0 -0.00000000000E+00 -0.00000000000E+00 -0.45593999997E+02  0.45594000000E+02  0.51100000000E-03 0.  1.
    9900012    2    1    2    0    0 -0.55770241610E+01  0.35677981275E+02 -0.24074999601E+02  0.47787226365E+02  0.19999796287E+02 0.  0.
         12    1    1    2    0    0  0.55770241610E+01 -0.35677981275E+02  0.24074999601E+02  0.43400773635E+02  0.00000000000E+00 0. -1.
         11    1    3    3    0    0 -0.53080015194E+01  0.86626457284E+01 -0.13514788270E+02  0.16907566750E+02  0.51100000000E-03 0. -1.
        -11    1    3    3    0    0 -0.39336042944E+01  0.62871034092E+01 -0.54921551890E+01  0.92284712116E+01  0.51100000000E-03 0.  1.
        -12    1    3    3    0    0  0.36645816528E+01  0.20728232137E+02 -0.50680561417E+01  0.21651188403E+02  0.00000000000E+00 0.  1.
</event>
<event>
 7    1  0.2339217E-009  0.4778726E+02  0.7816164E-02  0.1312668E+00
        -11   -1    0    0    0    0  0.00000000000E+00  0.00000000000E+00  0.45593999997E+02  0.45594000000E+02  0.51100000000E-03 0. -1.
         11   -1    0    0    0    0 -0.00000000000E+00 -0.00000000000E+00 -0.45593999997E+02  0.45594000000E+02  0.51100000000E-03 0.  1.
    9900012    2    1    2    0    0 -0.37445952182E+02  0.20107185072E+02 -0.87821199837E+01  0.47787264318E+02  0.19999969331E+02 0.  0.
         12    1    1    2    0    0  0.37445952182E+02 -0.20107185072E+02  0.87821199837E+01  0.43400735682E+02  0.00000000000E+00 0. -1.
         11    1    3    3    0    0  0.64599418272E+00 -0.70857838706E+00 -0.20495857810E+01  0.22627845566E+01  0.51100000000E-03 0. -1.
        -11    1    3    3    0    0 -0.47973444644E+01 -0.76915212261E+00 -0.29056159165E+01  0.56611582749E+01  0.51100000000E-03 0.  1.
        -12    1    3    3    0    0 -0.33294601900E+02  0.21584915582E+02 -0.38269182862E+01  0.39863321487E+02  0.00000000000E+00 0.  1.
</event>
<event>
 7    1  0.2339217E-009  0.4778727E+02  0.7816164E-02  0.1312668E+00
        -11   -1    0    0    0    0  0.00000000000E+00  0.00000000000E+00  0.45593999997E+02  0.45594000000E+02  0.51100000000E-03 0.  1.
         11   -1    0    0    0    0 -0.00000000000E+00 -0.00000000000E+00 -0.45593999997E+02  0.45594000000E+02  0.51100000000E-03 0. -1.
    9900012    2    1    2    0    0 -0.31409000943E+02  0.98564891374E+01  0.28283342124E+02  0.47787272356E+02  0.20000005978E+02 0.  0.
         12    1    1    2    0    0  0.31409000943E+02 -0.98564891374E+01 -0.28283342124E+02  0.43400727644E+02  0.00000000000E+00 0. -1.
         11    1    3    3    0    0 -0.45525952710E+01 -0.10043187935E+01 -0.40832492767E-01  0.46622363190E+01  0.51100000000E-03 0. -1.
        -11    1    3    3    0    0 -0.15466758607E+02 -0.14397120518E+01  0.11117117286E+02  0.19101928950E+02  0.51100000000E-03 0.  1.
         12    1    3    3    0    0 -0.11389647065E+02  0.12300519983E+02  0.17207057331E+02  0.24023107087E+02  0.00000000000E+00 0. -1.
</event>
<event>
 7    1  0.2339217E-009  0.4778727E+02  0.7816164E-02  0.1312668E+00
        -11   -1    0    0    0    0  0.00000000000E+00  0.00000000000E+00  0.45593999997E+02  0.45594000000E+02  0.51100000000E-03 0.  1.
         11   -1    0    0    0    0 -0.00000000000E+00 -0.00000000000E+00 -0.45593999997E+02  0.45594000000E+02  0.51100000000E-03 0. -1.
    9900012    2    1    2    0    0  0.36794296973E+02  0.22123513161E+02  0.63524230150E+01  0.47787269563E+02  0.19999993245E+02 0.  0.
         12    1    1    2    0    0 -0.36794296973E+02 -0.22123513161E+02 -0.63524230150E+01  0.43400730437E+02  0.00000000000E+00 0. -1.
         11    1    3    3    0    0  0.38473060937E+00 -0.12675529228E+00 -0.49931463759E+00  0.64296182962E+00  0.51100000000E-03 0. -1.
        -11    1    3    3    0    0  0.33498100790E+02  0.23499478398E+02  0.10567438376E+02  0.42261317959E+02  0.51100000000E-03 0.  1.
        -12    1    3    3    0    0  0.29114655733E+01 -0.12492099448E+01 -0.37157007235E+01  0.48829897745E+01  0.00000000000E+00 0.  1.
</event>
<event>
 7    1  0.2339217E-009  0.4778727E+02  0.7816164E-02  0.1312668E+00
        -11   -1    0    0    0    0  0.00000000000E+00  0.00000000000E+00  0.45593999997E+02  0.45594000000E+02  0.51100000000E-03 0.  1.
         11   -1    0    0    0    0 -0.00000000000E+00 -0.00000000000E+00 -0.45593999997E+02  0.45594000000E+02  0.51100000000E-03 0. -1.
    9900012    2    1    2    0    0 -0.27984076189E+02 -0.28173546675E+02  0.17514738214E+02  0.47787270662E+02  0.19999998255E+02 0.  0.
         12    1    1    2    0    0  0.27984076189E+02  0.28173546675E+02 -0.17514738214E+02  0.43400729338E+02  0.00000000000E+00 0. -1.
         11    1    3    3    0    0 -0.22824324171E+02 -0.14818386286E+02  0.77849338683E+01  0.28304408519E+02  0.51100000000E-03 0. -1.
        -11    1    3    3    0    0 -0.25854015088E+01 -0.18450365440E+01 -0.12071215491E+01  0.33978822089E+01  0.51100000000E-03 0.  1.
        -12    1    3    3    0    0 -0.25743505096E+01 -0.11510123844E+02  0.10936925895E+02  0.16084979934E+02  0.00000000000E+00 0.  1.
</event>
<event>
 7    1  0.2339217E-009  0.4778727E+02  0.7816164E-02  0.1312668E+00
        -11   -1    0    0    0    0  0.00000000000E+00  0.00000000000E+00  0.45593999997E+02  0.45594000000E+02  0.51100000000E-03 0. -1.
         11   -1    0    0    0    0 -0.00000000000E+00 -0.00000000000E+00 -0.45593999997E+02  0.45594000000E+02  0.51100000000E-03 0.  1.
    9900012    2    1    2    0    0 -0.33108868316E+02 -0.23377430725E+02 -0.15521651034E+02  0.47787273286E+02  0.20000010220E+02 0.  0.
         12    1    1    2    0    0  0.33108868316E+02  0.23377430725E+02  0.15521651034E+02  0.43400726714E+02  0.00000000000E+00 0. -1.
         11    1    3    3    0    0 -0.17864645708E+02 -0.60684844573E+01 -0.18172054149E+01  0.18954532589E+02  0.51100000000E-03 0. -1.
        -11    1    3    3    0    0 -0.22889192908E+01 -0.47508646775E+00  0.14393864614E+01  0.27453036842E+01  0.51100000000E-03 0.  1.
        -12    1    3    3    0    0 -0.12955303317E+02 -0.16833859800E+02 -0.15143832081E+02  0.26087437013E+02  0.00000000000E+00 0.  1.
</event>
<event>
 7    1  0.2339217E-009  0.4778727E+02  0.7816164E-02  0.1312668E+00
        -11   -1    0    0    0    0  0.00000000000E+00  0.00000000000E+00  0.45593999997E+02  0.45594000000E+02  0.51100000000E-03 0. -1.
         11   -1    0    0    0    0 -0.00000000000E+00 -0.00000000000E+00 -0.45593999997E+02  0.45594000000E+02  0.51100000000E-03 0.  1.
    9900012    2    1    2    0    0  0.26258711258E+02 -0.34528485093E+02  0.13736516658E+01  0.47787272833E+02  0.20000008153E+02 0.  0.
         12    1    1    2    0    0 -0.26258711258E+02  0.34528485093E+02 -0.13736516658E+01  0.43400727167E+02  0.00000000000E+00 0. -1.
         11    1    3    3    0    0  0.10737446001E+02 -0.26623178190E+01  0.28874737008E+00  0.11066348001E+02  0.51100000000E-03 0. -1.
        -11    1    3    3    0    0 -0.86872033273E+00 -0.36114579689E+01  0.16195553330E+01  0.40521924209E+01  0.51100000000E-03 0.  1.
        -12    1    3    3    0    0  0.16389985591E+02 -0.28254709305E+02 -0.53465103729E+00  0.32668732410E+02  0.00000000000E+00 0.  1.
</event>
<event>
 7    1  0.2339217E-009  0.4778727E+02  0.7816164E-02  0.1312668E+00
        -11   -1    0    0    0    0  0.00000000000E+00  0.00000000000E+00  0.45593999997E+02  0.45594000000E+02  0.51100000000E-03 0. -1.
         11   -1    0    0    0    0 -0.00000000000E+00 -0.00000000000E+00 -0.45593999997E+02  0.45594000000E+02  0.51100000000E-03 0.  1.
    9900012    2    1    2    0    0  0.35187615063E+02 -0.23223956241E+02 -0.10300638650E+02  0.47787267818E+02  0.19999985289E+02 0.  0.
         12    1    1    2    0    0 -0.35187615063E+02  0.23223956241E+02  0.10300638650E+02  0.43400732182E+02  0.00000000000E+00 0. -1.
         11    1    3    3    0    0  0.66236162003E+00  0.20068284491E+01 -0.21789828474E+01  0.30354653433E+01  0.51100000000E-03 0. -1.
        -11    1    3    3    0    0  0.11534332557E+02 -0.76319853395E+01 -0.76267578884E+01  0.15794159170E+02  0.51100000000E-03 0.  1.
         12    1    3    3    0    0  0.22990920887E+02 -0.17598799351E+02 -0.49489791468E+00  0.28957643304E+02  0.00000000000E+00 0. -1.
</event>
<event>
 7    1  0.2339217E-009  0.4778728E+02  0.7816164E-02  0.1312668E+00
        -11   -1    0    0    0    0  0.00000000000E+00  0.00000000000E+00  0.45593999997E+02  0.45594000000E+02  0.51100000000E-03 0.  1.
         11   -1    0    0    0    0 -0.00000000000E+00 -0.00000000000E+00 -0.45593999997E+02  0.45594000000E+02  0.51100000000E-03 0. -1.
    9900012    2    1    2    0    0  0.42795888870E+02 -0.31157504749E+01  0.65135848585E+01  0.47787276585E+02  0.20000025263E+02 0.  0.
         12    1    1    2    0    0 -0.42795888870E+02  0.31157504749E+01 -0.65135848585E+01  0.43400723415E+02  0.00000000000E+00 0. -1.
         11    1    3    3    0    0  0.10321436912E+02  0.17662917803E+01  0.53628603164E+01  0.11764867939E+02  0.51100000000E-03 0. -1.
        -11    1    3    3    0    0  0.11629527038E+02 -0.34001668342E+00  0.74042431127E+01  0.13790733367E+02  0.51100000000E-03 0.  1.
        -12    1    3    3    0    0  0.20844924920E+02 -0.45420255718E+01 -0.62535185705E+01  0.22231675279E+02  0.00000000000E+00 0.  1.
</event>
<event>
 7    1  0.2339217E-009  0.4778727E+02  0.7816164E-02  0.1312668E+00
        -11   -1    0    0    0    0  0.00000000000E+00  0.00000000000E+00  0.45593999997E+02  0.45594000000E+02  0.51100000000E-03 0. -1.
         11   -1    0    0    0    0 -0.00000000000E+00 -0.00000000000E+00 -0.45593999997E+02  0.45594000000E+02  0.51100000000E-03 0.  1.
    9900012    2    1    2    0    0  0.32932034487E+02  0.19126189169E+02 -0.20815693715E+02  0.47787272904E+02  0.20000008478E+02 0.  0.
         12    1    1    2    0    0 -0.32932034487E+02 -0.19126189169E+02  0.20815693715E+02  0.43400727096E+02  0.00000000000E+00 0. -1.
         11    1    3    3    0    0  0.67338513383E+01  0.22395893811E+01  0.31791305407E+01  0.77760777837E+01  0.51100000000E-03 0. -1.
        -11    1    3    3    0    0 -0.43861173451E+00  0.35818122041E-01 -0.66346653318E+00  0.79614778357E+00  0.51100000000E-03 0.  1.
        -12    1    3    3    0    0  0.26636794884E+02  0.16850781666E+02 -0.23331357723E+02  0.39215047337E+02  0.00000000000E+00 0.  1.
</event>
<event>
 7    1  0.2339217E-009  0.4778727E+02  0.7816164E-02  0.1312668E+00
        -11   -1    0    0    0    0  0.00000000000E+00  0.00000000000E+00  0.45593999997E+02  0.45594000000E+02  0.51100000000E-03 0. -1.
         11   -1    0    0    0    0 -0.00000000000E+00 -0.00000000000E+00 -0.45593999997E+02  0.45594000000E+02  0.51100000000E-03 0.  1.
    9900012    2    1    2    0    0 -0.38905706986E+02 -0.16454957699E+02 -0.99601182044E+01  0.47787267015E+02  0.19999981630E+02 0.  0.
         12    1    1    2    0    0  0.38905706986E+02  0.16454957699E+02  0.99601182044E+01  0.43400732985E+02  0.00000000000E+00 0. -1.
         11    1    3    3    0    0 -0.21972451744E+01  0.14532215699E+01  0.98197833407E+00  0.28114090768E+01  0.51100000000E-03 0. -1.
        -11    1    3    3    0    0 -0.17948752829E+00  0.11084754518E+00  0.21743746341E+01  0.21845842308E+01  0.51100000000E-03 0.  1.
        -12    1    3    3    0    0 -0.36528974283E+02 -0.18019026814E+02 -0.13116471173E+02  0.42791273708E+02  0.00000000000E+00 0.  1.
</event>
<event>
 7    1  0.2339217E-009  0.4778727E+02  0.7816164E-02  0.1312668E+00
        -11   -1    0    0    0    0  0.00000000000E+00  0.00000000000E+00  0.45593999997E+02  0.45594000000E+02  0.51100000000E-03 0.  1.
         11   -1    0    0    0    0 -0.00000000000E+00 -0.00000000000E+00 -0.45593999997E+02  0.45594000000E+02  0.51100000000E-03 0. -1.
    9900012    2    1    2    0    0  0.19013317174E+02  0.25035812297E+02  0.29921983284E+02  0.47787271769E+02  0.20000003304E+02 0.  0.
         12    1    1    2    0    0 -0.19013317174E+02 -0.25035812297E+02 -0.29921983284E+02  0.43400728231E+02  0.00000000000E+00 0. -1.
         11    1    3    3    0    0 -0.89997678152E+00  0.16008647668E+01  0.14144662260E+01  0.23180684145E+01  0.51100000000E-03 0. -1.
        -11    1    3    3    0    0  0.66290137360E+01  0.19749827218E+02  0.21745316791E+02  0.30114088079E+02  0.51100000000E-03 0.  1.
        -12    1    3    3    0    0  0.13284280219E+02  0.36851203122E+01  0.67622002675E+01  0.15355115275E+02  0.00000000000E+00 0.  1.
</event>
<event>
 7    1  0.2339217E-009  0.4778727E+02  0.7816164E-02  0.1312668E+00
        -11   -1    0    0    0    0  0.00000000000E+00  0.00000000000E+00  0.45593999997E+02  0.45594000000E+02  0.51100000000E-03 0.  1.
         11   -1    0    0    0    0 -0.00000000000E+00 -0.00000000000E+00 -0.45593999997E+02  0.45594000000E+02  0.51100000000E-03 0. -1.
    9900012    2    1    2    0    0  0.15748205103E+02  0.38825612491E+02 -0.11322055273E+02  0.47787273222E+02  0.20000009928E+02 0.  0.
         12    1    1    2    0    0 -0.15748205103E+02 -0.38825612491E+02  0.11322055273E+02  0.43400726778E+02  0.00000000000E+00 0. -1.
         11    1    3    3    0    0 -0.12629911014E+01  0.15523991778E+02 -0.29031792507E-01  0.15575310923E+02  0.51100000000E-03 0. -1.
        -11    1    3    3    0    0 -0.86694980070E+00  0.29520396148E+01 -0.12965304555E+01  0.33387319939E+01  0.51100000000E-03 0.  1.
        -12    1    3    3    0    0  0.17878146005E+02  0.20349581098E+02 -0.99964930254E+01  0.28873230305E+02  0.00000000000E+00 0.  1.
</event>
<event>
 7    1  0.2339217E-009  0.4778727E+02  0.7816164E-02  0.1312668E+00
        -11   -1    0    0    0    0  0.00000000000E+00  0.00000000000E+00  0.45593999997E+02  0.45594000000E+02  0.51100000000E-03 0. -1.
         11   -1    0    0    0    0 -0.00000000000E+00 -0.00000000000E+00 -0.45593999997E+02  0.45594000000E+02  0.51100000000E-03 0.  1.
    9900012    2    1    2    0    0  0.33505796737E+02  0.24576811129E+02  0.12528573602E+02  0.47787271702E+02  0.20000002999E+02 0.  0.
         12    1    1    2    0    0 -0.33505796737E+02 -0.24576811129E+02 -0.12528573602E+02  0.43400728298E+02  0.00000000000E+00 0. -1.
         11    1    3    3    0    0  0.12667570054E+01  0.30466906278E+01  0.39120010359E+01  0.51176898556E+01  0.51100000000E-03 0. -1.
        -11    1    3    3    0    0  0.19933325819E+02  0.15159217794E+02  0.12894088173E+02  0.28167301475E+02  0.51100000000E-03 0.  1.
        -12    1    3    3    0    0  0.12305713913E+02  0.63709027073E+01 -0.42775156064E+01  0.14502280372E+02  0.00000000000E+00 0.  1.
</event>
<event>
 7    1  0.2339217E-009  0.4778727E+02  0.7816164E-02  0.1312668E+00
        -11   -1    0    0    0    0  0.00000000000E+00  0.00000000000E+00  0.45593999997E+02  0.45594000000E+02  0.51100000000E-03 0. -1.
         11   -1    0    0    0    0 -0.00000000000E+00 -0.00000000000E+00 -0.45593999997E+02  0.45594000000E+02  0.51100000000E-03 0.  1.
    9900012    2    1    2    0    0  0.61253990912E+01  0.13226673970E+02 -0.40879795032E+02  0.47787273506E+02  0.20000011223E+02 0.  0.
         12    1    1    2    0    0 -0.61253990912E+01 -0.13226673970E+02  0.40879795032E+02  0.43400726494E+02  0.00000000000E+00 0. -1.
         11    1    3    3    0    0 -0.26849872437E+01  0.13261380240E+02 -0.14028864415E+02  0.19490572065E+02  0.51100000000E-03 0. -1.
        -11    1    3    3    0    0  0.88471479904E+00 -0.11316550334E+00 -0.43523665023E+01  0.44428168022E+01  0.51100000000E-03 0.  1.
         12    1    3    3    0    0  0.79256715359E+01  0.78459233091E-01 -0.22498564115E+02  0.23853884639E+02  0.00000000000E+00 0. -1.
</event>
<event>
 7    1  0.2339217E-009  0.4778727E+02  0.7816164E-02  0.1312668E+00
        -11   -1    0    0    0    0  0.00000000000E+00  0.00000000000E+00  0.45593999997E+02  0.45594000000E+02  0.51100000000E-03 0.  1.
         11   -1    0    0    0    0 -0.00000000000E+00 -0.00000000000E+00 -0.45593999997E+02  0.45594000000E+02  0.51100000000E-03 0. -1.
    9900012    2    1    2    0    0 -0.63128795137E+01 -0.18195096138E+02  0.38893562886E+02  0.47787271836E+02  0.20000003608E+02 0.  0.
         12    1    1    2    0    0  0.63128795137E+01  0.18195096138E+02 -0.38893562886E+02  0.43400728164E+02  0.00000000000E+00 0. -1.
         11    1    3    3    0    0  0.65896159282E+00 -0.12674854123E+01 -0.19112530124E+01  0.23861345288E+01  0.51100000000E-03 0. -1.
        -11    1    3    3    0    0 -0.35269549723E+01 -0.86232601968E+01  0.11798444991E+02  0.15033407207E+02  0.51100000000E-03 0.  1.
         12    1    3    3    0    0 -0.34448861341E+01 -0.83043505288E+01  0.29006370907E+02  0.30367730100E+02  0.00000000000E+00 0. -1.
</event>
<event>
 7    1  0.2339217E-009  0.4778727E+02  0.7816164E-02  0.1312668E+00
        -11   -1    0    0    0    0  0.00000000000E+00  0.00000000000E+00  0.45593999997E+02  0.45594000000E+02  0.51100000000E-03 0.  1.
         11   -1    0    0    0    0 -0.00000000000E+00 -0.00000000000E+00 -0.45593999997E+02  0.45594000000E+02  0.51100000000E-03 0. -1.
    9900012    2    1    2    0    0  0.18634662496E+01  0.29782169571E+02  0.31514649906E+02  0.47787270864E+02  0.19999999175E+02 0.  0.
         12    1    1    2    0    0 -0.18634662496E+01 -0.29782169571E+02 -0.31514649906E+02  0.43400729136E+02  0.00000000000E+00 0. -1.
         11    1    3    3    0    0  0.52407701805E+01  0.19418331320E+01  0.11728080799E+02  0.12991699946E+02  0.51100000000E-03 0. -1.
        -11    1    3    3    0    0  0.26415213886E+00  0.11407980205E+02  0.10819325333E+02  0.15724808096E+02  0.51100000000E-03 0.  1.
         12    1    3    3    0    0 -0.36414560697E+01  0.16432356234E+02  0.89672437748E+01  0.19070762822E+02  0.00000000000E+00 0. -1.
</event>
<event>
 7    1  0.2339217E-009  0.4778727E+02  0.7816164E-02  0.1312668E+00
        -11   -1    0    0    0    0  0.00000000000E+00  0.00000000000E+00  0.45593999997E+02  0.45594000000E+02  0.51100000000E-03 0.  1.
         11   -1    0    0    0    0 -0.00000000000E+00 -0.00000000000E+00 -0.45593999997E+02  0.45594000000E+02  0.51100000000E-03 0. -1.
    9900012    2    1    2    0    0  0.15099550879E+02 -0.14615225073E+01  0.40663137114E+02  0.47787271841E+02  0.20000003632E+02 0.  0.
         12    1    1    2    0    0 -0.15099550879E+02  0.14615225073E+01 -0.40663137114E+02  0.43400728159E+02  0.00000000000E+00 0. -1.
         11    1    3    3    0    0  0.10773859687E+02 -0.50897001349E+01  0.17553379725E+02  0.21215613120E+02  0.51100000000E-03 0. -1.
        -11    1    3    3    0    0  0.77578273994E+00 -0.40846041296E+01  0.45584879279E+01  0.61697359915E+01  0.51100000000E-03 0.  1.
         12    1    3    3    0    0  0.35499084522E+01  0.77127817572E+01  0.18551269461E+02  0.20401922729E+02  0.00000000000E+00 0. -1.
</event>
<event>
 7    1  0.2339217E-009  0.4778727E+02  0.7816164E-02  0.1312668E+00
        -11   -1    0    0    0    0  0.00000000000E+00  0.00000000000E+00  0.45593999997E+02  0.45594000000E+02  0.51100000000E-03 0.  1.
         11   -1    0    0    0    0 -0.00000000000E+00 -0.00000000000E+00 -0.45593999997E+02  0.45594000000E+02  0.51100000000E-03 0. -1.
    9900012    2    1    2    0    0  0.20753994447E+02  0.38115796797E+02 -0.28426383011E+00  0.47787273544E+02  0.20000011397E+02 0.  0.
         12    1    1    2    0    0 -0.20753994447E+02 -0.38115796797E+02  0.28426383011E+00  0.43400726456E+02  0.00000000000E+00 0. -1.
         11    1    3    3    0    0 -0.83474136900E+00  0.30990386534E+01 -0.22443419411E+01  0.39163637137E+01  0.51100000000E-03 0. -1.
        -11    1    3    3    0    0  0.93946097203E+01  0.25090005382E+02 -0.39345292161E+01  0.27078544685E+02  0.51100000000E-03 0.  1.
         12    1    3    3    0    0  0.12194126096E+02  0.99267527617E+01  0.58946073271E+01  0.16792365145E+02  0.00000000000E+00 0. -1.
</event>
<event>
 7    1  0.2482524E-009  0.4778727E+02  0.7816164E-02  0.1312668E+00
        -11   -1    0    0    0    0  0.00000000000E+00  0.00000000000E+00  0.45593999997E+02  0.45594000000E+02  0.51100000000E-03 0.  1.
         11   -1    0    0    0    0 -0.00000000000E+00 -0.00000000000E+00 -0.45593999997E+02  0.45594000000E+02  0.51100000000E-03 0. -1.
    9900012    2    1    2    0    0  0.41026966481E+02  0.13351044732E+02 -0.47075472884E+01  0.47787269873E+02  0.19999994659E+02 0.  0.
         12    1    1    2    0    0 -0.41026966481E+02 -0.13351044732E+02  0.47075472884E+01  0.43400730127E+02  0.00000000000E+00 0. -1.
         11    1    3    3    0    0 -0.60627226780E+00  0.16287127414E+01 -0.16473600385E+01  0.23945911163E+01  0.51100000000E-03 0. -1.
        -11    1    3    3    0    0  0.19710802794E+02  0.19978193633E+01 -0.71528727097E+01  0.21063490149E+02  0.51100000000E-03 0.  1.
        -12    1    3    3    0    0  0.21922435955E+02  0.97245126277E+01  0.40926854598E+01  0.24329188608E+02  0.00000000000E+00 0.  1.
</event>
<event>
 7    1  0.2339217E-009  0.4778727E+02  0.7816164E-02  0.1312668E+00
        -11   -1    0    0    0    0  0.00000000000E+00  0.00000000000E+00  0.45593999997E+02  0.45594000000E+02  0.51100000000E-03 0.  1.
         11   -1    0    0    0    0 -0.00000000000E+00 -0.00000000000E+00 -0.45593999997E+02  0.45594000000E+02  0.51100000000E-03 0. -1.
    9900012    2    1    2    0    0 -0.36340287170E+02 -0.73213924355E+01  0.22569977329E+02  0.47787272640E+02  0.20000007273E+02 0.  0.
         12    1    1    2    0    0  0.36340287170E+02  0.73213924355E+01 -0.22569977329E+02  0.43400727360E+02  0.00000000000E+00 0. -1.
         11    1    3    3    0    0 -0.10944931548E+02  0.38957758342E+01  0.34616755901E+01  0.12122367512E+02  0.51100000000E-03 0. -1.
        -11    1    3    3    0    0 -0.20777925234E+02 -0.35333090966E+01  0.12248368979E+02  0.24376812612E+02  0.51100000000E-03 0.  1.
         12    1    3    3    0    0 -0.46174303873E+01 -0.76838591731E+01  0.68599327595E+01  0.11288092515E+02  0.00000000000E+00 0. -1.
</event>
<event>
 7    1  0.2339217E-009  0.4778727E+02  0.7816164E-02  0.1312668E+00
        -11   -1    0    0    0    0  0.00000000000E+00  0.00000000000E+00  0.45593999997E+02  0.45594000000E+02  0.51100000000E-03 0.  1.
         11   -1    0    0    0    0 -0.00000000000E+00 -0.00000000000E+00 -0.45593999997E+02  0.45594000000E+02  0.51100000000E-03 0. -1.
    9900012    2    1    2    0    0 -0.24894426469E+02  0.18173930175E+02  0.30554854675E+02  0.47787270151E+02  0.19999995926E+02 0.  0.
         12    1    1    2    0    0  0.24894426469E+02 -0.18173930175E+02 -0.30554854675E+02  0.43400729849E+02  0.00000000000E+00 0. -1.
         11    1    3    3    0    0 -0.48077076701E+01  0.83101249795E+00 -0.15546348820E+01  0.51206957233E+01  0.51100000000E-03 0. -1.
        -11    1    3    3    0    0 -0.51547240710E+01  0.73321507799E+00  0.98056287357E+01  0.11102213282E+02  0.51100000000E-03 0.  1.
         12    1    3    3    0    0 -0.14931994728E+02  0.16609702599E+02  0.22303860822E+02  0.31564361145E+02  0.00000000000E+00 0. -1.
</event>
<event>
 7    1  0.2339217E-009  0.4778727E+02  0.7816164E-02  0.1312668E+00
        -11   -1    0    0    0    0  0.00000000000E+00  0.00000000000E+00  0.45593999997E+02  0.45594000000E+02  0.51100000000E-03 0.  1.
         11   -1    0    0    0    0 -0.00000000000E+00 -0.00000000000E+00 -0.45593999997E+02  0.45594000000E+02  0.51100000000E-03 0. -1.
    9900012    2    1    2    0    0 -0.17231906609E+02 -0.33345691451E+02  0.21788745359E+02  0.47787272263E+02  0.20000005558E+02 0.  0.
         12    1    1    2    0    0  0.17231906609E+02  0.33345691451E+02 -0.21788745359E+02  0.43400727737E+02  0.00000000000E+00 0. -1.
         11    1    3    3    0    0 -0.94088148068E-01 -0.22365261478E+01  0.89109759597E+01  0.91878394960E+01  0.51100000000E-03 0.  1.
        -11    1    3    3    0    0 -0.28421674865E+01 -0.10457862329E+01  0.17600516111E+01  0.35027655932E+01  0.51100000000E-03 0. -1.
        -12    1    3    3    0    0 -0.14295650975E+02 -0.30063379070E+02  0.11117717789E+02  0.35096667174E+02  0.00000000000E+00 0.  1.
</event>
<event>
 7    1  0.2339217E-009  0.4778726E+02  0.7816164E-02  0.1312668E+00
        -11   -1    0    0    0    0  0.00000000000E+00  0.00000000000E+00  0.45593999997E+02  0.45594000000E+02  0.51100000000E-03 0. -1.
         11   -1    0    0    0    0 -0.00000000000E+00 -0.00000000000E+00 -0.45593999997E+02  0.45594000000E+02  0.51100000000E-03 0.  1.
    9900012    2    1    2    0    0  0.40896387916E+02 -0.94428563288E+01 -0.11042727008E+02  0.47787263831E+02  0.19999967112E+02 0.  0.
         12    1    1    2    0    0 -0.40896387916E+02  0.94428563288E+01  0.11042727008E+02  0.43400736169E+02  0.00000000000E+00 0. -1.
         11    1    3    3    0    0 -0.40854336286E+00  0.94345305882E+00 -0.66508222182E+00  0.12244778383E+01  0.51100000000E-03 0. -1.
        -11    1    3    3    0    0  0.61906735579E+01 -0.20081474065E+01 -0.81004992821E+01  0.10391110816E+02  0.51100000000E-03 0.  1.
         12    1    3    3    0    0  0.35114257721E+02 -0.83781619811E+01 -0.22771455044E+01  0.36171675177E+02  0.00000000000E+00 0. -1.
</event>
<event>
 7    1  0.2339217E-009  0.4778727E+02  0.7816164E-02  0.1312668E+00
        -11   -1    0    0    0    0  0.00000000000E+00  0.00000000000E+00  0.45593999997E+02  0.45594000000E+02  0.51100000000E-03 0.  1.
         11   -1    0    0    0    0 -0.00000000000E+00 -0.00000000000E+00 -0.45593999997E+02  0.45594000000E+02  0.51100000000E-03 0. -1.
    9900012    2    1    2    0    0  0.10156952300E+02 -0.38606721951E+02  0.17028823089E+02  0.47787268720E+02  0.19999989402E+02 0.  0.
         12    1    1    2    0    0 -0.10156952300E+02  0.38606721951E+02 -0.17028823089E+02  0.43400731280E+02  0.00000000000E+00 0. -1.
         11    1    3    3    0    0 -0.19406424396E+01 -0.11802056868E+00 -0.14983905254E+01  0.24546275401E+01  0.51100000000E-03 0. -1.
        -11    1    3    3    0    0  0.28754156101E+01 -0.47611643705E+01 -0.39357894421E+00  0.55759847328E+01  0.51100000000E-03 0.  1.
        -12    1    3    3    0    0  0.92221791297E+01 -0.33727537012E+02  0.18920792559E+02  0.39756656447E+02  0.00000000000E+00 0.  1.
</event>
<event>
 7    1  0.2339217E-009  0.4778727E+02  0.7816164E-02  0.1312668E+00
        -11   -1    0    0    0    0  0.00000000000E+00  0.00000000000E+00  0.45593999997E+02  0.45594000000E+02  0.51100000000E-03 0.  1.
         11   -1    0    0    0    0 -0.00000000000E+00 -0.00000000000E+00 -0.45593999997E+02  0.45594000000E+02  0.51100000000E-03 0. -1.
    9900012    2    1    2    0    0  0.12958889404E+02 -0.21841403309E+02  0.35194367290E+02  0.47787271872E+02  0.20000003773E+02 0.  0.
         12    1    1    2    0    0 -0.12958889404E+02  0.21841403309E+02 -0.35194367290E+02  0.43400728128E+02  0.00000000000E+00 0. -1.
         11    1    3    3    0    0  0.86593547782E+01 -0.14540162215E+01  0.14896919823E+02  0.17292102498E+02  0.51100000000E-03 0. -1.
        -11    1    3    3    0    0  0.21515458547E+01  0.10113118047E+00  0.20959958795E+01  0.30054244407E+01  0.51100000000E-03 0.  1.
        -12    1    3    3    0    0  0.21479887710E+01 -0.20488518268E+02  0.18201451588E+02  0.27489744933E+02  0.00000000000E+00 0.  1.
</event>
<event>
 7    1  0.2339217E-009  0.4778727E+02  0.7816164E-02  0.1312668E+00
        -11   -1    0    0    0    0  0.00000000000E+00  0.00000000000E+00  0.45593999997E+02  0.45594000000E+02  0.51100000000E-03 0.  1.
         11   -1    0    0    0    0 -0.00000000000E+00 -0.00000000000E+00 -0.45593999997E+02  0.45594000000E+02  0.51100000000E-03 0. -1.
    9900012    2    1    2    0    0  0.28512633700E+02 -0.11226721358E+01  0.32701571639E+02  0.47787268890E+02  0.19999990177E+02 0.  0.
         12    1    1    2    0    0 -0.28512633700E+02  0.11226721358E+01 -0.32701571639E+02  0.43400731110E+02  0.00000000000E+00 0. -1.
         11    1    3    3    0    0  0.70062966545E+01 -0.72096542451E+01  0.82397308950E+01  0.12998479628E+02  0.51100000000E-03 0. -1.
        -11    1    3    3    0    0  0.37276370623E+01 -0.27706197439E+01  0.66357306667E+01  0.80996625594E+01  0.51100000000E-03 0.  1.
        -12    1    3    3    0    0  0.17778699984E+02  0.88576018532E+01  0.17826110077E+02  0.26689126703E+02  0.00000000000E+00 0.  1.
</event>
<event>
 7    1  0.2339217E-009  0.4778727E+02  0.7816164E-02  0.1312668E+00
        -11   -1    0    0    0    0  0.00000000000E+00  0.00000000000E+00  0.45593999997E+02  0.45594000000E+02  0.51100000000E-03 0.  1.
         11   -1    0    0    0    0 -0.00000000000E+00 -0.00000000000E+00 -0.45593999997E+02  0.45594000000E+02  0.51100000000E-03 0. -1.
    9900012    2    1    2    0    0 -0.40252376589E+02  0.32948834204E+01  0.15890663630E+02  0.47787271107E+02  0.20000000285E+02 0.  0.
         12    1    1    2    0    0  0.40252376589E+02 -0.32948834204E+01 -0.15890663630E+02  0.43400728893E+02  0.00000000000E+00 0. -1.
         11    1    3    3    0    0 -0.85043178451E+00 -0.50120305061E+00 -0.18846288882E+00  0.10049662878E+01  0.51100000000E-03 0. -1.
        -11    1    3    3    0    0 -0.34114136808E+02  0.88318463133E+01  0.84827000600E+01  0.36245441645E+02  0.51100000000E-03 0.  1.
         12    1    3    3    0    0 -0.52878079963E+01 -0.50357598423E+01  0.75964264593E+01  0.10536863174E+02  0.00000000000E+00 0. -1.
</event>
<event>
 7    1  0.2339217E-009  0.4778727E+02  0.7816164E-02  0.1312668E+00
        -11   -1    0    0    0    0  0.00000000000E+00  0.00000000000E+00  0.45593999997E+02  0.45594000000E+02  0.51100000000E-03 0.  1.
         11   -1    0    0    0    0 -0.00000000000E+00 -0.00000000000E+00 -0.45593999997E+02  0.45594000000E+02  0.51100000000E-03 0. -1.
    9900012    2    1    2    0    0 -0.16038050798E+02  0.39383493126E+02  0.86801488407E+01  0.47787267425E+02  0.19999983496E+02 0.  0.
         12    1    1    2    0    0  0.16038050798E+02 -0.39383493126E+02 -0.86801488407E+01  0.43400732575E+02  0.00000000000E+00 0. -1.
         11    1    3    3    0    0  0.20174129892E+00 -0.16575508465E+01 -0.13362490823E+00  0.16751209621E+01  0.51100000000E-03 0. -1.
        -11    1    3    3    0    0 -0.46569837328E+01  0.11665014906E+02  0.72363482188E+01  0.14495682324E+02  0.51100000000E-03 0.  1.
         12    1    3    3    0    0 -0.11582808364E+02  0.29376029066E+02  0.15774255301E+01  0.31616464138E+02  0.00000000000E+00 0. -1.
</event>
<event>
 7    1  0.2339217E-009  0.4778727E+02  0.7816164E-02  0.1312668E+00
        -11   -1    0    0    0    0  0.00000000000E+00  0.00000000000E+00  0.45593999997E+02  0.45594000000E+02  0.51100000000E-03 0.  1.
         11   -1    0    0    0    0 -0.00000000000E+00 -0.00000000000E+00 -0.45593999997E+02  0.45594000000E+02  0.51100000000E-03 0. -1.
    9900012    2    1    2    0    0  0.18879991241E+02 -0.13878709931E+02  0.36531507988E+02  0.47787265738E+02  0.19999975806E+02 0.  0.
         12    1    1    2    0    0 -0.18879991241E+02  0.13878709931E+02 -0.36531507988E+02  0.43400734262E+02  0.00000000000E+00 0. -1.
         11    1    3    3    0    0 -0.29606041010E+00 -0.33440640737E+01  0.26625233741E+01  0.42847925590E+01  0.51100000000E-03 0. -1.
        -11    1    3    3    0    0  0.92567211417E+01 -0.58714172923E+01  0.29898617728E+02  0.31844744772E+02  0.51100000000E-03 0.  1.
         12    1    3    3    0    0  0.99193305091E+01 -0.46632285652E+01  0.39703668862E+01  0.11657728407E+02  0.00000000000E+00 0. -1.
</event>
<event>
 7    1  0.2339217E-009  0.4778727E+02  0.7816164E-02  0.1312668E+00
        -11   -1    0    0    0    0  0.00000000000E+00  0.00000000000E+00  0.45593999997E+02  0.45594000000E+02  0.51100000000E-03 0. -1.
         11   -1    0    0    0    0 -0.00000000000E+00 -0.00000000000E+00 -0.45593999997E+02  0.45594000000E+02  0.51100000000E-03 0.  1.
    9900012    2    1    2    0    0  0.46617228283E+01  0.11786802533E+02 -0.41508586765E+02  0.47787272484E+02  0.20000006562E+02 0.  0.
         12    1    1    2    0    0 -0.46617228283E+01 -0.11786802533E+02  0.41508586765E+02  0.43400727516E+02  0.00000000000E+00 0. -1.
         11    1    3    3    0    0  0.24918769677E+01 -0.13634249061E-01 -0.11461906055E+02  0.11729660157E+02  0.51100000000E-03 0. -1.
        -11    1    3    3    0    0  0.15742217207E+01  0.14928544116E+02 -0.29086483025E+02  0.32731683404E+02  0.51100000000E-03 0.  1.
        -12    1    3    3    0    0  0.59562413992E+00 -0.31281073335E+01 -0.96019768537E+00  0.33259289230E+01  0.00000000000E+00 0.  1.
</event>
<event>
 7    1  0.2339217E-009  0.4778727E+02  0.7816164E-02  0.1312668E+00
        -11   -1    0    0    0    0  0.00000000000E+00  0.00000000000E+00  0.45593999997E+02  0.45594000000E+02  0.51100000000E-03 0.  1.
         11   -1    0    0    0    0 -0.00000000000E+00 -0.00000000000E+00 -0.45593999997E+02  0.45594000000E+02  0.51100000000E-03 0. -1.
    9900012    2    1    2    0    0 -0.26882816041E+02  0.10030282879E+02  0.32562721911E+02  0.47787271536E+02  0.20000002241E+02 0.  0.
         12    1    1    2    0    0  0.26882816041E+02 -0.10030282879E+02 -0.32562721911E+02  0.43400728464E+02  0.00000000000E+00 0. -1.
         11    1    3    3    0    0 -0.21640482604E+02  0.10104953220E+01  0.25124525406E+02  0.33174890584E+02  0.51100000000E-03 0.  1.
        -11    1    3    3    0    0 -0.61511208171E+01  0.44132524337E+01  0.29745607496E+01  0.81339471516E+01  0.51100000000E-03 0. -1.
        -12    1    3    3    0    0  0.90878738016E+00  0.46065351230E+01  0.44636357559E+01  0.64784338002E+01  0.00000000000E+00 0.  1.
</event>
<event>
 7    1  0.2339217E-009  0.4778728E+02  0.7816164E-02  0.1312668E+00
        -11   -1    0    0    0    0  0.00000000000E+00  0.00000000000E+00  0.45593999997E+02  0.45594000000E+02  0.51100000000E-03 0.  1.
         11   -1    0    0    0    0 -0.00000000000E+00 -0.00000000000E+00 -0.45593999997E+02  0.45594000000E+02  0.51100000000E-03 0. -1.
    9900012    2    1    2    0    0  0.55994120075E+01 -0.85995408472E+00  0.43029405330E+02  0.47787278129E+02  0.20000032301E+02 0.  0.
         12    1    1    2    0    0 -0.55994120075E+01  0.85995408472E+00 -0.43029405330E+02  0.43400721871E+02  0.00000000000E+00 0. -1.
         11    1    3    3    0    0  0.63076543303E+01 -0.75972397225E+01  0.25091899315E+02  0.26964939571E+02  0.51100000000E-03 0. -1.
        -11    1    3    3    0    0  0.22308240330E+01  0.26536837218E+01  0.14029789823E+02  0.14451768608E+02  0.51100000000E-03 0.  1.
         12    1    3    3    0    0 -0.29390663558E+01  0.40836019159E+01  0.39077161917E+01  0.63705699499E+01  0.00000000000E+00 0. -1.
</event>
<event>
 7    1  0.2339217E-009  0.4778727E+02  0.7816164E-02  0.1312668E+00
        -11   -1    0    0    0    0  0.00000000000E+00  0.00000000000E+00  0.45593999997E+02  0.45594000000E+02  0.51100000000E-03 0.  1.
         11   -1    0    0    0    0 -0.00000000000E+00 -0.00000000000E+00 -0.45593999997E+02  0.45594000000E+02  0.51100000000E-03 0. -1.
    9900012    2    1    2    0    0  0.41204082426E+02 -0.13309287042E+02 -0.29512542613E+01  0.47787269225E+02  0.19999991703E+02 0.  0.
         12    1    1    2    0    0 -0.41204082426E+02  0.13309287042E+02  0.29512542613E+01  0.43400730775E+02  0.00000000000E+00 0. -1.
         11    1    3    3    0    0  0.21495146838E+02 -0.45331480927E-01 -0.13642239246E+01  0.21538442370E+02  0.51100000000E-03 0. -1.
        -11    1    3    3    0    0  0.17777138681E+02 -0.61452336108E+01 -0.73600919415E+00  0.18823715510E+02  0.51100000000E-03 0.  1.
        -12    1    3    3    0    0  0.19317969068E+01 -0.71187219507E+01 -0.85102114252E+00  0.74251113450E+01  0.00000000000E+00 0.  1.
</event>
<event>
 7    1  0.2339217E-009  0.4778725E+02  0.7816164E-02  0.1312668E+00
        -11   -1    0    0    0    0  0.00000000000E+00  0.00000000000E+00  0.45593999997E+02  0.45594000000E+02  0.51100000000E-03 0.  1.
         11   -1    0    0    0    0 -0.00000000000E+00 -0.00000000000E+00 -0.45593999997E+02  0.45594000000E+02  0.51100000000E-03 0. -1.
    9900012    2    1    2    0    0  0.34646684757E+02  0.12845617359E+02  0.22764493504E+02  0.47787253296E+02  0.19999919077E+02 0.  0.
         12    1    1    2    0    0 -0.34646684757E+02 -0.12845617359E+02 -0.22764493504E+02  0.43400746704E+02  0.00000000000E+00 0. -1.
         11    1    3    3    0    0  0.12805014140E+01  0.63218263929E+00  0.31773551384E+01  0.34835218813E+01  0.51100000000E-03 0. -1.
        -11    1    3    3    0    0  0.33997978658E+02  0.11223270375E+02  0.21715008348E+02  0.41873212661E+02  0.51100000000E-03 0.  1.
         12    1    3    3    0    0 -0.63179531502E+00  0.99016434459E+00 -0.21278699823E+01  0.24305187535E+01  0.00000000000E+00 0. -1.
</event>
<event>
 7    1  0.2339217E-009  0.4778727E+02  0.7816164E-02  0.1312668E+00
        -11   -1    0    0    0    0  0.00000000000E+00  0.00000000000E+00  0.45593999997E+02  0.45594000000E+02  0.51100000000E-03 0. -1.
         11   -1    0    0    0    0 -0.00000000000E+00 -0.00000000000E+00 -0.45593999997E+02  0.45594000000E+02  0.51100000000E-03 0.  1.
    9900012    2    1    2    0    0 -0.29232237617E+02  0.32054351497E+02 -0.12721536544E+01  0.47787267968E+02  0.19999985972E+02 0.  0.
         12    1    1    2    0    0  0.29232237617E+02 -0.32054351497E+02  0.12721536544E+01  0.43400732032E+02  0.00000000000E+00 0. -1.
         11    1    3    3    0    0 -0.46416338096E+01 -0.18984457583E+01 -0.22672917652E+01  0.55035872783E+01  0.51100000000E-03 0. -1.
        -11    1    3    3    0    0 -0.90743758097E+01  0.91426880244E+01 -0.12099470143E+01  0.12938199747E+02  0.51100000000E-03 0.  1.
         12    1    3    3    0    0 -0.15516227998E+02  0.24810109231E+02  0.22050851251E+01  0.29345480943E+02  0.00000000000E+00 0. -1.
</event>
<event>
 7    1  0.2339217E-009  0.4778727E+02  0.7816164E-02  0.1312668E+00
        -11   -1    0    0    0    0  0.00000000000E+00  0.00000000000E+00  0.45593999997E+02  0.45594000000E+02  0.51100000000E-03 0.  1.
         11   -1    0    0    0    0 -0.00000000000E+00 -0.00000000000E+00 -0.45593999997E+02  0.45594000000E+02  0.51100000000E-03 0. -1.
    9900012    2    1    2    0    0  0.39744087932E+02  0.16954767343E+02  0.40702110904E+01  0.47787270980E+02  0.19999999705E+02 0.  0.
         12    1    1    2    0    0 -0.39744087932E+02 -0.16954767343E+02 -0.40702110904E+01  0.43400729020E+02  0.00000000000E+00 0. -1.
         11    1    3    3    0    0  0.86827512743E+01 -0.12419586561E+01 -0.23402635678E+01  0.90779658967E+01  0.51100000000E-03 0. -1.
        -11    1    3    3    0    0  0.15773845862E+01  0.17609820466E+01 -0.28534893614E+01  0.37056175866E+01  0.51100000000E-03 0.  1.
        -12    1    3    3    0    0  0.29483952071E+02  0.16435743952E+02  0.92639640196E+01  0.35003687497E+02  0.00000000000E+00 0.  1.
</event>
<event>
 7    1  0.2339217E-009  0.4778728E+02  0.7816164E-02  0.1312668E+00
        -11   -1    0    0    0    0  0.00000000000E+00  0.00000000000E+00  0.45593999997E+02  0.45594000000E+02  0.51100000000E-03 0. -1.
         11   -1    0    0    0    0 -0.00000000000E+00 -0.00000000000E+00 -0.45593999997E+02  0.45594000000E+02  0.51100000000E-03 0.  1.
    9900012    2    1    2    0    0  0.30585104728E+02  0.56119038614E+01 -0.30276729611E+02  0.47787280512E+02  0.20000043165E+02 0.  0.
         12    1    1    2    0    0 -0.30585104728E+02 -0.56119038614E+01  0.30276729611E+02  0.43400719488E+02  0.00000000000E+00 0. -1.
         11    1    3    3    0    0  0.34752803203E+01  0.34402184396E+01 -0.21347331503E+01  0.53357063357E+01  0.51100000000E-03 0. -1.
        -11    1    3    3    0    0  0.93327338967E+01 -0.40000927464E+01 -0.18971845593E+02  0.21518168822E+02  0.51100000000E-03 0.  1.
        -12    1    3    3    0    0  0.17777090511E+02  0.61717781682E+01 -0.91701508670E+01  0.20933405354E+02  0.00000000000E+00 0.  1.
</event>
<event>
 7    1  0.2339217E-009  0.4778727E+02  0.7816164E-02  0.1312668E+00
        -11   -1    0    0    0    0  0.00000000000E+00  0.00000000000E+00  0.45593999997E+02  0.45594000000E+02  0.51100000000E-03 0.  1.
         11   -1    0    0    0    0 -0.00000000000E+00 -0.00000000000E+00 -0.45593999997E+02  0.45594000000E+02  0.51100000000E-03 0. -1.
    9900012    2    1    2    0    0  0.43255486127E+02  0.34820268425E+00  0.35305703643E+01  0.47787271293E+02  0.20000001135E+02 0.  0.
         12    1    1    2    0    0 -0.43255486127E+02 -0.34820268425E+00 -0.35305703643E+01  0.43400728707E+02  0.00000000000E+00 0. -1.
         11    1    3    3    0    0 -0.38535092881E+00  0.17408089025E+01 -0.20968115970E+01  0.27523680909E+01  0.51100000000E-03 0. -1.
        -11    1    3    3    0    0  0.16261784554E+02  0.40697236227E+01  0.21230704402E+01  0.16897210290E+02  0.51100000000E-03 0.  1.
         12    1    3    3    0    0  0.27379052502E+02 -0.54623298409E+01  0.35043115211E+01  0.28137692912E+02  0.00000000000E+00 0. -1.
</event>
<event>
 7    1  0.2339217E-009  0.4778727E+02  0.7816164E-02  0.1312668E+00
        -11   -1    0    0    0    0  0.00000000000E+00  0.00000000000E+00  0.45593999997E+02  0.45594000000E+02  0.51100000000E-03 0.  1.
         11   -1    0    0    0    0 -0.00000000000E+00 -0.00000000000E+00 -0.45593999997E+02  0.45594000000E+02  0.51100000000E-03 0. -1.
    9900012    2    1    2    0    0 -0.14773200366E+02 -0.27306179188E+02  0.30327349165E+02  0.47787274450E+02  0.20000015526E+02 0.  0.
         12    1    1    2    0    0  0.14773200366E+02  0.27306179188E+02 -0.30327349165E+02  0.43400725550E+02  0.00000000000E+00 0. -1.
         11    1    3    3    0    0 -0.98374722311E+01 -0.97007095502E+01  0.22429256044E+02  0.26342952618E+02  0.51100000000E-03 0. -1.
        -11    1    3    3    0    0 -0.17426527037E+01 -0.10648377833E+02  0.85427170853E+01  0.13762369141E+02  0.51100000000E-03 0.  1.
         12    1    3    3    0    0 -0.31930754312E+01 -0.69570918042E+01 -0.64462396413E+00  0.76819526903E+01  0.00000000000E+00 0. -1.
</event>
<event>
 7    1  0.2339217E-009  0.4778727E+02  0.7816164E-02  0.1312668E+00
        -11   -1    0    0    0    0  0.00000000000E+00  0.00000000000E+00  0.45593999997E+02  0.45594000000E+02  0.51100000000E-03 0.  1.
         11   -1    0    0    0    0 -0.00000000000E+00 -0.00000000000E+00 -0.45593999997E+02  0.45594000000E+02  0.51100000000E-03 0. -1.
    9900012    2    1    2    0    0  0.69078319824E+01  0.13031277635E+01  0.42827644741E+02  0.47787269145E+02  0.19999991340E+02 0.  0.
         12    1    1    2    0    0 -0.69078319824E+01 -0.13031277635E+01 -0.42827644741E+02  0.43400730855E+02  0.00000000000E+00 0. -1.
         11    1    3    3    0    0 -0.12618872378E+01 -0.13859889366E+01  0.54493650163E+00  0.19519940536E+01  0.51100000000E-03 0. -1.
        -11    1    3    3    0    0  0.90443957834E+01 -0.47300709734E+01  0.23447692101E+02  0.25572816263E+02  0.51100000000E-03 0.  1.
         12    1    3    3    0    0 -0.87467656318E+00  0.74191876735E+01  0.18835016138E+02  0.20262458828E+02  0.00000000000E+00 0. -1.
</event>
<event>
 7    1  0.2339217E-009  0.4778727E+02  0.7816164E-02  0.1312668E+00
        -11   -1    0    0    0    0  0.00000000000E+00  0.00000000000E+00  0.45593999997E+02  0.45594000000E+02  0.51100000000E-03 0. -1.
         11   -1    0    0    0    0 -0.00000000000E+00 -0.00000000000E+00 -0.45593999997E+02  0.45594000000E+02  0.51100000000E-03 0.  1.
    9900012    2    1    2    0    0 -0.21537642272E+02  0.34616624379E+02 -0.14880955191E+02  0.47787267916E+02  0.19999985735E+02 0.  0.
         12    1    1    2    0    0  0.21537642272E+02 -0.34616624379E+02  0.14880955191E+02  0.43400732084E+02  0.00000000000E+00 0. -1.
         11    1    3    3    0    0 -0.52585371712E+00 -0.12895021200E+01 -0.15161807037E+01  0.20586748254E+01  0.51100000000E-03 0.  1.
        -11    1    3    3    0    0  0.21793117760E-01  0.60201047954E+01  0.16134512105E+01  0.62326047330E+01  0.51100000000E-03 0. -1.
         12    1    3    3    0    0 -0.21033581673E+02  0.29886021704E+02 -0.14978225698E+02  0.39495988357E+02  0.00000000000E+00 0. -1.
</event>
<event>
 7    1  0.2339217E-009  0.4778727E+02  0.7816164E-02  0.1312668E+00
        -11   -1    0    0    0    0  0.00000000000E+00  0.00000000000E+00  0.45593999997E+02  0.45594000000E+02  0.51100000000E-03 0.  1.
         11   -1    0    0    0    0 -0.00000000000E+00 -0.00000000000E+00 -0.45593999997E+02  0.45594000000E+02  0.51100000000E-03 0. -1.
    9900012    2    1    2    0    0  0.34537679646E-01  0.38534881640E+02  0.19967096435E+02  0.47787271481E+02  0.20000001992E+02 0.  0.
         12    1    1    2    0    0 -0.34537679646E-01 -0.38534881640E+02 -0.19967096435E+02  0.43400728519E+02  0.00000000000E+00 0. -1.
         11    1    3    3    0    0 -0.71194793384E+00  0.18741736773E+01 -0.75621821215E+00  0.21427232856E+01  0.51100000000E-03 0. -1.
        -11    1    3    3    0    0  0.89943117712E+01  0.23185170836E+02  0.12508426025E+02  0.27837214531E+02  0.51100000000E-03 0.  1.
         12    1    3    3    0    0 -0.82478261577E+01  0.13475537127E+02  0.82148886221E+01  0.17807333665E+02  0.00000000000E+00 0. -1.
</event>
<event>
 7    1  0.2339217E-009  0.4778727E+02  0.7816164E-02  0.1312668E+00
        -11   -1    0    0    0    0  0.00000000000E+00  0.00000000000E+00  0.45593999997E+02  0.45594000000E+02  0.51100000000E-03 0.  1.
         11   -1    0    0    0    0 -0.00000000000E+00 -0.00000000000E+00 -0.45593999997E+02  0.45594000000E+02  0.51100000000E-03 0. -1.
    9900012    2    1    2    0    0 -0.18258198008E+02  0.15078367694E+02  0.36371750242E+02  0.47787272098E+02  0.20000004802E+02 0.  0.
         12    1    1    2    0    0  0.18258198008E+02 -0.15078367694E+02 -0.36371750242E+02  0.43400727902E+02  0.00000000000E+00 0. -1.
         11    1    3    3    0    0  0.19847245227E+00 -0.22841311747E+01  0.12256555680E+02  0.12469154099E+02  0.51100000000E-03 0. -1.
        -11    1    3    3    0    0 -0.20560576445E+01  0.41478851731E+01  0.56804219002E+01  0.73279954744E+01  0.51100000000E-03 0.  1.
        -12    1    3    3    0    0 -0.16400612816E+02  0.13214613696E+02  0.18434772661E+02  0.27990122524E+02  0.00000000000E+00 0.  1.
</event>
<event>
 7    1  0.2339217E-009  0.4778727E+02  0.7816164E-02  0.1312668E+00
        -11   -1    0    0    0    0  0.00000000000E+00  0.00000000000E+00  0.45593999997E+02  0.45594000000E+02  0.51100000000E-03 0.  1.
         11   -1    0    0    0    0 -0.00000000000E+00 -0.00000000000E+00 -0.45593999997E+02  0.45594000000E+02  0.51100000000E-03 0. -1.
    9900012    2    1    2    0    0  0.39487694399E+02 -0.16634666555E+02  0.69016787856E+01  0.47787270624E+02  0.19999998083E+02 0.  0.
         12    1    1    2    0    0 -0.39487694399E+02  0.16634666555E+02 -0.69016787856E+01  0.43400729376E+02  0.00000000000E+00 0. -1.
         11    1    3    3    0    0  0.37662794117E+01 -0.70209592642E+00 -0.86841806607E+00  0.39283520076E+01  0.51100000000E-03 0. -1.
        -11    1    3    3    0    0  0.61986824281E+01 -0.69814124621E+00  0.86033570091E+01  0.10626797125E+02  0.51100000000E-03 0.  1.
         12    1    3    3    0    0  0.29522732559E+02 -0.15234429382E+02 -0.83326015745E+00  0.33232121492E+02  0.00000000000E+00 0. -1.
</event>
<event>
 7    1  0.2339217E-009  0.4778729E+02  0.7816164E-02  0.1312668E+00
        -11   -1    0    0    0    0  0.00000000000E+00  0.00000000000E+00  0.45593999997E+02  0.45594000000E+02  0.51100000000E-03 0. -1.
         11   -1    0    0    0    0 -0.00000000000E+00 -0.00000000000E+00 -0.45593999997E+02  0.45594000000E+02  0.51100000000E-03 0.  1.
    9900012    2    1    2    0    0 -0.35461502594E+02 -0.18776719307E+00 -0.25021347466E+02  0.47787294340E+02  0.20000106215E+02 0.  0.
         12    1    1    2    0    0  0.35461502594E+02  0.18776719307E+00  0.25021347466E+02  0.43400705660E+02  0.00000000000E+00 0. -1.
         11    1    3    3    0    0 -0.18376650868E+02 -0.34805250446E+01 -0.15652253387E+02  0.24388693857E+02  0.51100000000E-03 0. -1.
        -11    1    3    3    0    0 -0.17060599815E+02  0.62326982592E+01 -0.65023486613E+01  0.19292255753E+02  0.51100000000E-03 0.  1.
         12    1    3    3    0    0 -0.24251910639E-01 -0.29399404077E+01 -0.28667454174E+01  0.41063447303E+01  0.00000000000E+00 0. -1.
</event>
<event>
 7    1  0.2339217E-009  0.4778727E+02  0.7816164E-02  0.1312668E+00
        -11   -1    0    0    0    0  0.00000000000E+00  0.00000000000E+00  0.45593999997E+02  0.45594000000E+02  0.51100000000E-03 0.  1.
         11   -1    0    0    0    0 -0.00000000000E+00 -0.00000000000E+00 -0.45593999997E+02  0.45594000000E+02  0.51100000000E-03 0. -1.
    9900012    2    1    2    0    0  0.98121332544E+01 -0.27157264946E+02  0.32401057050E+02  0.47787268482E+02  0.19999988317E+02 0.  0.
         12    1    1    2    0    0 -0.98121332544E+01  0.27157264946E+02 -0.32401057050E+02  0.43400731518E+02  0.00000000000E+00 0. -1.
         11    1    3    3    0    0  0.64405177730E+01 -0.44584820179E+00  0.75560653198E+01  0.99384693581E+01  0.51100000000E-03 0. -1.
        -11    1    3    3    0    0  0.38193714078E+01 -0.41679439068E+01  0.75492110595E+01  0.94313277031E+01  0.51100000000E-03 0.  1.
        -12    1    3    3    0    0 -0.44775592638E+00 -0.22543472838E+02  0.17295780671E+02  0.28417471421E+02  0.00000000000E+00 0.  1.
</event>
<event>
 7    1  0.2339217E-009  0.4778726E+02  0.7816164E-02  0.1312668E+00
        -11   -1    0    0    0    0  0.00000000000E+00  0.00000000000E+00  0.45593999997E+02  0.45594000000E+02  0.51100000000E-03 0. -1.
         11   -1    0    0    0    0 -0.00000000000E+00 -0.00000000000E+00 -0.45593999997E+02  0.45594000000E+02  0.51100000000E-03 0.  1.
    9900012    2    1    2    0    0  0.26993712297E+02  0.27670009308E+02  0.19731548977E+02  0.47787263328E+02  0.19999964818E+02 0.  0.
         12    1    1    2    0    0 -0.26993712297E+02 -0.27670009308E+02 -0.19731548977E+02  0.43400736672E+02  0.00000000000E+00 0. -1.
         11    1    3    3    0    0  0.35305695174E+01  0.37065681015E+01  0.81876521881E+00  0.51840085795E+01  0.51100000000E-03 0. -1.
        -11    1    3    3    0    0  0.22474850170E+01  0.12983806728E+02  0.19859225891E+01  0.13325701289E+02  0.51100000000E-03 0.  1.
         12    1    3    3    0    0  0.21215657762E+02  0.10979634478E+02  0.16926861169E+02  0.29277553460E+02  0.00000000000E+00 0. -1.
</event>
<event>
 7    1  0.2339217E-009  0.4778728E+02  0.7816164E-02  0.1312668E+00
        -11   -1    0    0    0    0  0.00000000000E+00  0.00000000000E+00  0.45593999997E+02  0.45594000000E+02  0.51100000000E-03 0. -1.
         11   -1    0    0    0    0 -0.00000000000E+00 -0.00000000000E+00 -0.45593999997E+02  0.45594000000E+02  0.51100000000E-03 0.  1.
    9900012    2    1    2    0    0 -0.84391463325E+01  0.37576004174E+02 -0.20011182620E+02  0.47787277536E+02  0.20000029598E+02 0.  0.
         12    1    1    2    0    0  0.84391463325E+01 -0.37576004174E+02  0.20011182620E+02  0.43400722464E+02  0.00000000000E+00 0. -1.
         11    1    3    3    0    0 -0.15365165072E+01  0.13687771184E+02 -0.40784725036E+01  0.14364884308E+02  0.51100000000E-03 0. -1.
        -11    1    3    3    0    0 -0.22655017485E+01  0.14807827233E+02 -0.17577278890E+02  0.23094695906E+02  0.51100000000E-03 0.  1.
        -12    1    3    3    0    0 -0.46371280768E+01  0.90804057579E+01  0.16445687738E+01  0.10327697322E+02  0.00000000000E+00 0.  1.
</event>
<event>
 7    1  0.2339217E-009  0.4778727E+02  0.7816164E-02  0.1312668E+00
        -11   -1    0    0    0    0  0.00000000000E+00  0.00000000000E+00  0.45593999997E+02  0.45594000000E+02  0.51100000000E-03 0.  1.
         11   -1    0    0    0    0 -0.00000000000E+00 -0.00000000000E+00 -0.45593999997E+02  0.45594000000E+02  0.51100000000E-03 0. -1.
    9900012    2    1    2    0    0 -0.34941240134E+01 -0.14161774208E+01  0.43236662159E+02  0.47787269410E+02  0.19999992547E+02 0.  0.
         12    1    1    2    0    0  0.34941240134E+01  0.14161774208E+01 -0.43236662159E+02  0.43400730590E+02  0.00000000000E+00 0. -1.
         11    1    3    3    0    0 -0.73190921691E+01  0.39514791080E+01  0.10070234212E+02  0.13061122259E+02  0.51100000000E-03 0. -1.
        -11    1    3    3    0    0  0.26319204823E+00 -0.13273009328E+01  0.24398490049E+02  0.24435984015E+02  0.51100000000E-03 0.  1.
        -12    1    3    3    0    0  0.35617761075E+01 -0.40403555961E+01  0.87679378984E+01  0.10290163136E+02  0.00000000000E+00 0.  1.
</event>
<event>
 7    1  0.2339217E-009  0.4778727E+02  0.7816164E-02  0.1312668E+00
        -11   -1    0    0    0    0  0.00000000000E+00  0.00000000000E+00  0.45593999997E+02  0.45594000000E+02  0.51100000000E-03 0.  1.
         11   -1    0    0    0    0 -0.00000000000E+00 -0.00000000000E+00 -0.45593999997E+02  0.45594000000E+02  0.51100000000E-03 0. -1.
    9900012    2    1    2    0    0  0.13874947700E+02  0.10441472520E+01  0.41109838396E+02  0.47787271548E+02  0.20000002298E+02 0.  0.
         12    1    1    2    0    0 -0.13874947700E+02 -0.10441472520E+01 -0.41109838396E+02  0.43400728452E+02  0.00000000000E+00 0. -1.
         11    1    3    3    0    0  0.11852079920E+01  0.11782948954E+00  0.76217957122E+01  0.77142965922E+01  0.51100000000E-03 0. -1.
        -11    1    3    3    0    0  0.55564211810E+01  0.47104888786E+01  0.30665754445E+02  0.31519058008E+02  0.51100000000E-03 0.  1.
         12    1    3    3    0    0  0.71333185268E+01 -0.37841711161E+01  0.28222882394E+01  0.85539169477E+01  0.00000000000E+00 0. -1.
</event>
<event>
 7    1  0.2339217E-009  0.4778730E+02  0.7816164E-02  0.1312668E+00
        -11   -1    0    0    0    0  0.00000000000E+00  0.00000000000E+00  0.45593999997E+02  0.45594000000E+02  0.51100000000E-03 0. -1.
         11   -1    0    0    0    0 -0.00000000000E+00 -0.00000000000E+00 -0.45593999997E+02  0.45594000000E+02  0.51100000000E-03 0.  1.
    9900012    2    1    2    0    0 -0.25786429452E+02  0.30872169245E+01 -0.34772827481E+02  0.47787304346E+02  0.20000151836E+02 0.  0.
         12    1    1    2    0    0  0.25786429452E+02 -0.30872169245E+01  0.34772827481E+02  0.43400695654E+02  0.00000000000E+00 0. -1.
         11    1    3    3    0    0  0.68727222104E+00 -0.32256820519E+00 -0.12246937133E+01  0.14409261970E+01  0.51100000000E-03 0. -1.
        -11    1    3    3    0    0 -0.13612937376E+02 -0.50838590157E+00 -0.45144751079E+01  0.14350993205E+02  0.51100000000E-03 0.  1.
         12    1    3    3    0    0 -0.12860764297E+02  0.39181710313E+01 -0.29033658660E+02  0.31995384944E+02  0.00000000000E+00 0. -1.
</event>
<event>
 7    1  0.2339217E-009  0.4778728E+02  0.7816164E-02  0.1312668E+00
        -11   -1    0    0    0    0  0.00000000000E+00  0.00000000000E+00  0.45593999997E+02  0.45594000000E+02  0.51100000000E-03 0.  1.
         11   -1    0    0    0    0 -0.00000000000E+00 -0.00000000000E+00 -0.45593999997E+02  0.45594000000E+02  0.51100000000E-03 0. -1.
    9900012    2    1    2    0    0 -0.35303146944E+02  0.23681827703E+02  0.87453863414E+01  0.47787275009E+02  0.20000018074E+02 0.  0.
         12    1    1    2    0    0  0.35303146944E+02 -0.23681827703E+02 -0.87453863414E+01  0.43400724991E+02  0.00000000000E+00 0. -1.
         11    1    3    3    0    0 -0.21068118012E+02  0.18673740911E+02  0.43159909895E+01  0.28481607655E+02  0.51100000000E-03 0. -1.
        -11    1    3    3    0    0 -0.27753117114E+01  0.48916160803E+01 -0.22310839869E+01  0.60504544450E+01  0.51100000000E-03 0.  1.
        -12    1    3    3    0    0 -0.11459717221E+02  0.11647071179E+00  0.66604793388E+01  0.13255212908E+02  0.00000000000E+00 0.  1.
</event>
<event>
 7    1  0.2339217E-009  0.4778727E+02  0.7816164E-02  0.1312668E+00
        -11   -1    0    0    0    0  0.00000000000E+00  0.00000000000E+00  0.45593999997E+02  0.45594000000E+02  0.51100000000E-03 0.  1.
         11   -1    0    0    0    0 -0.00000000000E+00 -0.00000000000E+00 -0.45593999997E+02  0.45594000000E+02  0.51100000000E-03 0. -1.
    9900012    2    1    2    0    0  0.41307177578E+02  0.22207804138E+01  0.13130441992E+02  0.47787270836E+02  0.19999999049E+02 0.  0.
         12    1    1    2    0    0 -0.41307177578E+02 -0.22207804138E+01 -0.13130441992E+02  0.43400729164E+02  0.00000000000E+00 0. -1.
         11    1    3    3    0    0  0.85292940687E+01  0.42510231787E+01  0.49235960436E+01  0.10726688848E+02  0.51100000000E-03 0. -1.
        -11    1    3    3    0    0  0.55662297573E+01 -0.18976266082E+01  0.78978843718E+01  0.98468511854E+01  0.51100000000E-03 0.  1.
         12    1    3    3    0    0  0.27211653752E+02 -0.13261615669E+00  0.30896157618E+00  0.27213730803E+02  0.00000000000E+00 0. -1.
</event>
<event>
 7    1  0.2339217E-009  0.4778728E+02  0.7816164E-02  0.1312668E+00
        -11   -1    0    0    0    0  0.00000000000E+00  0.00000000000E+00  0.45593999997E+02  0.45594000000E+02  0.51100000000E-03 0. -1.
         11   -1    0    0    0    0 -0.00000000000E+00 -0.00000000000E+00 -0.45593999997E+02  0.45594000000E+02  0.51100000000E-03 0.  1.
    9900012    2    1    2    0    0  0.33684586381E+02  0.20021510608E+02  0.18657718051E+02  0.47787277776E+02  0.20000030690E+02 0.  0.
         12    1    1    2    0    0 -0.33684586381E+02 -0.20021510608E+02 -0.18657718051E+02  0.43400722224E+02  0.00000000000E+00 0. -1.
         11    1    3    3    0    0  0.72662217021E+00  0.35144136467E+01 -0.13561525251E+01  0.38364349325E+01  0.51100000000E-03 0. -1.
        -11    1    3    3    0    0  0.21002707046E+02  0.77175929732E+01  0.51764259391E+01  0.22966722237E+02  0.51100000000E-03 0.  1.
         12    1    3    3    0    0  0.11955257165E+02  0.87895039883E+01  0.14837444637E+02  0.20984120606E+02  0.00000000000E+00 0. -1.
</event>
<event>
 7    1  0.2339217E-009  0.4778728E+02  0.7816164E-02  0.1312668E+00
        -11   -1    0    0    0    0  0.00000000000E+00  0.00000000000E+00  0.45593999997E+02  0.45594000000E+02  0.51100000000E-03 0. -1.
         11   -1    0    0    0    0 -0.00000000000E+00 -0.00000000000E+00 -0.45593999997E+02  0.45594000000E+02  0.51100000000E-03 0.  1.
    9900012    2    1    2    0    0  0.17066451448E+01  0.35912528036E+02 -0.24310498690E+02  0.47787278184E+02  0.20000032553E+02 0.  0.
         12    1    1    2    0    0 -0.17066451448E+01 -0.35912528036E+02  0.24310498690E+02  0.43400721816E+02  0.00000000000E+00 0. -1.
         11    1    3    3    0    0  0.94598084931E+00  0.21844089244E+01 -0.35896657623E+01  0.43072291165E+01  0.51100000000E-03 0. -1.
        -11    1    3    3    0    0  0.77194636645E+01  0.23027101300E+02 -0.18485069658E+02  0.30521063449E+02  0.51100000000E-03 0.  1.
         12    1    3    3    0    0 -0.69587993689E+01  0.10701017811E+02 -0.22357632695E+01  0.12958985618E+02  0.00000000000E+00 0. -1.
</event>
<event>
 7    1  0.2339217E-009  0.4778726E+02  0.7816164E-02  0.1312668E+00
        -11   -1    0    0    0    0  0.00000000000E+00  0.00000000000E+00  0.45593999997E+02  0.45594000000E+02  0.51100000000E-03 0.  1.
         11   -1    0    0    0    0 -0.00000000000E+00 -0.00000000000E+00 -0.45593999997E+02  0.45594000000E+02  0.51100000000E-03 0. -1.
    9900012    2    1    2    0    0  0.22883172341E+02 -0.16589319700E+02  0.32935981185E+02  0.47787263127E+02  0.19999963901E+02 0.  0.
         12    1    1    2    0    0 -0.22883172341E+02  0.16589319700E+02 -0.32935981185E+02  0.43400736873E+02  0.00000000000E+00 0. -1.
         11    1    3    3    0    0 -0.20751128373E+01  0.11164266170E+01 -0.33258897705E+00  0.23797305241E+01  0.51100000000E-03 0. -1.
        -11    1    3    3    0    0  0.26534857541E+01 -0.23822600411E+01  0.21321769357E+01  0.41547958189E+01  0.51100000000E-03 0.  1.
        -12    1    3    3    0    0  0.22304799424E+02 -0.15323486276E+02  0.31136393226E+02  0.41252736784E+02  0.00000000000E+00 0.  1.
</event>
<event>
 7    1  0.2339217E-009  0.4778729E+02  0.7816164E-02  0.1312668E+00
        -11   -1    0    0    0    0  0.00000000000E+00  0.00000000000E+00  0.45593999997E+02  0.45594000000E+02  0.51100000000E-03 0.  1.
         11   -1    0    0    0    0 -0.00000000000E+00 -0.00000000000E+00 -0.45593999997E+02  0.45594000000E+02  0.51100000000E-03 0. -1.
    9900012    2    1    2    0    0  0.99229916171E+01 -0.17059498959E+02  0.38653973727E+02  0.47787286270E+02  0.20000069421E+02 0.  0.
         12    1    1    2    0    0 -0.99229916171E+01  0.17059498959E+02 -0.38653973727E+02  0.43400713730E+02  0.00000000000E+00 0. -1.
         11    1    3    3    0    0  0.26594226148E+00 -0.20951903720E+01  0.10664336549E+02  0.10871459069E+02  0.51100000000E-03 0. -1.
        -11    1    3    3    0    0  0.96652112490E+01 -0.11166076770E+01  0.79888031620E+01  0.12589046724E+02  0.51100000000E-03 0.  1.
        -12    1    3    3    0    0 -0.81618934214E-02 -0.13847700910E+02  0.20000834015E+02  0.24326780478E+02  0.00000000000E+00 0.  1.
</event>
<event>
 7    1  0.2339217E-009  0.4778727E+02  0.7816164E-02  0.1312668E+00
        -11   -1    0    0    0    0  0.00000000000E+00  0.00000000000E+00  0.45593999997E+02  0.45594000000E+02  0.51100000000E-03 0. -1.
         11   -1    0    0    0    0 -0.00000000000E+00 -0.00000000000E+00 -0.45593999997E+02  0.45594000000E+02  0.51100000000E-03 0.  1.
    9900012    2    1    2    0    0  0.39556825085E+02  0.17832349149E+02  0.94245017226E+00  0.47787270751E+02  0.19999998662E+02 0.  0.
         12    1    1    2    0    0 -0.39556825085E+02 -0.17832349149E+02 -0.94245017226E+00  0.43400729249E+02  0.00000000000E+00 0. -1.
         11    1    3    3    0    0  0.17908534720E+02  0.26272825394E+01 -0.76725810072E+01  0.19659265727E+02  0.51100000000E-03 0. -1.
        -11    1    3    3    0    0  0.21536826860E+01  0.73835932138E+00 -0.23562992665E+00  0.22888960927E+01  0.51100000000E-03 0.  1.
        -12    1    3    3    0    0  0.19494607679E+02  0.14466707289E+02  0.88506611061E+01  0.25839108931E+02  0.00000000000E+00 0.  1.
</event>
<event>
 7    1  0.2339217E-009  0.4778727E+02  0.7816164E-02  0.1312668E+00
        -11   -1    0    0    0    0  0.00000000000E+00  0.00000000000E+00  0.45593999997E+02  0.45594000000E+02  0.51100000000E-03 0. -1.
         11   -1    0    0    0    0 -0.00000000000E+00 -0.00000000000E+00 -0.45593999997E+02  0.45594000000E+02  0.51100000000E-03 0.  1.
    9900012    2    1    2    0    0  0.41292776000E+02 -0.10280712224E+02 -0.85344325912E+01  0.47787274968E+02  0.20000017890E+02 0.  0.
         12    1    1    2    0    0 -0.41292776000E+02  0.10280712224E+02  0.85344325912E+01  0.43400725032E+02  0.00000000000E+00 0. -1.
         11    1    3    3    0    0  0.94011162079E+01  0.12115286033E+01 -0.51277215594E+01  0.10776934451E+02  0.51100000000E-03 0. -1.
        -11    1    3    3    0    0  0.30176040224E+02 -0.12400417784E+02 -0.65884466359E+01  0.33283199878E+02  0.51100000000E-03 0.  1.
         12    1    3    3    0    0  0.17156195685E+01  0.90817695608E+00  0.31817356042E+01  0.37271406389E+01  0.00000000000E+00 0. -1.
</event>
<event>
 7    1  0.2339217E-009  0.4778727E+02  0.7816164E-02  0.1312668E+00
        -11   -1    0    0    0    0  0.00000000000E+00  0.00000000000E+00  0.45593999997E+02  0.45594000000E+02  0.51100000000E-03 0.  1.
         11   -1    0    0    0    0 -0.00000000000E+00 -0.00000000000E+00 -0.45593999997E+02  0.45594000000E+02  0.51100000000E-03 0. -1.
    9900012    2    1    2    0    0  0.35906116096E+02 -0.44300962405E+01  0.23973907775E+02  0.47787272128E+02  0.20000004941E+02 0.  0.
         12    1    1    2    0    0 -0.35906116096E+02  0.44300962405E+01 -0.23973907775E+02  0.43400727872E+02  0.00000000000E+00 0. -1.
         11    1    3    3    0    0  0.12095639706E+02  0.70685204764E+01  0.58608182043E+01  0.15186101274E+02  0.51100000000E-03 0. -1.
        -11    1    3    3    0    0  0.57711236847E+01 -0.70979864620E+00  0.21196063552E+01  0.61888944138E+01  0.51100000000E-03 0.  1.
         12    1    3    3    0    0  0.18039352706E+02 -0.10788818071E+02  0.15993483215E+02  0.26412276440E+02  0.00000000000E+00 0. -1.
</event>
<event>
 7    1  0.2339217E-009  0.4778727E+02  0.7816164E-02  0.1312668E+00
        -11   -1    0    0    0    0  0.00000000000E+00  0.00000000000E+00  0.45593999997E+02  0.45594000000E+02  0.51100000000E-03 0.  1.
         11   -1    0    0    0    0 -0.00000000000E+00 -0.00000000000E+00 -0.45593999997E+02  0.45594000000E+02  0.51100000000E-03 0. -1.
    9900012    2    1    2    0    0  0.24309525468E+02 -0.32586923340E+02 -0.15190875142E+02  0.47787270873E+02  0.19999999216E+02 0.  0.
         12    1    1    2    0    0 -0.24309525468E+02  0.32586923340E+02  0.15190875142E+02  0.43400729127E+02  0.00000000000E+00 0. -1.
         11    1    3    3    0    0  0.47160117768E+01 -0.70544345533E+01 -0.75443212115E+01  0.11354408692E+02  0.51100000000E-03 0. -1.
        -11    1    3    3    0    0  0.57373087943E+00 -0.42369639249E+01 -0.65964763470E+01  0.78609497442E+01  0.51100000000E-03 0.  1.
        -12    1    3    3    0    0  0.19019782812E+02 -0.21295524861E+02 -0.10500775836E+01  0.28571912436E+02  0.00000000000E+00 0.  1.
</event>
<event>
 7    1  0.2339217E-009  0.4778727E+02  0.7816164E-02  0.1312668E+00
        -11   -1    0    0    0    0  0.00000000000E+00  0.00000000000E+00  0.45593999997E+02  0.45594000000E+02  0.51100000000E-03 0.  1.
         11   -1    0    0    0    0 -0.00000000000E+00 -0.00000000000E+00 -0.45593999997E+02  0.45594000000E+02  0.51100000000E-03 0. -1.
    9900012    2    1    2    0    0 -0.43278646814E+02 -0.78462619875E+00  0.31569855625E+01  0.47787268829E+02  0.19999989901E+02 0.  0.
         12    1    1    2    0    0  0.43278646814E+02  0.78462619875E+00 -0.31569855625E+01  0.43400731171E+02  0.00000000000E+00 0. -1.
         11    1    3    3    0    0 -0.16444633977E+01  0.11164548719E+01  0.27957014812E+01  0.34302592294E+01  0.51100000000E-03 0. -1.
        -11    1    3    3    0    0 -0.31536485369E+02  0.52647397729E+01  0.37055966228E+00  0.31975063862E+02  0.51100000000E-03 0.  1.
         12    1    3    3    0    0 -0.10097698047E+02 -0.71658208435E+01 -0.92755810297E-02  0.12381945738E+02  0.00000000000E+00 0. -1.
</event>
<event>
 7    1  0.2339217E-009  0.4778728E+02  0.7816164E-02  0.1312668E+00
        -11   -1    0    0    0    0  0.00000000000E+00  0.00000000000E+00  0.45593999997E+02  0.45594000000E+02  0.51100000000E-03 0. -1.
         11   -1    0    0    0    0 -0.00000000000E+00 -0.00000000000E+00 -0.45593999997E+02  0.45594000000E+02  0.51100000000E-03 0.  1.
    9900012    2    1    2    0    0 -0.10493882743E+01  0.38198634279E+02 -0.20576326706E+02  0.47787284600E+02  0.20000061803E+02 0.  0.
         12    1    1    2    0    0  0.10493882743E+01 -0.38198634279E+02  0.20576326706E+02  0.43400715400E+02  0.00000000000E+00 0. -1.
         11    1    3    3    0    0  0.18708561205E+01  0.11485205566E+02 -0.31601293200E+01  0.12058045742E+02  0.51100000000E-03 0. -1.
        -11    1    3    3    0    0  0.31351649936E+01  0.76891061644E+01  0.12503708575E+01  0.83973234240E+01  0.51100000000E-03 0.  1.
         12    1    3    3    0    0 -0.60554093885E+01  0.19024322548E+02 -0.18666568244E+02  0.27331915434E+02  0.00000000000E+00 0. -1.
</event>
<event>
 7    1  0.2339217E-009  0.4778727E+02  0.7816164E-02  0.1312668E+00
        -11   -1    0    0    0    0  0.00000000000E+00  0.00000000000E+00  0.45593999997E+02  0.45594000000E+02  0.51100000000E-03 0.  1.
         11   -1    0    0    0    0 -0.00000000000E+00 -0.00000000000E+00 -0.45593999997E+02  0.45594000000E+02  0.51100000000E-03 0. -1.
    9900012    2    1    2    0    0  0.32449436992E+02  0.60917387111E+00  0.28814692987E+02  0.47787267451E+02  0.19999983615E+02 0.  0.
         12    1    1    2    0    0 -0.32449436992E+02 -0.60917387111E+00 -0.28814692987E+02  0.43400732549E+02  0.00000000000E+00 0. -1.
         11    1    3    3    0    0  0.18379720801E+00  0.17799206078E+01  0.55563726741E+01  0.58373946533E+01  0.51100000000E-03 0. -1.
        -11    1    3    3    0    0  0.11669600129E+02  0.14325123713E+01  0.16212464702E+02  0.20026873716E+02  0.51100000000E-03 0.  1.
        -12    1    3    3    0    0  0.20596039655E+02 -0.26032591080E+01  0.70458556111E+01  0.21922999082E+02  0.00000000000E+00 0.  1.
</event>
<event>
 7    1  0.2339217E-009  0.4778727E+02  0.7816164E-02  0.1312668E+00
        -11   -1    0    0    0    0  0.00000000000E+00  0.00000000000E+00  0.45593999997E+02  0.45594000000E+02  0.51100000000E-03 0.  1.
         11   -1    0    0    0    0 -0.00000000000E+00 -0.00000000000E+00 -0.45593999997E+02  0.45594000000E+02  0.51100000000E-03 0. -1.
    9900012    2    1    2    0    0  0.63192708144E+01  0.27288649380E+02  0.33151467327E+02  0.47787270116E+02  0.19999995765E+02 0.  0.
         12    1    1    2    0    0 -0.63192708144E+01 -0.27288649380E+02 -0.33151467327E+02  0.43400729884E+02  0.00000000000E+00 0. -1.
         11    1    3    3    0    0 -0.26816905393E+01 -0.47756634047E-01  0.69398631428E+01  0.74401240277E+01  0.51100000000E-03 0. -1.
        -11    1    3    3    0    0 -0.15364624987E+01  0.11211975090E+02  0.81957450323E+01  0.13972807138E+02  0.51100000000E-03 0.  1.
        -12    1    3    3    0    0  0.10537423852E+02  0.16124430924E+02  0.18015859151E+02  0.26374338950E+02  0.00000000000E+00 0.  1.
</event>
<event>
 7    1  0.2339217E-009  0.4778728E+02  0.7816164E-02  0.1312668E+00
        -11   -1    0    0    0    0  0.00000000000E+00  0.00000000000E+00  0.45593999997E+02  0.45594000000E+02  0.51100000000E-03 0.  1.
         11   -1    0    0    0    0 -0.00000000000E+00 -0.00000000000E+00 -0.45593999997E+02  0.45594000000E+02  0.51100000000E-03 0. -1.
    9900012    2    1    2    0    0  0.38020696872E+02 -0.20757111520E+02  0.26817352535E+01  0.47787276812E+02  0.20000026296E+02 0.  0.
         12    1    1    2    0    0 -0.38020696872E+02  0.20757111520E+02 -0.26817352535E+01  0.43400723188E+02  0.00000000000E+00 0. -1.
         11    1    3    3    0    0  0.17484972461E+02 -0.35218239095E+01 -0.53400374804E+01  0.18618364756E+02  0.51100000000E-03 0. -1.
        -11    1    3    3    0    0  0.95160677558E+01 -0.52030348007E+01 -0.30745536817E+00  0.10849960633E+02  0.51100000000E-03 0.  1.
         12    1    3    3    0    0  0.11019656655E+02 -0.12032252810E+02  0.83292281021E+01  0.18318951423E+02  0.00000000000E+00 0. -1.
</event>
<event>
 7    1  0.2339217E-009  0.4778727E+02  0.7816164E-02  0.1312668E+00
        -11   -1    0    0    0    0  0.00000000000E+00  0.00000000000E+00  0.45593999997E+02  0.45594000000E+02  0.51100000000E-03 0.  1.
         11   -1    0    0    0    0 -0.00000000000E+00 -0.00000000000E+00 -0.45593999997E+02  0.45594000000E+02  0.51100000000E-03 0. -1.
    9900012    2    1    2    0    0 -0.24250745365E+02 -0.12568761612E+02  0.33727598650E+02  0.47787270399E+02  0.19999997058E+02 0.  0.
         12    1    1    2    0    0  0.24250745365E+02  0.12568761612E+02 -0.33727598650E+02  0.43400729601E+02  0.00000000000E+00 0. -1.
         11    1    3    3    0    0  0.44665167022E+00  0.15389639624E+01  0.29464534362E+01  0.33540268194E+01  0.51100000000E-03 0. -1.
        -11    1    3    3    0    0 -0.54673833868E+01 -0.11151217143E+02  0.98065119553E+01  0.15824335748E+02  0.51100000000E-03 0.  1.
         12    1    3    3    0    0 -0.19230013648E+02 -0.29565084306E+01  0.20974633258E+02  0.28608907832E+02  0.00000000000E+00 0. -1.
</event>
<event>
 7    1  0.2339217E-009  0.4778727E+02  0.7816164E-02  0.1312668E+00
        -11   -1    0    0    0    0  0.00000000000E+00  0.00000000000E+00  0.45593999997E+02  0.45594000000E+02  0.51100000000E-03 0. -1.
         11   -1    0    0    0    0 -0.00000000000E+00 -0.00000000000E+00 -0.45593999997E+02  0.45594000000E+02  0.51100000000E-03 0.  1.
    9900012    2    1    2    0    0 -0.63793185875E+01  0.42717994398E+02 -0.42544958079E+01  0.47787268606E+02  0.19999988880E+02 0.  0.
         12    1    1    2    0    0  0.63793185875E+01 -0.42717994398E+02  0.42544958079E+01  0.43400731394E+02  0.00000000000E+00 0. -1.
         11    1    3    3    0    0 -0.17390387391E+01  0.29253171244E+01  0.23748417325E+01  0.41498927131E+01  0.51100000000E-03 0. -1.
        -11    1    3    3    0    0  0.85020334798E+00  0.44018895945E+01  0.42803238534E+01  0.61984393428E+01  0.51100000000E-03 0.  1.
        -12    1    3    3    0    0 -0.54904831964E+01  0.35390787679E+02 -0.10909661394E+02  0.37438936550E+02  0.00000000000E+00 0.  1.
</event>
<event>
 7    1  0.2339217E-009  0.4778723E+02  0.7816164E-02  0.1312668E+00
        -11   -1    0    0    0    0  0.00000000000E+00  0.00000000000E+00  0.45593999997E+02  0.45594000000E+02  0.51100000000E-03 0. -1.
         11   -1    0    0    0    0 -0.00000000000E+00 -0.00000000000E+00 -0.45593999997E+02  0.45594000000E+02  0.51100000000E-03 0.  1.
    9900012    2    1    2    0    0  0.95003548611E+01 -0.36944147933E+02 -0.20700231861E+02  0.47787234936E+02  0.19999835368E+02 0.  0.
         12    1    1    2    0    0 -0.95003548611E+01  0.36944147933E+02  0.20700231861E+02  0.43400765064E+02  0.00000000000E+00 0. -1.
         11    1    3    3    0    0  0.16869947424E+00  0.76273934860E+00 -0.81269579596E+00  0.11272557582E+01  0.51100000000E-03 0. -1.
        -11    1    3    3    0    0  0.13285192250E+02 -0.31095733301E+02 -0.19298911103E+02  0.38934418355E+02  0.51100000000E-03 0.  1.
        -12    1    3    3    0    0 -0.39535368627E+01 -0.66111539806E+01 -0.58862496197E+00  0.77255608228E+01  0.00000000000E+00 0.  1.
</event>
<event>
 7    1  0.2339217E-009  0.4778727E+02  0.7816164E-02  0.1312668E+00
        -11   -1    0    0    0    0  0.00000000000E+00  0.00000000000E+00  0.45593999997E+02  0.45594000000E+02  0.51100000000E-03 0. -1.
         11   -1    0    0    0    0 -0.00000000000E+00 -0.00000000000E+00 -0.45593999997E+02  0.45594000000E+02  0.51100000000E-03 0.  1.
    9900012    2    1    2    0    0  0.19753535652E+02  0.14551699217E+01 -0.38617398674E+02  0.47787272235E+02  0.20000005427E+02 0.  0.
         12    1    1    2    0    0 -0.19753535652E+02 -0.14551699217E+01  0.38617398674E+02  0.43400727765E+02  0.00000000000E+00 0. -1.
         11    1    3    3    0    0  0.53740981494E+01 -0.49074535014E+01 -0.51622429000E+01  0.89225995543E+01  0.51100000000E-03 0. -1.
        -11    1    3    3    0    0  0.25777066915E+00 -0.28865737151E+01 -0.48640517248E+01  0.56619566383E+01  0.51100000000E-03 0.  1.
        -12    1    3    3    0    0  0.14121666833E+02  0.92491971382E+01 -0.28591104049E+02  0.33202716042E+02  0.00000000000E+00 0.  1.
</event>
<event>
 7    1  0.2339217E-009  0.4778727E+02  0.7816164E-02  0.1312668E+00
        -11   -1    0    0    0    0  0.00000000000E+00  0.00000000000E+00  0.45593999997E+02  0.45594000000E+02  0.51100000000E-03 0.  1.
         11   -1    0    0    0    0 -0.00000000000E+00 -0.00000000000E+00 -0.45593999997E+02  0.45594000000E+02  0.51100000000E-03 0. -1.
    9900012    2    1    2    0    0 -0.13721168453E+02  0.24685695209E+02  0.32954047321E+02  0.47787271360E+02  0.20000001437E+02 0.  0.
         12    1    1    2    0    0  0.13721168453E+02 -0.24685695209E+02 -0.32954047321E+02  0.43400728640E+02  0.00000000000E+00 0. -1.
         11    1    3    3    0    0 -0.40737253023E+01 -0.17067994304E+01  0.13186628842E+01  0.46094765644E+01  0.51100000000E-03 0. -1.
        -11    1    3    3    0    0 -0.21243566688E+01  0.70630194744E+01  0.33459064445E+01  0.80990262099E+01  0.51100000000E-03 0.  1.
        -12    1    3    3    0    0 -0.75230864821E+01  0.19329475165E+02  0.28289477992E+02  0.35078768585E+02  0.00000000000E+00 0.  1.
</event>
<event>
 7    1  0.2339217E-009  0.4778727E+02  0.7816164E-02  0.1312668E+00
        -11   -1    0    0    0    0  0.00000000000E+00  0.00000000000E+00  0.45593999997E+02  0.45594000000E+02  0.51100000000E-03 0. -1.
         11   -1    0    0    0    0 -0.00000000000E+00 -0.00000000000E+00 -0.45593999997E+02  0.45594000000E+02  0.51100000000E-03 0.  1.
    9900012    2    1    2    0    0 -0.46416260529E+01 -0.20876942104E+02 -0.37765488496E+02  0.47787268147E+02  0.19999986789E+02 0.  0.
         12    1    1    2    0    0  0.46416260529E+01  0.20876942104E+02  0.37765488496E+02  0.43400731853E+02  0.00000000000E+00 0. -1.
         11    1    3    3    0    0 -0.71303416086E+01 -0.83756341828E+01 -0.17994717914E+02  0.21090350696E+02  0.51100000000E-03 0. -1.
        -11    1    3    3    0    0 -0.48372521971E+01 -0.30629388883E+01 -0.86579927622E+01  0.10379857532E+02  0.51100000000E-03 0.  1.
        -12    1    3    3    0    0  0.73259677527E+01 -0.94383690329E+01 -0.11112777820E+02  0.16317059919E+02  0.00000000000E+00 0.  1.
</event>
<event>
 7    1  0.2339217E-009  0.4778727E+02  0.7816164E-02  0.1312668E+00
        -11   -1    0    0    0    0  0.00000000000E+00  0.00000000000E+00  0.45593999997E+02  0.45594000000E+02  0.51100000000E-03 0. -1.
         11   -1    0    0    0    0 -0.00000000000E+00 -0.00000000000E+00 -0.45593999997E+02  0.45594000000E+02  0.51100000000E-03 0.  1.
    9900012    2    1    2    0    0 -0.47573288225E+01 -0.37326003259E+02 -0.21627774910E+02  0.47787270232E+02  0.19999996295E+02 0.  0.
         12    1    1    2    0    0  0.47573288225E+01  0.37326003259E+02  0.21627774910E+02  0.43400729768E+02  0.00000000000E+00 0. -1.
         11    1    3    3    0    0 -0.79917105266E+01 -0.75632722623E+01 -0.48486621008E+01  0.12024144414E+02  0.51100000000E-03 0. -1.
        -11    1    3    3    0    0 -0.35785433238E+01 -0.13026105346E+02 -0.69050703785E+01  0.15171202655E+02  0.51100000000E-03 0.  1.
        -12    1    3    3    0    0  0.68129250279E+01 -0.16736625651E+02 -0.98740424309E+01  0.20591923163E+02  0.00000000000E+00 0.  1.
</event>
<event>
 7    1  0.2339217E-009  0.4778727E+02  0.7816164E-02  0.1312668E+00
        -11   -1    0    0    0    0  0.00000000000E+00  0.00000000000E+00  0.45593999997E+02  0.45594000000E+02  0.51100000000E-03 0. -1.
         11   -1    0    0    0    0 -0.00000000000E+00 -0.00000000000E+00 -0.45593999997E+02  0.45594000000E+02  0.51100000000E-03 0.  1.
    9900012    2    1    2    0    0 -0.25015164079E+02  0.35278411565E+02  0.36466795056E+01  0.47787273879E+02  0.20000012922E+02 0.  0.
         12    1    1    2    0    0  0.25015164079E+02 -0.35278411565E+02 -0.36466795056E+01  0.43400726121E+02  0.00000000000E+00 0. -1.
         11    1    3    3    0    0 -0.11061163909E+01  0.98464150428E+01  0.14672568506E+01  0.10016397835E+02  0.51100000000E-03 0. -1.
        -11    1    3    3    0    0  0.77084190298E+00  0.41237478637E+01 -0.24186568434E+01  0.48424575238E+01  0.51100000000E-03 0.  1.
        -12    1    3    3    0    0 -0.24679889591E+02  0.21308248658E+02  0.45980794984E+01  0.32928418520E+02  0.00000000000E+00 0.  1.
</event>
<event>
 7    1  0.2339217E-009  0.4778727E+02  0.7816164E-02  0.1312668E+00
        -11   -1    0    0    0    0  0.00000000000E+00  0.00000000000E+00  0.45593999997E+02  0.45594000000E+02  0.51100000000E-03 0. -1.
         11   -1    0    0    0    0 -0.00000000000E+00 -0.00000000000E+00 -0.45593999997E+02  0.45594000000E+02  0.51100000000E-03 0.  1.
    9900012    2    1    2    0    0  0.84573657479E+01  0.37982335149E+02 -0.19220795459E+02  0.47787265019E+02  0.19999972529E+02 0.  0.
         12    1    1    2    0    0 -0.84573657479E+01 -0.37982335149E+02  0.19220795459E+02  0.43400734981E+02  0.00000000000E+00 0. -1.
         11    1    3    3    0    0  0.38768080805E+01  0.10093406454E+02 -0.65933078940E+01  0.12664051642E+02  0.51100000000E-03 0.  1.
        -11    1    3    3    0    0  0.66199460229E+01  0.80405172042E+01 -0.10930933076E+02  0.15098307867E+02  0.51100000000E-03 0. -1.
         12    1    3    3    0    0 -0.20393883556E+01  0.19848411491E+02 -0.16965544891E+01  0.20024905511E+02  0.00000000000E+00 0. -1.
</event>
<event>
 7    1  0.2339217E-009  0.4778727E+02  0.7816164E-02  0.1312668E+00
        -11   -1    0    0    0    0  0.00000000000E+00  0.00000000000E+00  0.45593999997E+02  0.45594000000E+02  0.51100000000E-03 0.  1.
         11   -1    0    0    0    0 -0.00000000000E+00 -0.00000000000E+00 -0.45593999997E+02  0.45594000000E+02  0.51100000000E-03 0. -1.
    9900012    2    1    2    0    0 -0.18383452904E+02 -0.17787205566E+02  0.35061190187E+02  0.47787273280E+02  0.20000010191E+02 0.  0.
         12    1    1    2    0    0  0.18383452904E+02  0.17787205566E+02 -0.35061190187E+02  0.43400726720E+02  0.00000000000E+00 0. -1.
         11    1    3    3    0    0 -0.87301965791E+01 -0.14333632608E+02  0.29011795084E+02  0.33516467748E+02  0.51100000000E-03 0. -1.
        -11    1    3    3    0    0 -0.70629924027E+01 -0.27000470180E+01  0.79493480411E+01  0.10971246516E+02  0.51100000000E-03 0.  1.
         12    1    3    3    0    0 -0.25902639218E+01 -0.75352594028E+00 -0.18999529381E+01  0.32995590151E+01  0.00000000000E+00 0. -1.
</event>
<event>
 7    1  0.2339217E-009  0.4778727E+02  0.7816164E-02  0.1312668E+00
        -11   -1    0    0    0    0  0.00000000000E+00  0.00000000000E+00  0.45593999997E+02  0.45594000000E+02  0.51100000000E-03 0.  1.
         11   -1    0    0    0    0 -0.00000000000E+00 -0.00000000000E+00 -0.45593999997E+02  0.45594000000E+02  0.51100000000E-03 0. -1.
    9900012    2    1    2    0    0 -0.30909479290E+02  0.28821264333E+02  0.98773741317E+01  0.47787266049E+02  0.19999977225E+02 0.  0.
         12    1    1    2    0    0  0.30909479290E+02 -0.28821264333E+02 -0.98773741317E+01  0.43400733951E+02  0.00000000000E+00 0. -1.
         11    1    3    3    0    0 -0.28820751995E+01  0.45768170815E+01  0.26092436702E+01  0.60051448646E+01  0.51100000000E-03 0. -1.
        -11    1    3    3    0    0 -0.15471419490E+02  0.81450104583E+01  0.11505291778E+02  0.20930307106E+02  0.51100000000E-03 0.  1.
         12    1    3    3    0    0 -0.12555984601E+02  0.16099436793E+02 -0.42371613165E+01  0.20851814079E+02  0.00000000000E+00 0. -1.
</event>
<event>
 7    1  0.2339217E-009  0.4778727E+02  0.7816164E-02  0.1312668E+00
        -11   -1    0    0    0    0  0.00000000000E+00  0.00000000000E+00  0.45593999997E+02  0.45594000000E+02  0.51100000000E-03 0. -1.
         11   -1    0    0    0    0 -0.00000000000E+00 -0.00000000000E+00 -0.45593999997E+02  0.45594000000E+02  0.51100000000E-03 0.  1.
    9900012    2    1    2    0    0 -0.21792852545E+02 -0.25839214518E+00 -0.37531696589E+02  0.47787269161E+02  0.19999991411E+02 0.  0.
         12    1    1    2    0    0  0.21792852545E+02  0.25839214518E+00  0.37531696589E+02  0.43400730839E+02  0.00000000000E+00 0. -1.
         11    1    3    3    0    0 -0.10477566968E+02  0.12196858242E+01 -0.21564550663E+02  0.24006184383E+02  0.51100000000E-03 0.  1.
        -11    1    3    3    0    0 -0.14224166216E+02 -0.21195747464E+01 -0.11509528824E+02  0.18419792498E+02  0.51100000000E-03 0. -1.
         12    1    3    3    0    0  0.29088806386E+01  0.64149677703E+00 -0.44576171024E+01  0.53612922804E+01  0.00000000000E+00 0. -1.
</event>
<event>
 7    1  0.2339217E-009  0.4778727E+02  0.7816164E-02  0.1312668E+00
        -11   -1    0    0    0    0  0.00000000000E+00  0.00000000000E+00  0.45593999997E+02  0.45594000000E+02  0.51100000000E-03 0.  1.
         11   -1    0    0    0    0 -0.00000000000E+00 -0.00000000000E+00 -0.45593999997E+02  0.45594000000E+02  0.51100000000E-03 0. -1.
    9900012    2    1    2    0    0  0.31520185929E+02  0.25409950450E+02  0.15634429691E+02  0.47787273109E+02  0.20000009414E+02 0.  0.
         12    1    1    2    0    0 -0.31520185929E+02 -0.25409950450E+02 -0.15634429691E+02  0.43400726891E+02  0.00000000000E+00 0. -1.
         11    1    3    3    0    0  0.93838494690E+01  0.49286817231E+01  0.50282408421E+00  0.10611379114E+02  0.51100000000E-03 0. -1.
        -11    1    3    3    0    0  0.18139442430E+02  0.64136537492E+01  0.99514825768E+01  0.21661171063E+02  0.51100000000E-03 0.  1.
         12    1    3    3    0    0  0.39968940305E+01  0.14067614978E+02  0.51801230301E+01  0.15514722932E+02  0.00000000000E+00 0. -1.
</event>
<event>
 7    1  0.2339217E-009  0.4778727E+02  0.7816164E-02  0.1312668E+00
        -11   -1    0    0    0    0  0.00000000000E+00  0.00000000000E+00  0.45593999997E+02  0.45594000000E+02  0.51100000000E-03 0. -1.
         11   -1    0    0    0    0 -0.00000000000E+00 -0.00000000000E+00 -0.45593999997E+02  0.45594000000E+02  0.51100000000E-03 0.  1.
    9900012    2    1    2    0    0 -0.38296427138E+02 -0.17671392376E+02  0.10233709004E+02  0.47787271435E+02  0.20000001779E+02 0.  0.
         12    1    1    2    0    0  0.38296427138E+02  0.17671392376E+02 -0.10233709004E+02  0.43400728565E+02  0.00000000000E+00 0. -1.
         11    1    3    3    0    0 -0.66288433962E+01 -0.49874979834E+00  0.62947479459E+01  0.91550078152E+01  0.51100000000E-03 0. -1.
        -11    1    3    3    0    0 -0.60643150283E-01 -0.41765551674E+01  0.12112438102E+01  0.43490691518E+01  0.51100000000E-03 0.  1.
         12    1    3    3    0    0 -0.31606940591E+02 -0.12996087410E+02  0.27277172480E+01  0.34283194468E+02  0.00000000000E+00 0. -1.
</event>
<event>
 7    1  0.2339217E-009  0.4778729E+02  0.7816164E-02  0.1312668E+00
        -11   -1    0    0    0    0  0.00000000000E+00  0.00000000000E+00  0.45593999997E+02  0.45594000000E+02  0.51100000000E-03 0.  1.
         11   -1    0    0    0    0 -0.00000000000E+00 -0.00000000000E+00 -0.45593999997E+02  0.45594000000E+02  0.51100000000E-03 0. -1.
    9900012    2    1    2    0    0 -0.37124849008E+02 -0.15948795873E+02  0.15843081438E+02  0.47787288795E+02  0.20000080932E+02 0.  0.
         12    1    1    2    0    0  0.37124849008E+02  0.15948795873E+02 -0.15843081438E+02  0.43400711205E+02  0.00000000000E+00 0. -1.
         11    1    3    3    0    0 -0.87963365975E+01 -0.12633108116E+02  0.90729496560E+01  0.17868670178E+02  0.51100000000E-03 0. -1.
        -11    1    3    3    0    0 -0.16370562251E+01  0.44516075958E+00  0.18643988771E+01  0.25207349365E+01  0.51100000000E-03 0.  1.
         12    1    3    3    0    0 -0.26691456185E+02 -0.37608485169E+01  0.49057329053E+01  0.27397883681E+02  0.00000000000E+00 0. -1.
</event>
<event>
 7    1  0.2339217E-009  0.4778727E+02  0.7816164E-02  0.1312668E+00
        -11   -1    0    0    0    0  0.00000000000E+00  0.00000000000E+00  0.45593999997E+02  0.45594000000E+02  0.51100000000E-03 0.  1.
         11   -1    0    0    0    0 -0.00000000000E+00 -0.00000000000E+00 -0.45593999997E+02  0.45594000000E+02  0.51100000000E-03 0. -1.
    9900012    2    1    2    0    0  0.74545295950E+01  0.28968044564E+02  0.31446874423E+02  0.47787268113E+02  0.19999986634E+02 0.  0.
         12    1    1    2    0    0 -0.74545295950E+01 -0.28968044564E+02 -0.31446874423E+02  0.43400731887E+02  0.00000000000E+00 0. -1.
         11    1    3    3    0    0 -0.89456908263E+00  0.15619654568E+02  0.10227896711E+02  0.18691809277E+02  0.51100000000E-03 0. -1.
        -11    1    3    3    0    0  0.17114387751E+01  0.10549782519E+02  0.18559161562E+02  0.21416568633E+02  0.51100000000E-03 0.  1.
         12    1    3    3    0    0  0.66376599025E+01  0.27986074773E+01  0.26598161506E+01  0.76788902029E+01  0.00000000000E+00 0. -1.
</event>
<event>
 7    1  0.2339217E-009  0.4778727E+02  0.7816164E-02  0.1312668E+00
        -11   -1    0    0    0    0  0.00000000000E+00  0.00000000000E+00  0.45593999997E+02  0.45594000000E+02  0.51100000000E-03 0.  1.
         11   -1    0    0    0    0 -0.00000000000E+00 -0.00000000000E+00 -0.45593999997E+02  0.45594000000E+02  0.51100000000E-03 0. -1.
    9900012    2    1    2    0    0 -0.29049155634E+02  0.13648062736E+02  0.29214725572E+02  0.47787271323E+02  0.20000001268E+02 0.  0.
         12    1    1    2    0    0  0.29049155634E+02 -0.13648062736E+02 -0.29214725572E+02  0.43400728677E+02  0.00000000000E+00 0. -1.
         11    1    3    3    0    0 -0.16164723125E+02  0.94500373375E+01  0.11941801499E+02  0.22208289054E+02  0.51100000000E-03 0. -1.
        -11    1    3    3    0    0 -0.34438947659E+01  0.50540489855E+01  0.28162888727E+00  0.61223473765E+01  0.51100000000E-03 0.  1.
        -12    1    3    3    0    0 -0.94405377427E+01 -0.85602358665E+00  0.16991295185E+02  0.19456634892E+02  0.00000000000E+00 0.  1.
</event>
<event>
 7    1  0.2339217E-009  0.4778727E+02  0.7816164E-02  0.1312668E+00
        -11   -1    0    0    0    0  0.00000000000E+00  0.00000000000E+00  0.45593999997E+02  0.45594000000E+02  0.51100000000E-03 0. -1.
         11   -1    0    0    0    0 -0.00000000000E+00 -0.00000000000E+00 -0.45593999997E+02  0.45594000000E+02  0.51100000000E-03 0.  1.
    9900012    2    1    2    0    0  0.27045249855E+02  0.92474665751E+01 -0.32659798177E+02  0.47787267349E+02  0.19999983149E+02 0.  0.
         12    1    1    2    0    0 -0.27045249855E+02 -0.92474665751E+01  0.32659798177E+02  0.43400732651E+02  0.00000000000E+00 0. -1.
         11    1    3    3    0    0  0.96200003514E+01 -0.15749430934E+01 -0.96302861106E+01  0.13702819540E+02  0.51100000000E-03 0.  1.
        -11    1    3    3    0    0  0.14290817083E+02  0.47439341620E+01 -0.68967450390E+01  0.16561927926E+02  0.51100000000E-03 0. -1.
        -12    1    3    3    0    0  0.31344324197E+01  0.60784755066E+01 -0.16132767027E+02  0.17522519882E+02  0.00000000000E+00 0.  1.
</event>
<event>
 7    1  0.2339217E-009  0.4778727E+02  0.7816164E-02  0.1312668E+00
        -11   -1    0    0    0    0  0.00000000000E+00  0.00000000000E+00  0.45593999997E+02  0.45594000000E+02  0.51100000000E-03 0.  1.
         11   -1    0    0    0    0 -0.00000000000E+00 -0.00000000000E+00 -0.45593999997E+02  0.45594000000E+02  0.51100000000E-03 0. -1.
    9900012    2    1    2    0    0 -0.41480706623E+02 -0.12732690834E+02 -0.92359349905E+00  0.47787268869E+02  0.19999990080E+02 0.  0.
         12    1    1    2    0    0  0.41480706623E+02  0.12732690834E+02  0.92359349905E+00  0.43400731131E+02  0.00000000000E+00 0. -1.
         11    1    3    3    0    0 -0.67914789057E+01  0.19023870210E+00  0.37248627775E+01  0.77482242780E+01  0.51100000000E-03 0. -1.
        -11    1    3    3    0    0 -0.22151989897E+01  0.21758424064E+01  0.18893102317E+01  0.36346788241E+01  0.51100000000E-03 0.  1.
        -12    1    3    3    0    0 -0.32474028727E+02 -0.15098771942E+02 -0.65377665082E+01  0.36404365767E+02  0.00000000000E+00 0.  1.
</event>
<event>
 7    1  0.2339217E-009  0.4778727E+02  0.7816164E-02  0.1312668E+00
        -11   -1    0    0    0    0  0.00000000000E+00  0.00000000000E+00  0.45593999997E+02  0.45594000000E+02  0.51100000000E-03 0.  1.
         11   -1    0    0    0    0 -0.00000000000E+00 -0.00000000000E+00 -0.45593999997E+02  0.45594000000E+02  0.51100000000E-03 0. -1.
    9900012    2    1    2    0    0 -0.31986411527E+02 -0.23485536412E+02 -0.17576199374E+02  0.47787265820E+02  0.19999976179E+02 0.  0.
         12    1    1    2    0    0  0.31986411527E+02  0.23485536412E+02  0.17576199374E+02  0.43400734180E+02  0.00000000000E+00 0. -1.
         11    1    3    3    0    0 -0.21093304837E+02 -0.15257217493E+02 -0.16684429403E+02  0.30920549467E+02  0.51100000000E-03 0. -1.
        -11    1    3    3    0    0 -0.43160935839E+01 -0.78878268234E+01 -0.36794680126E+01  0.97151922749E+01  0.51100000000E-03 0.  1.
        -12    1    3    3    0    0 -0.65770131061E+01 -0.34049209567E+00  0.27876980416E+01  0.71515240779E+01  0.00000000000E+00 0.  1.
</event>
<event>
 7    1  0.2339217E-009  0.4778727E+02  0.7816164E-02  0.1312668E+00
        -11   -1    0    0    0    0  0.00000000000E+00  0.00000000000E+00  0.45593999997E+02  0.45594000000E+02  0.51100000000E-03 0. -1.
         11   -1    0    0    0    0 -0.00000000000E+00 -0.00000000000E+00 -0.45593999997E+02  0.45594000000E+02  0.51100000000E-03 0.  1.
    9900012    2    1    2    0    0 -0.21757826391E+02  0.34429877846E+02 -0.14993470940E+02  0.47787266497E+02  0.19999979267E+02 0.  0.
         12    1    1    2    0    0  0.21757826391E+02 -0.34429877846E+02  0.14993470940E+02  0.43400733503E+02  0.00000000000E+00 0. -1.
         11    1    3    3    0    0 -0.80409934372E+01  0.56559786281E+01 -0.82499739006E+01  0.12833929224E+02  0.51100000000E-03 0. -1.
        -11    1    3    3    0    0 -0.31496046032E+01  0.15817432805E+02 -0.83421961601E+01  0.18157737379E+02  0.51100000000E-03 0.  1.
        -12    1    3    3    0    0 -0.10567228351E+02  0.12956466413E+02  0.15986991206E+01  0.16795599894E+02  0.00000000000E+00 0.  1.
</event>
<event>
 7    1  0.2339217E-009  0.4778727E+02  0.7816164E-02  0.1312668E+00
        -11   -1    0    0    0    0  0.00000000000E+00  0.00000000000E+00  0.45593999997E+02  0.45594000000E+02  0.51100000000E-03 0.  1.
         11   -1    0    0    0    0 -0.00000000000E+00 -0.00000000000E+00 -0.45593999997E+02  0.45594000000E+02  0.51100000000E-03 0. -1.
    9900012    2    1    2    0    0  0.34089930776E+02  0.23997709763E+02  0.12066896297E+02  0.47787269126E+02  0.19999991252E+02 0.  0.
         12    1    1    2    0    0 -0.34089930776E+02 -0.23997709763E+02 -0.12066896297E+02  0.43400730874E+02  0.00000000000E+00 0. -1.
         11    1    3    3    0    0  0.48709574954E+00  0.40804706143E+01 -0.25636037637E+01  0.48435077394E+01  0.51100000000E-03 0. -1.
        -11    1    3    3    0    0  0.92967155907E+01  0.97853446682E+00  0.15798763090E+01  0.94806360489E+01  0.51100000000E-03 0.  1.
        -12    1    3    3    0    0  0.24306119436E+02  0.18938704682E+02  0.13050623752E+02  0.33463125338E+02  0.00000000000E+00 0.  1.
</event>
<event>
 7    1  0.2339217E-009  0.4778727E+02  0.7816164E-02  0.1312668E+00
        -11   -1    0    0    0    0  0.00000000000E+00  0.00000000000E+00  0.45593999997E+02  0.45594000000E+02  0.51100000000E-03 0.  1.
         11   -1    0    0    0    0 -0.00000000000E+00 -0.00000000000E+00 -0.45593999997E+02  0.45594000000E+02  0.51100000000E-03 0. -1.
    9900012    2    1    2    0    0 -0.51341060821E+01  0.18263080465E+02  0.39034909616E+02  0.47787270489E+02  0.19999997469E+02 0.  0.
         12    1    1    2    0    0  0.51341060821E+01 -0.18263080465E+02 -0.39034909616E+02  0.43400729511E+02  0.00000000000E+00 0. -1.
         11    1    3    3    0    0  0.97179195040E+00  0.19502841461E+01  0.14965706015E+00  0.21841211830E+01  0.51100000000E-03 0. -1.
        -11    1    3    3    0    0  0.34932661696E+01  0.77549257192E+01  0.63374021748E+01  0.10606811398E+02  0.51100000000E-03 0.  1.
        -12    1    3    3    0    0 -0.95991642021E+01  0.85578706001E+01  0.32547850381E+02  0.34996337909E+02  0.00000000000E+00 0.  1.
</event>
<event>
 7    1  0.2339217E-009  0.4778726E+02  0.7816164E-02  0.1312668E+00
        -11   -1    0    0    0    0  0.00000000000E+00  0.00000000000E+00  0.45593999997E+02  0.45594000000E+02  0.51100000000E-03 0.  1.
         11   -1    0    0    0    0 -0.00000000000E+00 -0.00000000000E+00 -0.45593999997E+02  0.45594000000E+02  0.51100000000E-03 0. -1.
    9900012    2    1    2    0    0 -0.39737954459E+02  0.19517554600E+01  0.17340980273E+02  0.47787263016E+02  0.19999963394E+02 0.  0.
         12    1    1    2    0    0  0.39737954459E+02 -0.19517554600E+01 -0.17340980273E+02  0.43400736984E+02  0.00000000000E+00 0. -1.
         11    1    3    3    0    0 -0.17344390953E+02 -0.53334683139E+01  0.53757511613E+01  0.18925445374E+02  0.51100000000E-03 0.  1.
        -11    1    3    3    0    0  0.13082580068E+01  0.45444955218E+00 -0.12705453757E+00  0.13907575362E+01  0.51100000000E-03 0. -1.
         12    1    3    3    0    0 -0.23701821513E+02  0.68307742217E+01  0.12092283649E+02  0.27471060106E+02  0.00000000000E+00 0. -1.
</event>
<event>
 7    1  0.2339217E-009  0.4778727E+02  0.7816164E-02  0.1312668E+00
        -11   -1    0    0    0    0  0.00000000000E+00  0.00000000000E+00  0.45593999997E+02  0.45594000000E+02  0.51100000000E-03 0. -1.
         11   -1    0    0    0    0 -0.00000000000E+00 -0.00000000000E+00 -0.45593999997E+02  0.45594000000E+02  0.51100000000E-03 0.  1.
    9900012    2    1    2    0    0  0.27562123763E+02  0.26686933893E+01 -0.33419012357E+02  0.47787274457E+02  0.20000015561E+02 0.  0.
         12    1    1    2    0    0 -0.27562123763E+02 -0.26686933893E+01  0.33419012357E+02  0.43400725543E+02  0.00000000000E+00 0. -1.
         11    1    3    3    0    0  0.66034979189E+01  0.17140451289E+01 -0.15138682811E+02  0.16604934597E+02  0.51100000000E-03 0.  1.
        -11    1    3    3    0    0  0.94911030700E+01 -0.64554775217E+01 -0.99323768075E+01  0.15179141505E+02  0.51100000000E-03 0. -1.
         12    1    3    3    0    0  0.11467522774E+02  0.74101257822E+01 -0.83479527389E+01  0.16003198355E+02  0.00000000000E+00 0. -1.
</event>
<event>
 7    1  0.2339217E-009  0.4778727E+02  0.7816164E-02  0.1312668E+00
        -11   -1    0    0    0    0  0.00000000000E+00  0.00000000000E+00  0.45593999997E+02  0.45594000000E+02  0.51100000000E-03 0.  1.
         11   -1    0    0    0    0 -0.00000000000E+00 -0.00000000000E+00 -0.45593999997E+02  0.45594000000E+02  0.51100000000E-03 0. -1.
    9900012    2    1    2    0    0 -0.99860986253E+01  0.93780375551E+01  0.41181958716E+02  0.47787268695E+02  0.19999989289E+02 0.  0.
         12    1    1    2    0    0  0.99860986253E+01 -0.93780375551E+01 -0.41181958716E+02  0.43400731305E+02  0.00000000000E+00 0. -1.
         11    1    3    3    0    0  0.11912459823E+01  0.65613930824E+01  0.62606500859E+01  0.91469495424E+01  0.51100000000E-03 0. -1.
        -11    1    3    3    0    0  0.21430499732E+01  0.21779227411E+01  0.46793645726E+01  0.55886012309E+01  0.51100000000E-03 0.  1.
        -12    1    3    3    0    0 -0.13320394581E+02  0.63872173169E+00  0.30241944057E+02  0.33051717922E+02  0.00000000000E+00 0.  1.
</event>
<event>
 7    1  0.2339217E-009  0.4778727E+02  0.7816164E-02  0.1312668E+00
        -11   -1    0    0    0    0  0.00000000000E+00  0.00000000000E+00  0.45593999997E+02  0.45594000000E+02  0.51100000000E-03 0.  1.
         11   -1    0    0    0    0 -0.00000000000E+00 -0.00000000000E+00 -0.45593999997E+02  0.45594000000E+02  0.51100000000E-03 0. -1.
    9900012    2    1    2    0    0  0.93865428071E+01  0.16802204143E+02  0.38899898420E+02  0.47787270202E+02  0.19999996159E+02 0.  0.
         12    1    1    2    0    0 -0.93865428071E+01 -0.16802204143E+02 -0.38899898420E+02  0.43400729798E+02  0.00000000000E+00 0. -1.
         11    1    3    3    0    0  0.13752797091E+02  0.11017985580E+02  0.22356318514E+02  0.28466478739E+02  0.51100000000E-03 0. -1.
        -11    1    3    3    0    0  0.13771048048E+00 -0.13322682781E+01  0.39474009401E+01  0.41684382428E+01  0.51100000000E-03 0.  1.
         12    1    3    3    0    0 -0.45039647642E+01  0.71164868415E+01  0.12596178966E+02  0.15152353220E+02  0.00000000000E+00 0. -1.
</event>
<event>
 7    1  0.2339217E-009  0.4778727E+02  0.7816164E-02  0.1312668E+00
        -11   -1    0    0    0    0  0.00000000000E+00  0.00000000000E+00  0.45593999997E+02  0.45594000000E+02  0.51100000000E-03 0.  1.
         11   -1    0    0    0    0 -0.00000000000E+00 -0.00000000000E+00 -0.45593999997E+02  0.45594000000E+02  0.51100000000E-03 0. -1.
    9900012    2    1    2    0    0  0.27923255218E+02  0.29155361127E+02 -0.15933616638E+02  0.47787269550E+02  0.19999993188E+02 0.  0.
         12    1    1    2    0    0 -0.27923255218E+02 -0.29155361127E+02  0.15933616638E+02  0.43400730450E+02  0.00000000000E+00 0. -1.
         11    1    3    3    0    0 -0.16979661830E+01  0.52867262661E+01 -0.48516698647E+01  0.73736873074E+01  0.51100000000E-03 0. -1.
        -11    1    3    3    0    0  0.10255465281E+02  0.57544856927E+01 -0.67076498742E+01  0.13538140227E+02  0.51100000000E-03 0.  1.
        -12    1    3    3    0    0  0.19365756120E+02  0.18114149168E+02 -0.43742968989E+01  0.26875442016E+02  0.00000000000E+00 0.  1.
</event>
<event>
 7    1  0.2339217E-009  0.4778727E+02  0.7816164E-02  0.1312668E+00
        -11   -1    0    0    0    0  0.00000000000E+00  0.00000000000E+00  0.45593999997E+02  0.45594000000E+02  0.51100000000E-03 0.  1.
         11   -1    0    0    0    0 -0.00000000000E+00 -0.00000000000E+00 -0.45593999997E+02  0.45594000000E+02  0.51100000000E-03 0. -1.
    9900012    2    1    2    0    0  0.31896139449E+02 -0.25166069353E+02  0.15262003049E+02  0.47787268491E+02  0.19999988358E+02 0.  0.
         12    1    1    2    0    0 -0.31896139449E+02  0.25166069353E+02 -0.15262003049E+02  0.43400731509E+02  0.00000000000E+00 0. -1.
         11    1    3    3    0    0  0.30533380851E+02 -0.20241366215E+02  0.95742078088E+01  0.37863778310E+02  0.51100000000E-03 0. -1.
        -11    1    3    3    0    0  0.27624859406E+01 -0.43622707101E+01  0.13588100233E+01  0.53392039913E+01  0.51100000000E-03 0.  1.
        -12    1    3    3    0    0 -0.13997273427E+01 -0.56243242829E+00  0.43289852164E+01  0.45842861903E+01  0.00000000000E+00 0.  1.
</event>
<event>
 7    1  0.2339217E-009  0.4778727E+02  0.7816164E-02  0.1312668E+00
        -11   -1    0    0    0    0  0.00000000000E+00  0.00000000000E+00  0.45593999997E+02  0.45594000000E+02  0.51100000000E-03 0.  1.
         11   -1    0    0    0    0 -0.00000000000E+00 -0.00000000000E+00 -0.45593999997E+02  0.45594000000E+02  0.51100000000E-03 0. -1.
    9900012    2    1    2    0    0 -0.46892067076E+01 -0.63087201137E+01  0.42682954944E+02  0.47787271299E+02  0.20000001159E+02 0.  0.
         12    1    1    2    0    0  0.46892067076E+01  0.63087201137E+01 -0.42682954944E+02  0.43400728701E+02  0.00000000000E+00 0. -1.
         11    1    3    3    0    0  0.36373307159E+01  0.28322595417E+01  0.58565427384E+01  0.74532517706E+01  0.51100000000E-03 0. -1.
        -11    1    3    3    0    0 -0.20303513522E+00 -0.13451594023E+01  0.20248966534E+02  0.20294613153E+02  0.51100000000E-03 0.  1.
        -12    1    3    3    0    0 -0.81235022883E+01 -0.77958202530E+01  0.16577445672E+02  0.20039406375E+02  0.00000000000E+00 0.  1.
</event>
<event>
 7    1  0.2339217E-009  0.4778728E+02  0.7816164E-02  0.1312668E+00
        -11   -1    0    0    0    0  0.00000000000E+00  0.00000000000E+00  0.45593999997E+02  0.45594000000E+02  0.51100000000E-03 0.  1.
         11   -1    0    0    0    0 -0.00000000000E+00 -0.00000000000E+00 -0.45593999997E+02  0.45594000000E+02  0.51100000000E-03 0. -1.
    9900012    2    1    2    0    0  0.23447771928E+02  0.12370725455E+02  0.34362618780E+02  0.47787280811E+02  0.20000044530E+02 0.  0.
         12    1    1    2    0    0 -0.23447771928E+02 -0.12370725455E+02 -0.34362618780E+02  0.43400719189E+02  0.00000000000E+00 0. -1.
         11    1    3    3    0    0  0.60901730701E+00  0.28469072749E+01  0.52883334827E+01  0.60367420350E+01  0.51100000000E-03 0. -1.
        -11    1    3    3    0    0  0.18592301421E+01  0.71746961305E-01  0.14266227059E+02  0.14387046921E+02  0.51100000000E-03 0.  1.
         12    1    3    3    0    0  0.20979524479E+02  0.94520712188E+01  0.14808058238E+02  0.27363491855E+02  0.00000000000E+00 0. -1.
</event>
<event>
 7    1  0.2339217E-009  0.4778727E+02  0.7816164E-02  0.1312668E+00
        -11   -1    0    0    0    0  0.00000000000E+00  0.00000000000E+00  0.45593999997E+02  0.45594000000E+02  0.51100000000E-03 0.  1.
         11   -1    0    0    0    0 -0.00000000000E+00 -0.00000000000E+00 -0.45593999997E+02  0.45594000000E+02  0.51100000000E-03 0. -1.
    9900012    2    1    2    0    0 -0.31598793373E+02  0.22557266052E+02  0.19398688271E+02  0.47787273036E+02  0.20000009078E+02 0.  0.
         12    1    1    2    0    0  0.31598793373E+02 -0.22557266052E+02 -0.19398688271E+02  0.43400726964E+02  0.00000000000E+00 0. -1.
         11    1    3    3    0    0 -0.37502693602E+01 -0.17148846346E+01  0.62036861459E+01  0.74492329567E+01  0.51100000000E-03 0. -1.
        -11    1    3    3    0    0 -0.12369560944E+02  0.10040075263E+02  0.10636039624E+02  0.19155534145E+02  0.51100000000E-03 0.  1.
         12    1    3    3    0    0 -0.15478963069E+02  0.14232075424E+02  0.25589625017E+01  0.21182505934E+02  0.00000000000E+00 0. -1.
</event>
<event>
 7    1  0.2339217E-009  0.4778725E+02  0.7816164E-02  0.1312668E+00
        -11   -1    0    0    0    0  0.00000000000E+00  0.00000000000E+00  0.45593999997E+02  0.45594000000E+02  0.51100000000E-03 0.  1.
         11   -1    0    0    0    0 -0.00000000000E+00 -0.00000000000E+00 -0.45593999997E+02  0.45594000000E+02  0.51100000000E-03 0. -1.
    9900012    2    1    2    0    0 -0.38746935180E+02 -0.18449058699E+00  0.19551616314E+02  0.47787254348E+02  0.19999923874E+02 0.  0.
         12    1    1    2    0    0  0.38746935180E+02  0.18449058699E+00 -0.19551616314E+02  0.43400745652E+02  0.00000000000E+00 0. -1.
         11    1    3    3    0    0 -0.23068839574E+02 -0.36939902232E+01  0.51721827541E+01  0.23928401488E+02  0.51100000000E-03 0. -1.
        -11    1    3    3    0    0 -0.72672411096E+01 -0.16996582287E+01  0.14905481088E+01  0.76107401326E+01  0.51100000000E-03 0.  1.
        -12    1    3    3    0    0 -0.84108544968E+01  0.52091578649E+01  0.12888885451E+02  0.16248112727E+02  0.00000000000E+00 0.  1.
</event>
<event>
 7    1  0.2339217E-009  0.4778727E+02  0.7816164E-02  0.1312668E+00
        -11   -1    0    0    0    0  0.00000000000E+00  0.00000000000E+00  0.45593999997E+02  0.45594000000E+02  0.51100000000E-03 0. -1.
         11   -1    0    0    0    0 -0.00000000000E+00 -0.00000000000E+00 -0.45593999997E+02  0.45594000000E+02  0.51100000000E-03 0.  1.
    9900012    2    1    2    0    0 -0.18754553794E+02 -0.36867000482E+02 -0.13142085031E+02  0.47787269458E+02  0.19999992769E+02 0.  0.
         12    1    1    2    0    0  0.18754553794E+02  0.36867000482E+02  0.13142085031E+02  0.43400730542E+02  0.00000000000E+00 0. -1.
         11    1    3    3    0    0 -0.80352378960E+01 -0.64878184686E+01  0.31142306544E+00  0.10332174075E+02  0.51100000000E-03 0. -1.
        -11    1    3    3    0    0 -0.24373961860E-01 -0.19859683079E+01  0.24862764672E+01  0.31821745934E+01  0.51100000000E-03 0.  1.
        -12    1    3    3    0    0 -0.10694941937E+02 -0.28393213706E+02 -0.15939784564E+02  0.34272920790E+02  0.00000000000E+00 0.  1.
</event>
<event>
 7    1  0.2339217E-009  0.4778727E+02  0.7816164E-02  0.1312668E+00
        -11   -1    0    0    0    0  0.00000000000E+00  0.00000000000E+00  0.45593999997E+02  0.45594000000E+02  0.51100000000E-03 0. -1.
         11   -1    0    0    0    0 -0.00000000000E+00 -0.00000000000E+00 -0.45593999997E+02  0.45594000000E+02  0.51100000000E-03 0.  1.
    9900012    2    1    2    0    0 -0.21334762121E+02 -0.78495191134E+00 -0.37786706301E+02  0.47787269622E+02  0.19999993514E+02 0.  0.
         12    1    1    2    0    0  0.21334762121E+02  0.78495191134E+00  0.37786706301E+02  0.43400730378E+02  0.00000000000E+00 0. -1.
         11    1    3    3    0    0 -0.21941116839E+02  0.30750878909E+01 -0.22991229935E+02  0.31929068697E+02  0.51100000000E-03 0. -1.
        -11    1    3    3    0    0 -0.10301353887E+01 -0.17703993527E+00 -0.70487563011E+01  0.71258324224E+01  0.51100000000E-03 0.  1.
         12    1    3    3    0    0  0.16364901070E+01 -0.36829998670E+01 -0.77467200651E+01  0.87323685021E+01  0.00000000000E+00 0. -1.
</event>
<event>
 7    1  0.2339217E-009  0.4778728E+02  0.7816164E-02  0.1312668E+00
        -11   -1    0    0    0    0  0.00000000000E+00  0.00000000000E+00  0.45593999997E+02  0.45594000000E+02  0.51100000000E-03 0.  1.
         11   -1    0    0    0    0 -0.00000000000E+00 -0.00000000000E+00 -0.45593999997E+02  0.45594000000E+02  0.51100000000E-03 0. -1.
    9900012    2    1    2    0    0 -0.31255917415E+02  0.56654030068E+01  0.29573529371E+02  0.47787276456E+02  0.20000024672E+02 0.  0.
         12    1    1    2    0    0  0.31255917415E+02 -0.56654030068E+01 -0.29573529371E+02  0.43400723544E+02  0.00000000000E+00 0. -1.
         11    1    3    3    0    0 -0.45632712111E+01 -0.59921813000E+01  0.66643609489E+01  0.10057006910E+02  0.51100000000E-03 0. -1.
        -11    1    3    3    0    0 -0.91347304327E+01  0.12112191424E+01  0.46132984420E+01  0.10304992706E+02  0.51100000000E-03 0.  1.
        -12    1    3    3    0    0 -0.17557915771E+02  0.10446365164E+02  0.18295869980E+02  0.27425276839E+02  0.00000000000E+00 0.  1.
</event>
<event>
 7    1  0.2339217E-009  0.4778727E+02  0.7816164E-02  0.1312668E+00
        -11   -1    0    0    0    0  0.00000000000E+00  0.00000000000E+00  0.45593999997E+02  0.45594000000E+02  0.51100000000E-03 0.  1.
         11   -1    0    0    0    0 -0.00000000000E+00 -0.00000000000E+00 -0.45593999997E+02  0.45594000000E+02  0.51100000000E-03 0. -1.
    9900012    2    1    2    0    0  0.74312533412E+01 -0.37962064724E+02  0.19679462432E+02  0.47787272748E+02  0.20000007769E+02 0.  0.
         12    1    1    2    0    0 -0.74312533412E+01  0.37962064724E+02 -0.19679462432E+02  0.43400727252E+02  0.00000000000E+00 0. -1.
         11    1    3    3    0    0  0.62561193465E+00 -0.97825343851E+01 -0.30327265005E+01  0.10260935609E+02  0.51100000000E-03 0. -1.
        -11    1    3    3    0    0  0.25395510575E+01 -0.81148455343E+01  0.28366398092E+01  0.89636244504E+01  0.51100000000E-03 0.  1.
        -12    1    3    3    0    0  0.42660903491E+01 -0.20064684805E+02  0.19875549123E+02  0.28562712689E+02  0.00000000000E+00 0.  1.
</event>
<event>
 7    1  0.2339217E-009  0.4778727E+02  0.7816164E-02  0.1312668E+00
        -11   -1    0    0    0    0  0.00000000000E+00  0.00000000000E+00  0.45593999997E+02  0.45594000000E+02  0.51100000000E-03 0. -1.
         11   -1    0    0    0    0 -0.00000000000E+00 -0.00000000000E+00 -0.45593999997E+02  0.45594000000E+02  0.51100000000E-03 0.  1.
    9900012    2    1    2    0    0  0.15105240208E+02  0.40650377609E+02  0.17326023947E+01  0.47787269677E+02  0.19999993766E+02 0.  0.
         12    1    1    2    0    0 -0.15105240208E+02 -0.40650377609E+02 -0.17326023947E+01  0.43400730323E+02  0.00000000000E+00 0. -1.
         11    1    3    3    0    0  0.20468446230E+01  0.13626996763E+02 -0.45987915896E+01  0.14526992050E+02  0.51100000000E-03 0. -1.
        -11    1    3    3    0    0  0.40350181767E+01  0.18175155790E+02 -0.10097840885E+01  0.18645034831E+02  0.51100000000E-03 0.  1.
         12    1    3    3    0    0  0.90233774083E+01  0.88482250567E+01  0.73411780728E+01  0.14615242797E+02  0.00000000000E+00 0. -1.
</event>
<event>
 7    1  0.2339217E-009  0.4778727E+02  0.7816164E-02  0.1312668E+00
        -11   -1    0    0    0    0  0.00000000000E+00  0.00000000000E+00  0.45593999997E+02  0.45594000000E+02  0.51100000000E-03 0.  1.
         11   -1    0    0    0    0 -0.00000000000E+00 -0.00000000000E+00 -0.45593999997E+02  0.45594000000E+02  0.51100000000E-03 0. -1.
    9900012    2    1    2    0    0  0.34989417360E+02  0.11040128103E+02  0.23183608207E+02  0.47787269071E+02  0.19999991001E+02 0.  0.
         12    1    1    2    0    0 -0.34989417360E+02 -0.11040128103E+02 -0.23183608207E+02  0.43400730929E+02  0.00000000000E+00 0. -1.
         11    1    3    3    0    0  0.15142219174E+02  0.10403929959E+02  0.10054418879E+02  0.20943254268E+02  0.51100000000E-03 0. -1.
        -11    1    3    3    0    0  0.13562354988E+02  0.27038891581E+01  0.14553529851E+02  0.20076197867E+02  0.51100000000E-03 0.  1.
         12    1    3    3    0    0  0.62848431979E+01 -0.20676910135E+01 -0.14243405230E+01  0.67678169357E+01  0.00000000000E+00 0. -1.
</event>
<event>
 7    1  0.2339217E-009  0.4778727E+02  0.7816164E-02  0.1312668E+00
        -11   -1    0    0    0    0  0.00000000000E+00  0.00000000000E+00  0.45593999997E+02  0.45594000000E+02  0.51100000000E-03 0.  1.
         11   -1    0    0    0    0 -0.00000000000E+00 -0.00000000000E+00 -0.45593999997E+02  0.45594000000E+02  0.51100000000E-03 0. -1.
    9900012    2    1    2    0    0 -0.17309509892E+02 -0.85024189460E+01  0.38880757321E+02  0.47787267857E+02  0.19999985469E+02 0.  0.
         12    1    1    2    0    0  0.17309509892E+02  0.85024189460E+01 -0.38880757321E+02  0.43400732143E+02  0.00000000000E+00 0. -1.
         11    1    3    3    0    0 -0.91794683044E+00  0.38090715400E+01  0.64022618472E+01  0.75060381961E+01  0.51100000000E-03 0. -1.
        -11    1    3    3    0    0  0.12001489040E+01 -0.40560194787E+01  0.77695126209E+01  0.88462974193E+01  0.51100000000E-03 0.  1.
        -12    1    3    3    0    0 -0.17591711965E+02 -0.82554710072E+01  0.24708982853E+02  0.31434932242E+02  0.00000000000E+00 0.  1.
</event>
<event>
 7    1  0.2339217E-009  0.4778727E+02  0.7816164E-02  0.1312668E+00
        -11   -1    0    0    0    0  0.00000000000E+00  0.00000000000E+00  0.45593999997E+02  0.45594000000E+02  0.51100000000E-03 0.  1.
         11   -1    0    0    0    0 -0.00000000000E+00 -0.00000000000E+00 -0.45593999997E+02  0.45594000000E+02  0.51100000000E-03 0. -1.
    9900012    2    1    2    0    0  0.13361134614E+02  0.25915763822E+02  0.32147734291E+02  0.47787267833E+02  0.19999985356E+02 0.  0.
         12    1    1    2    0    0 -0.13361134614E+02 -0.25915763822E+02 -0.32147734291E+02  0.43400732167E+02  0.00000000000E+00 0. -1.
         11    1    3    3    0    0  0.12078351997E+02  0.79295628328E+01  0.10969193636E+02  0.18140776251E+02  0.51100000000E-03 0. -1.
        -11    1    3    3    0    0  0.48349839694E+01  0.10117004087E+02  0.75660270886E+01  0.13526847668E+02  0.51100000000E-03 0.  1.
         12    1    3    3    0    0 -0.35522013521E+01  0.78691969020E+01  0.13612513566E+02  0.16119643914E+02  0.00000000000E+00 0. -1.
</event>
<event>
 7    1  0.2339217E-009  0.4778727E+02  0.7816164E-02  0.1312668E+00
        -11   -1    0    0    0    0  0.00000000000E+00  0.00000000000E+00  0.45593999997E+02  0.45594000000E+02  0.51100000000E-03 0.  1.
         11   -1    0    0    0    0 -0.00000000000E+00 -0.00000000000E+00 -0.45593999997E+02  0.45594000000E+02  0.51100000000E-03 0. -1.
    9900012    2    1    2    0    0 -0.91448657214E+01 -0.36740711074E+02  0.21215908051E+02  0.47787272198E+02  0.20000005259E+02 0.  0.
         12    1    1    2    0    0  0.91448657214E+01  0.36740711074E+02 -0.21215908051E+02  0.43400727802E+02  0.00000000000E+00 0. -1.
         11    1    3    3    0    0 -0.36049130070E+01 -0.24736375263E+02  0.15758944475E+02  0.29550431303E+02  0.51100000000E-03 0. -1.
        -11    1    3    3    0    0 -0.22024235932E+01 -0.43883714251E+01  0.81342493292E+01  0.95012886420E+01  0.51100000000E-03 0.  1.
         12    1    3    3    0    0 -0.33375291212E+01 -0.76159643860E+01 -0.26772857526E+01  0.87355522530E+01  0.00000000000E+00 0. -1.
</event>
<event>
 7    1  0.2339217E-009  0.4778727E+02  0.7816164E-02  0.1312668E+00
        -11   -1    0    0    0    0  0.00000000000E+00  0.00000000000E+00  0.45593999997E+02  0.45594000000E+02  0.51100000000E-03 0.  1.
         11   -1    0    0    0    0 -0.00000000000E+00 -0.00000000000E+00 -0.45593999997E+02  0.45594000000E+02  0.51100000000E-03 0. -1.
    9900012    2    1    2    0    0 -0.40439346088E+02 -0.15279682771E+02  0.38489221170E+01  0.47787267068E+02  0.19999981870E+02 0.  0.
         12    1    1    2    0    0  0.40439346088E+02  0.15279682771E+02 -0.38489221170E+01  0.43400732932E+02  0.00000000000E+00 0. -1.
         11    1    3    3    0    0 -0.16111883902E+02 -0.70959812019E+01 -0.27519392366E+01  0.17819060635E+02  0.51100000000E-03 0. -1.
        -11    1    3    3    0    0 -0.18937301733E+01 -0.64462449191E+01  0.11484065619E+01  0.68160931199E+01  0.51100000000E-03 0.  1.
        -12    1    3    3    0    0 -0.22433732012E+02 -0.17374566499E+01  0.54524547918E+01  0.23152113313E+02  0.00000000000E+00 0.  1.
</event>
<event>
 7    1  0.2339217E-009  0.4778727E+02  0.7816164E-02  0.1312668E+00
        -11   -1    0    0    0    0  0.00000000000E+00  0.00000000000E+00  0.45593999997E+02  0.45594000000E+02  0.51100000000E-03 0.  1.
         11   -1    0    0    0    0 -0.00000000000E+00 -0.00000000000E+00 -0.45593999997E+02  0.45594000000E+02  0.51100000000E-03 0. -1.
    9900012    2    1    2    0    0 -0.21084333231E+02 -0.99238774385E+01  0.36614078755E+02  0.47787271731E+02  0.20000003131E+02 0.  0.
         12    1    1    2    0    0  0.21084333231E+02  0.99238774385E+01 -0.36614078755E+02  0.43400728269E+02  0.00000000000E+00 0. -1.
         11    1    3    3    0    0 -0.65666608227E+01 -0.33909377302E+01  0.52700367593E+01  0.90770469183E+01  0.51100000000E-03 0. -1.
        -11    1    3    3    0    0 -0.18108728090E+02 -0.54245644723E+01  0.25098368095E+02  0.31421012301E+02  0.51100000000E-03 0.  1.
         12    1    3    3    0    0  0.35910556813E+01 -0.11083752360E+01  0.62456739004E+01  0.72892125116E+01  0.00000000000E+00 0. -1.
</event>
<event>
 7    1  0.2339217E-009  0.4778727E+02  0.7816164E-02  0.1312668E+00
        -11   -1    0    0    0    0  0.00000000000E+00  0.00000000000E+00  0.45593999997E+02  0.45594000000E+02  0.51100000000E-03 0.  1.
         11   -1    0    0    0    0 -0.00000000000E+00 -0.00000000000E+00 -0.45593999997E+02  0.45594000000E+02  0.51100000000E-03 0. -1.
    9900012    2    1    2    0    0 -0.26785468134E+02  0.16936469235E+02  0.29653290723E+02  0.47787274845E+02  0.20000017326E+02 0.  0.
         12    1    1    2    0    0  0.26785468134E+02 -0.16936469235E+02 -0.29653290723E+02  0.43400725155E+02  0.00000000000E+00 0. -1.
         11    1    3    3    0    0  0.12898161765E+01  0.16381810433E+01  0.27203569391E+01  0.34274779412E+01  0.51100000000E-03 0. -1.
        -11    1    3    3    0    0 -0.45370484078E+01 -0.28691629513E+01  0.56521411161E+01  0.77951012663E+01  0.51100000000E-03 0.  1.
        -12    1    3    3    0    0 -0.23538235903E+02  0.18167451143E+02  0.21280792668E+02  0.36564695637E+02  0.00000000000E+00 0.  1.
</event>
<event>
 7    1  0.2339217E-009  0.4778727E+02  0.7816164E-02  0.1312668E+00
        -11   -1    0    0    0    0  0.00000000000E+00  0.00000000000E+00  0.45593999997E+02  0.45594000000E+02  0.51100000000E-03 0. -1.
         11   -1    0    0    0    0 -0.00000000000E+00 -0.00000000000E+00 -0.45593999997E+02  0.45594000000E+02  0.51100000000E-03 0.  1.
    9900012    2    1    2    0    0 -0.10568692162E+01 -0.23006545397E+02 -0.36785934743E+02  0.47787273064E+02  0.20000009207E+02 0.  0.
         12    1    1    2    0    0  0.10568692162E+01  0.23006545397E+02  0.36785934743E+02  0.43400726936E+02  0.00000000000E+00 0. -1.
         11    1    3    3    0    0  0.71260221484E+01 -0.10088914155E+02 -0.11248475343E+02  0.16706123976E+02  0.51100000000E-03 0. -1.
        -11    1    3    3    0    0 -0.94384111065E+00 -0.25858787545E+01 -0.17966539975E+00  0.27586019815E+01  0.51100000000E-03 0.  1.
        -12    1    3    3    0    0 -0.72390502540E+01 -0.10331752488E+02 -0.25357794000E+02  0.28322547107E+02  0.00000000000E+00 0.  1.
</event>
<event>
 7    1  0.2339217E-009  0.4778727E+02  0.7816164E-02  0.1312668E+00
        -11   -1    0    0    0    0  0.00000000000E+00  0.00000000000E+00  0.45593999997E+02  0.45594000000E+02  0.51100000000E-03 0.  1.
         11   -1    0    0    0    0 -0.00000000000E+00 -0.00000000000E+00 -0.45593999997E+02  0.45594000000E+02  0.51100000000E-03 0. -1.
    9900012    2    1    2    0    0  0.28797521022E+02 -0.15467010277E+02  0.28549909267E+02  0.47787274856E+02  0.20000017376E+02 0.  0.
         12    1    1    2    0    0 -0.28797521022E+02  0.15467010277E+02 -0.28549909267E+02  0.43400725144E+02  0.00000000000E+00 0. -1.
         11    1    3    3    0    0  0.62230916097E+01 -0.20819123559E+01  0.10521911579E+02  0.12400477885E+02  0.51100000000E-03 0. -1.
        -11    1    3    3    0    0  0.12546071993E+02 -0.65783708817E+01  0.18447688692E+02  0.23259322953E+02  0.51100000000E-03 0.  1.
        -12    1    3    3    0    0  0.10028357419E+02 -0.68067270398E+01 -0.41969100307E+00  0.12127474018E+02  0.00000000000E+00 0.  1.
</event>
<event>
 7    1  0.2339217E-009  0.4778727E+02  0.7816164E-02  0.1312668E+00
        -11   -1    0    0    0    0  0.00000000000E+00  0.00000000000E+00  0.45593999997E+02  0.45594000000E+02  0.51100000000E-03 0.  1.
         11   -1    0    0    0    0 -0.00000000000E+00 -0.00000000000E+00 -0.45593999997E+02  0.45594000000E+02  0.51100000000E-03 0. -1.
    9900012    2    1    2    0    0 -0.10605237768E+02  0.31718316388E+02  0.27660457514E+02  0.47787267604E+02  0.19999984316E+02 0.  0.
         12    1    1    2    0    0  0.10605237768E+02 -0.31718316388E+02 -0.27660457514E+02  0.43400732396E+02  0.00000000000E+00 0. -1.
         11    1    3    3    0    0 -0.41001174390E+01  0.90534785996E+01  0.15086685378E+02  0.18066115070E+02  0.51100000000E-03 0. -1.
        -11    1    3    3    0    0 -0.75865941731E+01  0.47644880142E+01  0.49467866705E+01  0.10233643330E+02  0.51100000000E-03 0.  1.
         12    1    3    3    0    0  0.10814738441E+01  0.17900349774E+02  0.76269854659E+01  0.19487509205E+02  0.00000000000E+00 0. -1.
</event>
<event>
 7    1  0.2339217E-009  0.4778727E+02  0.7816164E-02  0.1312668E+00
        -11   -1    0    0    0    0  0.00000000000E+00  0.00000000000E+00  0.45593999997E+02  0.45594000000E+02  0.51100000000E-03 0.  1.
         11   -1    0    0    0    0 -0.00000000000E+00 -0.00000000000E+00 -0.45593999997E+02  0.45594000000E+02  0.51100000000E-03 0. -1.
    9900012    2    1    2    0    0  0.12200560327E+02 -0.27545658102E+02  0.31241103115E+02  0.47787268711E+02  0.19999989359E+02 0.  0.
         12    1    1    2    0    0 -0.12200560327E+02  0.27545658102E+02 -0.31241103115E+02  0.43400731289E+02  0.00000000000E+00 0. -1.
         11    1    3    3    0    0 -0.81382380543E+00 -0.88432554903E+01  0.29846938345E+01  0.93687712321E+01  0.51100000000E-03 0. -1.
        -11    1    3    3    0    0  0.75115127116E+01 -0.16271106676E+02  0.13359904745E+02  0.22353048802E+02  0.51100000000E-03 0.  1.
         12    1    3    3    0    0  0.55028714211E+01 -0.24312959361E+01  0.14896504535E+02  0.16065448677E+02  0.00000000000E+00 0. -1.
</event>
<event>
 7    1  0.2339217E-009  0.4778729E+02  0.7816164E-02  0.1312668E+00
        -11   -1    0    0    0    0  0.00000000000E+00  0.00000000000E+00  0.45593999997E+02  0.45594000000E+02  0.51100000000E-03 0. -1.
         11   -1    0    0    0    0 -0.00000000000E+00 -0.00000000000E+00 -0.45593999997E+02  0.45594000000E+02  0.51100000000E-03 0.  1.
    9900012    2    1    2    0    0  0.33232363207E+02 -0.27831721666E+02  0.21509813061E+01  0.47787292451E+02  0.20000097599E+02 0.  0.
         12    1    1    2    0    0 -0.33232363207E+02  0.27831721666E+02 -0.21509813061E+01  0.43400707549E+02  0.00000000000E+00 0. -1.
         11    1    3    3    0    0  0.36727846276E+01 -0.80875943559E+01 -0.56341679526E+00  0.89003352821E+01  0.51100000000E-03 0. -1.
        -11    1    3    3    0    0  0.23876975567E+01 -0.79131725427E+01 -0.28306747533E+01  0.87368254608E+01  0.51100000000E-03 0.  1.
        -12    1    3    3    0    0  0.27171881023E+02 -0.11830954767E+02  0.55450728546E+01  0.30150131708E+02  0.00000000000E+00 0.  1.
</event>
<event>
 7    1  0.2339217E-009  0.4778727E+02  0.7816164E-02  0.1312668E+00
        -11   -1    0    0    0    0  0.00000000000E+00  0.00000000000E+00  0.45593999997E+02  0.45594000000E+02  0.51100000000E-03 0.  1.
         11   -1    0    0    0    0 -0.00000000000E+00 -0.00000000000E+00 -0.45593999997E+02  0.45594000000E+02  0.51100000000E-03 0. -1.
    9900012    2    1    2    0    0  0.20267416833E+02 -0.38271490536E+02  0.28544569781E+01  0.47787273075E+02  0.20000009260E+02 0.  0.
         12    1    1    2    0    0 -0.20267416833E+02  0.38271490536E+02 -0.28544569781E+01  0.43400726925E+02  0.00000000000E+00 0. -1.
         11    1    3    3    0    0  0.18797978781E+01 -0.71276313468E+01 -0.16475706915E+01  0.75532283246E+01  0.51100000000E-03 0.  1.
        -11    1    3    3    0    0  0.14918787448E+02 -0.31951667295E+02  0.69114987578E+01  0.35933940463E+02  0.51100000000E-03 0. -1.
         12    1    3    3    0    0  0.34688315070E+01  0.80780810592E+00 -0.24094710881E+01  0.43001042876E+01  0.00000000000E+00 0. -1.
</event>
<event>
 7    1  0.2339217E-009  0.4778727E+02  0.7816164E-02  0.1312668E+00
        -11   -1    0    0    0    0  0.00000000000E+00  0.00000000000E+00  0.45593999997E+02  0.45594000000E+02  0.51100000000E-03 0.  1.
         11   -1    0    0    0    0 -0.00000000000E+00 -0.00000000000E+00 -0.45593999997E+02  0.45594000000E+02  0.51100000000E-03 0. -1.
    9900012    2    1    2    0    0  0.26371508940E+02  0.31829488287E+02 -0.13230653860E+02  0.47787274085E+02  0.20000013862E+02 0.  0.
         12    1    1    2    0    0 -0.26371508940E+02 -0.31829488287E+02  0.13230653860E+02  0.43400725915E+02  0.00000000000E+00 0. -1.
         11    1    3    3    0    0  0.45586979262E+01  0.44076220567E+01  0.25057321637E+01  0.68181781228E+01  0.51100000000E-03 0. -1.
        -11    1    3    3    0    0  0.22959172467E+01  0.13877142464E+02 -0.61450025574E+01  0.15349507342E+02  0.51100000000E-03 0.  1.
        -12    1    3    3    0    0  0.19516893768E+02  0.13544723766E+02 -0.95913834663E+01  0.25619588620E+02  0.00000000000E+00 0.  1.
</event>
<event>
 7    1  0.2339217E-009  0.4778727E+02  0.7816164E-02  0.1312668E+00
        -11   -1    0    0    0    0  0.00000000000E+00  0.00000000000E+00  0.45593999997E+02  0.45594000000E+02  0.51100000000E-03 0.  1.
         11   -1    0    0    0    0 -0.00000000000E+00 -0.00000000000E+00 -0.45593999997E+02  0.45594000000E+02  0.51100000000E-03 0. -1.
    9900012    2    1    2    0    0 -0.39565047595E+01  0.32304297863E+02  0.28712396348E+02  0.47787270808E+02  0.19999998924E+02 0.  0.
         12    1    1    2    0    0  0.39565047595E+01 -0.32304297863E+02 -0.28712396348E+02  0.43400729192E+02  0.00000000000E+00 0. -1.
         11    1    3    3    0    0 -0.72434928315E+00  0.24686604701E+01 -0.19818080779E+01  0.32475421351E+01  0.51100000000E-03 0. -1.
        -11    1    3    3    0    0  0.42195800493E+01  0.12322579691E+02  0.99757004848E+01  0.16406261806E+02  0.51100000000E-03 0.  1.
         12    1    3    3    0    0 -0.74517355256E+01  0.17513057702E+02  0.20718503941E+02  0.28133466867E+02  0.00000000000E+00 0. -1.
</event>
<event>
 7    1  0.2339217E-009  0.4778727E+02  0.7816164E-02  0.1312668E+00
        -11   -1    0    0    0    0  0.00000000000E+00  0.00000000000E+00  0.45593999997E+02  0.45594000000E+02  0.51100000000E-03 0.  1.
         11   -1    0    0    0    0 -0.00000000000E+00 -0.00000000000E+00 -0.45593999997E+02  0.45594000000E+02  0.51100000000E-03 0. -1.
    9900012    2    1    2    0    0 -0.34006381593E+02 -0.10903333400E+02  0.24663870076E+02  0.47787272409E+02  0.20000006223E+02 0.  0.
         12    1    1    2    0    0  0.34006381593E+02  0.10903333400E+02 -0.24663870076E+02  0.43400727591E+02  0.00000000000E+00 0. -1.
         11    1    3    3    0    0 -0.21639256411E+02 -0.56090575934E+01  0.51034230152E+01  0.22929541466E+02  0.51100000000E-03 0. -1.
        -11    1    3    3    0    0 -0.90040547011E+01 -0.60837892351E+00  0.85683398283E+01  0.12444258662E+02  0.51100000000E-03 0.  1.
        -12    1    3    3    0    0 -0.33630704807E+01 -0.46858968831E+01  0.10992107233E+02  0.12413472281E+02  0.00000000000E+00 0.  1.
</event>
<event>
 7    1  0.2339217E-009  0.4778727E+02  0.7816164E-02  0.1312668E+00
        -11   -1    0    0    0    0  0.00000000000E+00  0.00000000000E+00  0.45593999997E+02  0.45594000000E+02  0.51100000000E-03 0.  1.
         11   -1    0    0    0    0 -0.00000000000E+00 -0.00000000000E+00 -0.45593999997E+02  0.45594000000E+02  0.51100000000E-03 0. -1.
    9900012    2    1    2    0    0 -0.28058568375E+02 -0.24922045104E+02  0.21799813709E+02  0.47787268795E+02  0.19999989742E+02 0.  0.
         12    1    1    2    0    0  0.28058568375E+02  0.24922045104E+02 -0.21799813709E+02  0.43400731205E+02  0.00000000000E+00 0. -1.
         11    1    3    3    0    0 -0.56112107228E+01 -0.22978238622E+01 -0.74438051447E+00  0.61089919700E+01  0.51100000000E-03 0. -1.
        -11    1    3    3    0    0 -0.23043393457E+02 -0.17727402188E+02  0.15134430167E+02  0.32776664673E+02  0.51100000000E-03 0.  1.
        -12    1    3    3    0    0  0.59603580478E+00 -0.48968190539E+01  0.74097640565E+01  0.89016121518E+01  0.00000000000E+00 0.  1.
</event>
<event>
 7    1  0.2339217E-009  0.4778727E+02  0.7816164E-02  0.1312668E+00
        -11   -1    0    0    0    0  0.00000000000E+00  0.00000000000E+00  0.45593999997E+02  0.45594000000E+02  0.51100000000E-03 0. -1.
         11   -1    0    0    0    0 -0.00000000000E+00 -0.00000000000E+00 -0.45593999997E+02  0.45594000000E+02  0.51100000000E-03 0.  1.
    9900012    2    1    2    0    0 -0.43275552880E+02  0.27939255961E+01 -0.17446849264E+01  0.47787269329E+02  0.19999992178E+02 0.  0.
         12    1    1    2    0    0  0.43275552880E+02 -0.27939255961E+01  0.17446849264E+01  0.43400730671E+02  0.00000000000E+00 0. -1.
         11    1    3    3    0    0 -0.91970483199E+00 -0.36478729843E+00 -0.31368550306E+01  0.32891923774E+01  0.51100000000E-03 0. -1.
        -11    1    3    3    0    0 -0.27375240563E+02 -0.12809619804E+00 -0.50949385002E+01  0.27845620896E+02  0.51100000000E-03 0.  1.
        -12    1    3    3    0    0 -0.14980607485E+02  0.32868090925E+01  0.64871086045E+01  0.16652456056E+02  0.00000000000E+00 0.  1.
</event>
<event>
 7    1  0.2339217E-009  0.4778727E+02  0.7816164E-02  0.1312668E+00
        -11   -1    0    0    0    0  0.00000000000E+00  0.00000000000E+00  0.45593999997E+02  0.45594000000E+02  0.51100000000E-03 0.  1.
         11   -1    0    0    0    0 -0.00000000000E+00 -0.00000000000E+00 -0.45593999997E+02  0.45594000000E+02  0.51100000000E-03 0. -1.
    9900012    2    1    2    0    0  0.25010692608E+02 -0.31064819379E-01  0.35469531499E+02  0.47787269885E+02  0.19999994714E+02 0.  0.
         12    1    1    2    0    0 -0.25010692608E+02  0.31064819379E-01 -0.35469531499E+02  0.43400730115E+02  0.00000000000E+00 0. -1.
         11    1    3    3    0    0  0.66416575039E+01 -0.27173964378E+01  0.20444838015E+02  0.21667654685E+02  0.51100000000E-03 0. -1.
        -11    1    3    3    0    0  0.12178719547E+02 -0.28172416797E+01  0.11923386771E+02  0.17274988071E+02  0.51100000000E-03 0.  1.
         12    1    3    3    0    0  0.61903155570E+01  0.55035732981E+01  0.31013067125E+01  0.88446271300E+01  0.00000000000E+00 0. -1.
</event>
<event>
 7    1  0.2339217E-009  0.4778727E+02  0.7816164E-02  0.1312668E+00
        -11   -1    0    0    0    0  0.00000000000E+00  0.00000000000E+00  0.45593999997E+02  0.45594000000E+02  0.51100000000E-03 0.  1.
         11   -1    0    0    0    0 -0.00000000000E+00 -0.00000000000E+00 -0.45593999997E+02  0.45594000000E+02  0.51100000000E-03 0. -1.
    9900012    2    1    2    0    0 -0.10197947535E+02  0.25199608479E+02  0.33832008565E+02  0.47787271838E+02  0.20000003619E+02 0.  0.
         12    1    1    2    0    0  0.10197947535E+02 -0.25199608479E+02 -0.33832008565E+02  0.43400728162E+02  0.00000000000E+00 0. -1.
         11    1    3    3    0    0  0.53749500796E+01  0.63073454037E+01  0.85520094207E+01  0.11908381913E+02  0.51100000000E-03 0. -1.
        -11    1    3    3    0    0 -0.36239779477E+01  0.97403658869E+01  0.96965600184E+01  0.14213768685E+02  0.51100000000E-03 0.  1.
        -12    1    3    3    0    0 -0.11948919667E+02  0.91518971887E+01  0.15583439126E+02  0.21665121240E+02  0.00000000000E+00 0.  1.
</event>
<event>
 7    1  0.2339217E-009  0.4778727E+02  0.7816164E-02  0.1312668E+00
        -11   -1    0    0    0    0  0.00000000000E+00  0.00000000000E+00  0.45593999997E+02  0.45594000000E+02  0.51100000000E-03 0.  1.
         11   -1    0    0    0    0 -0.00000000000E+00 -0.00000000000E+00 -0.45593999997E+02  0.45594000000E+02  0.51100000000E-03 0. -1.
    9900012    2    1    2    0    0  0.21703711280E+02 -0.14868362286E+02  0.34518164656E+02  0.47787274527E+02  0.20000015876E+02 0.  0.
         12    1    1    2    0    0 -0.21703711280E+02  0.14868362286E+02 -0.34518164656E+02  0.43400725473E+02  0.00000000000E+00 0. -1.
         11    1    3    3    0    0  0.55435962805E+01  0.12728424807E+01  0.35426608903E+01  0.67008980105E+01  0.51100000000E-03 0. -1.
        -11    1    3    3    0    0  0.83443610267E+01 -0.63309323537E+01  0.37759724143E+01  0.11134048381E+02  0.51100000000E-03 0.  1.
         12    1    3    3    0    0  0.78157539730E+01 -0.98102724130E+01  0.27199531351E+02  0.29952328135E+02  0.00000000000E+00 0. -1.
</event>
<event>
 7    1  0.2339217E-009  0.4778727E+02  0.7816164E-02  0.1312668E+00
        -11   -1    0    0    0    0  0.00000000000E+00  0.00000000000E+00  0.45593999997E+02  0.45594000000E+02  0.51100000000E-03 0.  1.
         11   -1    0    0    0    0 -0.00000000000E+00 -0.00000000000E+00 -0.45593999997E+02  0.45594000000E+02  0.51100000000E-03 0. -1.
    9900012    2    1    2    0    0 -0.10727420871E+02 -0.35876576146E+02  0.21941215531E+02  0.47787271740E+02  0.20000003173E+02 0.  0.
         12    1    1    2    0    0  0.10727420871E+02  0.35876576146E+02 -0.21941215531E+02  0.43400728260E+02  0.00000000000E+00 0. -1.
         11    1    3    3    0    0  0.10739422340E+01  0.55242586184E+00 -0.52755467782E+00  0.13178924289E+01  0.51100000000E-03 0. -1.
        -11    1    3    3    0    0 -0.15013216742E+01 -0.68990532138E+01  0.11173691541E+02  0.13217499194E+02  0.51100000000E-03 0.  1.
         12    1    3    3    0    0 -0.10300041431E+02 -0.29529948794E+02  0.11295078667E+02  0.33251880118E+02  0.00000000000E+00 0. -1.
</event>
<event>
 7    1  0.2339217E-009  0.4778727E+02  0.7816164E-02  0.1312668E+00
        -11   -1    0    0    0    0  0.00000000000E+00  0.00000000000E+00  0.45593999997E+02  0.45594000000E+02  0.51100000000E-03 0.  1.
         11   -1    0    0    0    0 -0.00000000000E+00 -0.00000000000E+00 -0.45593999997E+02  0.45594000000E+02  0.51100000000E-03 0. -1.
    9900012    2    1    2    0    0  0.34919735328E+01  0.31540886070E+02  0.29607457957E+02  0.47787274892E+02  0.20000017542E+02 0.  0.
         12    1    1    2    0    0 -0.34919735328E+01 -0.31540886070E+02 -0.29607457957E+02  0.43400725108E+02  0.00000000000E+00 0. -1.
         11    1    3    3    0    0  0.18737739223E+01  0.18719292092E+01  0.26477655961E+01  0.37451048836E+01  0.51100000000E-03 0. -1.
        -11    1    3    3    0    0  0.58047912952E+01  0.22371487101E+02  0.10146324816E+02  0.25241373668E+02  0.51100000000E-03 0.  1.
         12    1    3    3    0    0 -0.41865916848E+01  0.72974697590E+01  0.16813367545E+02  0.18800796340E+02  0.00000000000E+00 0. -1.
</event>
<event>
 7    1  0.2339217E-009  0.4778724E+02  0.7816164E-02  0.1312668E+00
        -11   -1    0    0    0    0  0.00000000000E+00  0.00000000000E+00  0.45593999997E+02  0.45594000000E+02  0.51100000000E-03 0.  1.
         11   -1    0    0    0    0 -0.00000000000E+00 -0.00000000000E+00 -0.45593999997E+02  0.45594000000E+02  0.51100000000E-03 0. -1.
    9900012    2    1    2    0    0  0.36673098728E+02  0.23103094407E+02  0.22263364910E+01  0.47787242914E+02  0.19999871741E+02 0.  0.
         12    1    1    2    0    0 -0.36673098728E+02 -0.23103094407E+02 -0.22263364910E+01  0.43400757086E+02  0.00000000000E+00 0. -1.
         11    1    3    3    0    0  0.41895239444E+01 -0.11769449326E+01 -0.34349589104E+01  0.55440286103E+01  0.51100000000E-03 0. -1.
        -11    1    3    3    0    0  0.14109377069E+02  0.94950120607E+01 -0.27022117015E+01  0.17220096506E+02  0.51100000000E-03 0.  1.
        -12    1    3    3    0    0  0.18374197714E+02  0.14785027279E+02  0.83635071029E+01  0.25023117798E+02  0.00000000000E+00 0.  1.
</event>
<event>
 7    1  0.2339217E-009  0.4778727E+02  0.7816164E-02  0.1312668E+00
        -11   -1    0    0    0    0  0.00000000000E+00  0.00000000000E+00  0.45593999997E+02  0.45594000000E+02  0.51100000000E-03 0.  1.
         11   -1    0    0    0    0 -0.00000000000E+00 -0.00000000000E+00 -0.45593999997E+02  0.45594000000E+02  0.51100000000E-03 0. -1.
    9900012    2    1    2    0    0 -0.93804946687E+01 -0.40946084754E+02 -0.10910888381E+02  0.47787273945E+02  0.20000013223E+02 0.  0.
         12    1    1    2    0    0  0.93804946687E+01  0.40946084754E+02  0.10910888381E+02  0.43400726055E+02  0.00000000000E+00 0. -1.
         11    1    3    3    0    0  0.20996515185E+01 -0.15700882795E+01 -0.23580072471E+01  0.35261752854E+01  0.51100000000E-03 0. -1.
        -11    1    3    3    0    0 -0.18007469627E+00 -0.56813177351E+01  0.35688558993E+01  0.67116712371E+01  0.51100000000E-03 0.  1.
         12    1    3    3    0    0 -0.11300071491E+02 -0.33694678739E+02 -0.12121737033E+02  0.37549427422E+02  0.00000000000E+00 0. -1.
</event>
<event>
 7    1  0.2339217E-009  0.4778727E+02  0.7816164E-02  0.1312668E+00
        -11   -1    0    0    0    0  0.00000000000E+00  0.00000000000E+00  0.45593999997E+02  0.45594000000E+02  0.51100000000E-03 0.  1.
         11   -1    0    0    0    0 -0.00000000000E+00 -0.00000000000E+00 -0.45593999997E+02  0.45594000000E+02  0.51100000000E-03 0. -1.
    9900012    2    1    2    0    0  0.21044596670E+02  0.27715937279E+02  0.25934046869E+02  0.47787274024E+02  0.20000013585E+02 0.  0.
         12    1    1    2    0    0 -0.21044596670E+02 -0.27715937279E+02 -0.25934046869E+02  0.43400725976E+02  0.00000000000E+00 0. -1.
         11    1    3    3    0    0  0.18493431247E+01 -0.45447237114E+00  0.73029190036E+01  0.75471346459E+01  0.51100000000E-03 0. -1.
        -11    1    3    3    0    0  0.74722778131E+01  0.53010559395E+01  0.13242873094E+01  0.92568821386E+01  0.51100000000E-03 0.  1.
         12    1    3    3    0    0  0.11722975732E+02  0.22869353710E+02  0.17306840556E+02  0.30983257240E+02  0.00000000000E+00 0. -1.
</event>
<event>
 7    1  0.2339217E-009  0.4778727E+02  0.7816164E-02  0.1312668E+00
        -11   -1    0    0    0    0  0.00000000000E+00  0.00000000000E+00  0.45593999997E+02  0.45594000000E+02  0.51100000000E-03 0.  1.
         11   -1    0    0    0    0 -0.00000000000E+00 -0.00000000000E+00 -0.45593999997E+02  0.45594000000E+02  0.51100000000E-03 0. -1.
    9900012    2    1    2    0    0 -0.27261144356E+02 -0.14224859552E+02  0.30628524865E+02  0.47787272399E+02  0.20000006177E+02 0.  0.
         12    1    1    2    0    0  0.27261144356E+02  0.14224859552E+02 -0.30628524865E+02  0.43400727601E+02  0.00000000000E+00 0. -1.
         11    1    3    3    0    0 -0.54420241761E+01 -0.26470815195E+00  0.72468120128E+01  0.90665308773E+01  0.51100000000E-03 0.  1.
        -11    1    3    3    0    0 -0.20745320571E+02 -0.77102190043E+01  0.10789198100E+02  0.24621588060E+02  0.51100000000E-03 0. -1.
         12    1    3    3    0    0 -0.10737996087E+01 -0.62499323959E+01  0.12592514753E+02  0.14099153462E+02  0.00000000000E+00 0. -1.
</event>
<event>
 7    1  0.2339217E-009  0.4778727E+02  0.7816164E-02  0.1312668E+00
        -11   -1    0    0    0    0  0.00000000000E+00  0.00000000000E+00  0.45593999997E+02  0.45594000000E+02  0.51100000000E-03 0.  1.
         11   -1    0    0    0    0 -0.00000000000E+00 -0.00000000000E+00 -0.45593999997E+02  0.45594000000E+02  0.51100000000E-03 0. -1.
    9900012    2    1    2    0    0 -0.20507187807E+02  0.49024720478E+01  0.37934734639E+02  0.47787273323E+02  0.20000010390E+02 0.  0.
         12    1    1    2    0    0  0.20507187807E+02 -0.49024720478E+01 -0.37934734639E+02  0.43400726677E+02  0.00000000000E+00 0. -1.
         11    1    3    3    0    0  0.10398134819E+01 -0.99799381445E+00 -0.20423816519E+00  0.14556501022E+01  0.51100000000E-03 0.  1.
        -11    1    3    3    0    0 -0.12250235254E+02 -0.18547843940E+01  0.10816698065E+02  0.16447171374E+02  0.51100000000E-03 0. -1.
        -12    1    3    3    0    0 -0.92967660347E+01  0.77552502562E+01  0.27322274739E+02  0.29884451847E+02  0.00000000000E+00 0.  1.
</event>
<event>
 7    1  0.2339217E-009  0.4778727E+02  0.7816164E-02  0.1312668E+00
        -11   -1    0    0    0    0  0.00000000000E+00  0.00000000000E+00  0.45593999997E+02  0.45594000000E+02  0.51100000000E-03 0.  1.
         11   -1    0    0    0    0 -0.00000000000E+00 -0.00000000000E+00 -0.45593999997E+02  0.45594000000E+02  0.51100000000E-03 0. -1.
    9900012    2    1    2    0    0  0.39202468181E+02 -0.14502411102E+02  0.11682048373E+02  0.47787266211E+02  0.19999977961E+02 0.  0.
         12    1    1    2    0    0 -0.39202468181E+02  0.14502411102E+02 -0.11682048373E+02  0.43400733789E+02  0.00000000000E+00 0. -1.
         11    1    3    3    0    0  0.22534533608E+01 -0.68852147953E+01  0.56134086906E+01  0.91648563663E+01  0.51100000000E-03 0. -1.
        -11    1    3    3    0    0  0.53970094630E+01 -0.24695432763E+01 -0.59900512470E+00  0.59653300443E+01  0.51100000000E-03 0.  1.
         12    1    3    3    0    0  0.31552005357E+02 -0.51476530308E+01  0.66676448070E+01  0.32657079800E+02  0.00000000000E+00 0. -1.
</event>
<event>
 7    1  0.2339217E-009  0.4778727E+02  0.7816164E-02  0.1312668E+00
        -11   -1    0    0    0    0  0.00000000000E+00  0.00000000000E+00  0.45593999997E+02  0.45594000000E+02  0.51100000000E-03 0.  1.
         11   -1    0    0    0    0 -0.00000000000E+00 -0.00000000000E+00 -0.45593999997E+02  0.45594000000E+02  0.51100000000E-03 0. -1.
    9900012    2    1    2    0    0 -0.37416817656E+02 -0.20766842465E+02  0.72348775200E+01  0.47787269105E+02  0.19999991157E+02 0.  0.
         12    1    1    2    0    0  0.37416817656E+02  0.20766842465E+02 -0.72348775200E+01  0.43400730895E+02  0.00000000000E+00 0. -1.
         11    1    3    3    0    0 -0.23856062965E+02 -0.10948956266E+02  0.18856450211E+01  0.26316288509E+02  0.51100000000E-03 0. -1.
        -11    1    3    3    0    0 -0.10556263344E+02 -0.18731105982E+01  0.70191035507E+01  0.12814486101E+02  0.51100000000E-03 0.  1.
         12    1    3    3    0    0 -0.30044913469E+01 -0.79447756013E+01 -0.16698710518E+01  0.86564944948E+01  0.00000000000E+00 0. -1.
</event>
<event>
 7    1  0.2339217E-009  0.4778727E+02  0.7816164E-02  0.1312668E+00
        -11   -1    0    0    0    0  0.00000000000E+00  0.00000000000E+00  0.45593999997E+02  0.45594000000E+02  0.51100000000E-03 0. -1.
         11   -1    0    0    0    0 -0.00000000000E+00 -0.00000000000E+00 -0.45593999997E+02  0.45594000000E+02  0.51100000000E-03 0.  1.
    9900012    2    1    2    0    0  0.28495106947E+02  0.53130816216E+00 -0.32731786665E+02  0.47787271129E+02  0.20000000384E+02 0.  0.
         12    1    1    2    0    0 -0.28495106947E+02 -0.53130816216E+00  0.32731786665E+02  0.43400728871E+02  0.00000000000E+00 0. -1.
         11    1    3    3    0    0  0.35509091290E+00  0.20270612207E+01 -0.48274942571E+01  0.52478345832E+01  0.51100000000E-03 0. -1.
        -11    1    3    3    0    0  0.10845848464E+02 -0.63046514178E+01 -0.18283146693E+02  0.22173283737E+02  0.51100000000E-03 0.  1.
         12    1    3    3    0    0  0.17294167570E+02  0.48088983592E+01 -0.96211457145E+01  0.20366152809E+02  0.00000000000E+00 0. -1.
</event>
<event>
 7    1  0.2339217E-009  0.4778727E+02  0.7816164E-02  0.1312668E+00
        -11   -1    0    0    0    0  0.00000000000E+00  0.00000000000E+00  0.45593999997E+02  0.45594000000E+02  0.51100000000E-03 0.  1.
         11   -1    0    0    0    0 -0.00000000000E+00 -0.00000000000E+00 -0.45593999997E+02  0.45594000000E+02  0.51100000000E-03 0. -1.
    9900012    2    1    2    0    0 -0.18709033929E+02  0.16968610694E+02  0.35293928001E+02  0.47787273587E+02  0.20000011592E+02 0.  0.
         12    1    1    2    0    0  0.18709033929E+02 -0.16968610694E+02 -0.35293928001E+02  0.43400726413E+02  0.00000000000E+00 0. -1.
         11    1    3    3    0    0 -0.52190661064E+01  0.15228214072E+02  0.12919485481E+02  0.20640984962E+02  0.51100000000E-03 0. -1.
        -11    1    3    3    0    0 -0.48639335461E+01 -0.16040919200E+00  0.14563464843E+02  0.15355067214E+02  0.51100000000E-03 0.  1.
        -12    1    3    3    0    0 -0.86260342762E+01  0.19008058133E+01  0.78109776772E+01  0.11791221410E+02  0.00000000000E+00 0.  1.
</event>
<event>
 7    1  0.2339217E-009  0.4778727E+02  0.7816164E-02  0.1312668E+00
        -11   -1    0    0    0    0  0.00000000000E+00  0.00000000000E+00  0.45593999997E+02  0.45594000000E+02  0.51100000000E-03 0.  1.
         11   -1    0    0    0    0 -0.00000000000E+00 -0.00000000000E+00 -0.45593999997E+02  0.45594000000E+02  0.51100000000E-03 0. -1.
    9900012    2    1    2    0    0 -0.31674316008E+01 -0.34941773560E+02  0.25547276391E+02  0.47787268515E+02  0.19999988467E+02 0.  0.
         12    1    1    2    0    0  0.31674316008E+01  0.34941773560E+02 -0.25547276391E+02  0.43400731485E+02  0.00000000000E+00 0. -1.
         11    1    3    3    0    0  0.37465123115E+00  0.14323804822E+01 -0.28344881483E+00  0.15074551013E+01  0.51100000000E-03 0. -1.
        -11    1    3    3    0    0  0.36887257106E+01 -0.53951938914E+01  0.53422253138E+01  0.84412194651E+01  0.51100000000E-03 0.  1.
        -12    1    3    3    0    0 -0.72308085425E+01 -0.30978960150E+02  0.20488499892E+02  0.37838593949E+02  0.00000000000E+00 0.  1.
</event>
<event>
 7    1  0.2339217E-009  0.4778727E+02  0.7816164E-02  0.1312668E+00
        -11   -1    0    0    0    0  0.00000000000E+00  0.00000000000E+00  0.45593999997E+02  0.45594000000E+02  0.51100000000E-03 0.  1.
         11   -1    0    0    0    0 -0.00000000000E+00 -0.00000000000E+00 -0.45593999997E+02  0.45594000000E+02  0.51100000000E-03 0. -1.
    9900012    2    1    2    0    0  0.41116989724E+01 -0.39251496151E+02  0.18056500840E+02  0.47787271422E+02  0.20000001720E+02 0.  0.
         12    1    1    2    0    0 -0.41116989724E+01  0.39251496151E+02 -0.18056500840E+02  0.43400728578E+02  0.00000000000E+00 0. -1.
         11    1    3    3    0    0  0.43788437387E+01 -0.13792290757E+01  0.30002902121E+01  0.54843675068E+01  0.51100000000E-03 0. -1.
        -11    1    3    3    0    0  0.51814684486E+01 -0.20688560533E+02  0.61533180036E+01  0.22197465507E+02  0.51100000000E-03 0.  1.
         12    1    3    3    0    0 -0.54486132149E+01 -0.17183706543E+02  0.89028926243E+01  0.20105438408E+02  0.00000000000E+00 0. -1.
</event>
<event>
 7    1  0.2339217E-009  0.4778728E+02  0.7816164E-02  0.1312668E+00
        -11   -1    0    0    0    0  0.00000000000E+00  0.00000000000E+00  0.45593999997E+02  0.45594000000E+02  0.51100000000E-03 0.  1.
         11   -1    0    0    0    0 -0.00000000000E+00 -0.00000000000E+00 -0.45593999997E+02  0.45594000000E+02  0.51100000000E-03 0. -1.
    9900012    2    1    2    0    0  0.28244811481E+02 -0.31884059206E+02 -0.83222720905E+01  0.47787276276E+02  0.20000023851E+02 0.  0.
         12    1    1    2    0    0 -0.28244811481E+02  0.31884059206E+02  0.83222720905E+01  0.43400723724E+02  0.00000000000E+00 0. -1.
         11    1    3    3    0    0  0.67367651621E+01 -0.76978216562E+01  0.36892822383E+01  0.10874339833E+02  0.51100000000E-03 0. -1.
        -11    1    3    3    0    0  0.10838808345E+02 -0.17787169372E+02 -0.19649744205E+01  0.20921861422E+02  0.51100000000E-03 0.  1.
        -12    1    3    3    0    0  0.10669237974E+02 -0.63990681777E+01 -0.10046579908E+02  0.15991075021E+02  0.00000000000E+00 0.  1.
</event>
<event>
 7    1  0.2339217E-009  0.4778726E+02  0.7816164E-02  0.1312668E+00
        -11   -1    0    0    0    0  0.00000000000E+00  0.00000000000E+00  0.45593999997E+02  0.45594000000E+02  0.51100000000E-03 0.  1.
         11   -1    0    0    0    0 -0.00000000000E+00 -0.00000000000E+00 -0.45593999997E+02  0.45594000000E+02  0.51100000000E-03 0. -1.
    9900012    2    1    2    0    0  0.26252509716E+02 -0.95432476310E+01  0.33216803383E+02  0.47787264191E+02  0.19999968754E+02 0.  0.
         12    1    1    2    0    0 -0.26252509716E+02  0.95432476310E+01 -0.33216803383E+02  0.43400735809E+02  0.00000000000E+00 0. -1.
         11    1    3    3    0    0  0.21832062767E+01 -0.25962826028E+01  0.26877496910E+00  0.34028389979E+01  0.51100000000E-03 0. -1.
        -11    1    3    3    0    0  0.19918658313E+02 -0.68606905814E+00  0.15051715950E+02  0.24975543899E+02  0.51100000000E-03 0.  1.
        -12    1    3    3    0    0  0.41506451271E+01 -0.62608959701E+01  0.17896312464E+02  0.19408881295E+02  0.00000000000E+00 0.  1.
</event>
<event>
 7    1  0.2339217E-009  0.4778727E+02  0.7816164E-02  0.1312668E+00
        -11   -1    0    0    0    0  0.00000000000E+00  0.00000000000E+00  0.45593999997E+02  0.45594000000E+02  0.51100000000E-03 0.  1.
         11   -1    0    0    0    0 -0.00000000000E+00 -0.00000000000E+00 -0.45593999997E+02  0.45594000000E+02  0.51100000000E-03 0. -1.
    9900012    2    1    2    0    0  0.23801275561E+02 -0.36245903943E+02  0.18322525854E+01  0.47787269355E+02  0.19999992296E+02 0.  0.
         12    1    1    2    0    0 -0.23801275561E+02  0.36245903943E+02 -0.18322525854E+01  0.43400730645E+02  0.00000000000E+00 0. -1.
         11    1    3    3    0    0  0.21175119353E+01 -0.65879368945E+01 -0.26896539388E+01  0.74242176621E+01  0.51100000000E-03 0. -1.
        -11    1    3    3    0    0  0.96193854297E+01 -0.21463244133E+02 -0.34021485667E+01  0.23765059224E+02  0.51100000000E-03 0.  1.
        -12    1    3    3    0    0  0.12064378196E+02 -0.81947229151E+01  0.79240550909E+01  0.16597992469E+02  0.00000000000E+00 0.  1.
</event>
<event>
 7    1  0.2548769E-009  0.4778727E+02  0.7816164E-02  0.1312668E+00
        -11   -1    0    0    0    0  0.00000000000E+00  0.00000000000E+00  0.45593999997E+02  0.45594000000E+02  0.51100000000E-03 0.  1.
         11   -1    0    0    0    0 -0.00000000000E+00 -0.00000000000E+00 -0.45593999997E+02  0.45594000000E+02  0.51100000000E-03 0. -1.
    9900012    2    1    2    0    0  0.23944002116E+02 -0.35316173166E+02  0.79420345757E+01  0.47787271462E+02  0.20000001902E+02 0.  0.
         12    1    1    2    0    0 -0.23944002116E+02  0.35316173166E+02 -0.79420345757E+01  0.43400728538E+02  0.00000000000E+00 0. -1.
         11    1    3    3    0    0  0.29434949650E+01  0.14756442321E+01 -0.13902365398E+01  0.35741357566E+01  0.51100000000E-03 0. -1.
        -11    1    3    3    0    0  0.17599407889E+01 -0.60910291618E+01  0.42352326357E+01  0.76246457996E+01  0.51100000000E-03 0.  1.
        -12    1    3    3    0    0  0.19240566362E+02 -0.30700788237E+02  0.50970384799E+01  0.36588489905E+02  0.00000000000E+00 0.  1.
</event>
<event>
 7    1  0.2339217E-009  0.4778727E+02  0.7816164E-02  0.1312668E+00
        -11   -1    0    0    0    0  0.00000000000E+00  0.00000000000E+00  0.45593999997E+02  0.45594000000E+02  0.51100000000E-03 0.  1.
         11   -1    0    0    0    0 -0.00000000000E+00 -0.00000000000E+00 -0.45593999997E+02  0.45594000000E+02  0.51100000000E-03 0. -1.
    9900012    2    1    2    0    0 -0.16875265517E+02  0.31747680387E+02  0.24309130905E+02  0.47787266808E+02  0.19999980686E+02 0.  0.
         12    1    1    2    0    0  0.16875265517E+02 -0.31747680387E+02 -0.24309130905E+02  0.43400733192E+02  0.00000000000E+00 0. -1.
         11    1    3    3    0    0 -0.39400561802E+01  0.30402027288E+01  0.27053324892E+01  0.56644240196E+01  0.51100000000E-03 0. -1.
        -11    1    3    3    0    0 -0.26599283226E+01  0.14858571011E+02  0.82067929141E+00  0.15117072002E+02  0.51100000000E-03 0.  1.
        -12    1    3    3    0    0 -0.10275281014E+02  0.13848906647E+02  0.20783119124E+02  0.27005770787E+02  0.00000000000E+00 0.  1.
</event>
<event>
 7    1  0.2339217E-009  0.4778727E+02  0.7816164E-02  0.1312668E+00
        -11   -1    0    0    0    0  0.00000000000E+00  0.00000000000E+00  0.45593999997E+02  0.45594000000E+02  0.51100000000E-03 0. -1.
         11   -1    0    0    0    0 -0.00000000000E+00 -0.00000000000E+00 -0.45593999997E+02  0.45594000000E+02  0.51100000000E-03 0.  1.
    9900012    2    1    2    0    0 -0.18153764330E+01 -0.23371372678E+02 -0.36525424120E+02  0.47787271209E+02  0.20000000748E+02 0.  0.
         12    1    1    2    0    0  0.18153764330E+01  0.23371372678E+02  0.36525424120E+02  0.43400728791E+02  0.00000000000E+00 0. -1.
         11    1    3    3    0    0 -0.13147246909E+01 -0.79829006477E+01 -0.15860425849E+01  0.82444366154E+01  0.51100000000E-03 0. -1.
        -11    1    3    3    0    0 -0.20969722321E+01 -0.11201509640E+02 -0.13625576648E+02  0.17763092355E+02  0.51100000000E-03 0.  1.
        -12    1    3    3    0    0  0.15963204901E+01 -0.41869623901E+01 -0.21313804888E+02  0.21779742238E+02  0.00000000000E+00 0.  1.
</event>
<event>
 7    1  0.2339217E-009  0.4778727E+02  0.7816164E-02  0.1312668E+00
        -11   -1    0    0    0    0  0.00000000000E+00  0.00000000000E+00  0.45593999997E+02  0.45594000000E+02  0.51100000000E-03 0.  1.
         11   -1    0    0    0    0 -0.00000000000E+00 -0.00000000000E+00 -0.45593999997E+02  0.45594000000E+02  0.51100000000E-03 0. -1.
    9900012    2    1    2    0    0 -0.19602488953E+02 -0.10637356509E+02  0.37231870274E+02  0.47787273154E+02  0.20000009616E+02 0.  0.
         12    1    1    2    0    0  0.19602488953E+02  0.10637356509E+02 -0.37231870274E+02  0.43400726846E+02  0.00000000000E+00 0. -1.
         11    1    3    3    0    0 -0.50529226388E+01 -0.20961443307E+01  0.48670786612E+01  0.73221788563E+01  0.51100000000E-03 0. -1.
        -11    1    3    3    0    0 -0.16994944386E+02 -0.22955241414E+01  0.19584999652E+02  0.26032091299E+02  0.51100000000E-03 0.  1.
         12    1    3    3    0    0  0.24453780716E+01 -0.62456880372E+01  0.12779791961E+02  0.14433002998E+02  0.00000000000E+00 0. -1.
</event>
<event>
 7    1  0.2339217E-009  0.4778721E+02  0.7816164E-02  0.1312668E+00
        -11   -1    0    0    0    0  0.00000000000E+00  0.00000000000E+00  0.45593999997E+02  0.45594000000E+02  0.51100000000E-03 0.  1.
         11   -1    0    0    0    0 -0.00000000000E+00 -0.00000000000E+00 -0.45593999997E+02  0.45594000000E+02  0.51100000000E-03 0. -1.
    9900012    2    1    2    0    0  0.24855801654E+02 -0.33253684972E+02  0.12649508788E+02  0.47787210691E+02  0.19999724822E+02 0.  0.
         12    1    1    2    0    0 -0.24855801654E+02  0.33253684972E+02 -0.12649508788E+02  0.43400789309E+02  0.00000000000E+00 0. -1.
         11    1    3    3    0    0  0.37722714554E+01 -0.13173719438E+01 -0.61169667496E+00  0.40422362443E+01  0.51100000000E-03 0.  1.
        -11    1    3    3    0    0  0.21335296785E+02 -0.26209217729E+02  0.16000339310E+02  0.37391561096E+02  0.51100000000E-03 0. -1.
         12    1    3    3    0    0 -0.25176658703E+00 -0.57270952989E+01 -0.27391338465E+01  0.63534133508E+01  0.00000000000E+00 0. -1.
</event>
<event>
 7    1  0.2339217E-009  0.4778728E+02  0.7816164E-02  0.1312668E+00
        -11   -1    0    0    0    0  0.00000000000E+00  0.00000000000E+00  0.45593999997E+02  0.45594000000E+02  0.51100000000E-03 0.  1.
         11   -1    0    0    0    0 -0.00000000000E+00 -0.00000000000E+00 -0.45593999997E+02  0.45594000000E+02  0.51100000000E-03 0. -1.
    9900012    2    1    2    0    0 -0.30622850691E+02  0.16595824318E+02  0.25892905351E+02  0.47787275159E+02  0.20000018759E+02 0.  0.
         12    1    1    2    0    0  0.30622850691E+02 -0.16595824318E+02 -0.25892905351E+02  0.43400724841E+02  0.00000000000E+00 0. -1.
         11    1    3    3    0    0 -0.95147671019E+01  0.70327098761E+01  0.55980985574E+01  0.13089251656E+02  0.51100000000E-03 0. -1.
        -11    1    3    3    0    0 -0.14691437797E+02  0.90035376789E+01  0.22086211468E+02  0.28012546699E+02  0.51100000000E-03 0.  1.
         12    1    3    3    0    0 -0.64166457924E+01  0.55957676252E+00 -0.17914046750E+01  0.66854768033E+01  0.00000000000E+00 0. -1.
</event>
<event>
 7    1  0.2339217E-009  0.4778727E+02  0.7816164E-02  0.1312668E+00
        -11   -1    0    0    0    0  0.00000000000E+00  0.00000000000E+00  0.45593999997E+02  0.45594000000E+02  0.51100000000E-03 0.  1.
         11   -1    0    0    0    0 -0.00000000000E+00 -0.00000000000E+00 -0.45593999997E+02  0.45594000000E+02  0.51100000000E-03 0. -1.
    9900012    2    1    2    0    0  0.33672096521E+01  0.17455671475E+02  0.39592737139E+02  0.47787269572E+02  0.19999993287E+02 0.  0.
         12    1    1    2    0    0 -0.33672096521E+01 -0.17455671475E+02 -0.39592737139E+02  0.43400730428E+02  0.00000000000E+00 0. -1.
         11    1    3    3    0    0 -0.37146300544E+00  0.49964338646E+01  0.12693419273E+01  0.51685167425E+01  0.51100000000E-03 0. -1.
        -11    1    3    3    0    0 -0.44177740878E+01  0.63775987776E+01  0.10984295080E+02  0.13447870936E+02  0.51100000000E-03 0.  1.
         12    1    3    3    0    0  0.81564467453E+01  0.60816388330E+01  0.27339100132E+02  0.29170881894E+02  0.00000000000E+00 0. -1.
</event>
<event>
 7    1  0.2339217E-009  0.4778726E+02  0.7816164E-02  0.1312668E+00
        -11   -1    0    0    0    0  0.00000000000E+00  0.00000000000E+00  0.45593999997E+02  0.45594000000E+02  0.51100000000E-03 0.  1.
         11   -1    0    0    0    0 -0.00000000000E+00 -0.00000000000E+00 -0.45593999997E+02  0.45594000000E+02  0.51100000000E-03 0. -1.
    9900012    2    1    2    0    0 -0.13794255990E+02 -0.19487684793E+02  0.36243250862E+02  0.47787255883E+02  0.19999930871E+02 0.  0.
         12    1    1    2    0    0  0.13794255990E+02  0.19487684793E+02 -0.36243250862E+02  0.43400744117E+02  0.00000000000E+00 0. -1.
         11    1    3    3    0    0 -0.31244554498E+01 -0.28931284118E+00  0.31469912970E+01  0.44440385082E+01  0.51100000000E-03 0. -1.
        -11    1    3    3    0    0 -0.89571711540E+01 -0.13194529472E+02  0.33484058139E+02  0.37087850744E+02  0.51100000000E-03 0.  1.
         12    1    3    3    0    0 -0.17126293863E+01 -0.60038424807E+01 -0.38779857488E+00  0.62553666305E+01  0.00000000000E+00 0. -1.
</event>
<event>
 7    1  0.2339217E-009  0.4778728E+02  0.7816164E-02  0.1312668E+00
        -11   -1    0    0    0    0  0.00000000000E+00  0.00000000000E+00  0.45593999997E+02  0.45594000000E+02  0.51100000000E-03 0.  1.
         11   -1    0    0    0    0 -0.00000000000E+00 -0.00000000000E+00 -0.45593999997E+02  0.45594000000E+02  0.51100000000E-03 0. -1.
    9900012    2    1    2    0    0 -0.10838273555E+02 -0.37796034016E+02  0.18374286445E+02  0.47787276926E+02  0.20000026815E+02 0.  0.
         12    1    1    2    0    0  0.10838273555E+02  0.37796034016E+02 -0.18374286445E+02  0.43400723074E+02  0.00000000000E+00 0. -1.
         11    1    3    3    0    0 -0.13742050627E+02 -0.28325711434E+02  0.12541129039E+02  0.33889080860E+02  0.51100000000E-03 0. -1.
        -11    1    3    3    0    0  0.94110713863E+00 -0.10390043577E+02  0.45711808144E+01  0.11390100196E+02  0.51100000000E-03 0.  1.
         12    1    3    3    0    0  0.19626699335E+01  0.91972099470E+00  0.12619765909E+01  0.25080958698E+01  0.00000000000E+00 0. -1.
</event>
<event>
 7    1  0.2339217E-009  0.4778727E+02  0.7816164E-02  0.1312668E+00
        -11   -1    0    0    0    0  0.00000000000E+00  0.00000000000E+00  0.45593999997E+02  0.45594000000E+02  0.51100000000E-03 0.  1.
         11   -1    0    0    0    0 -0.00000000000E+00 -0.00000000000E+00 -0.45593999997E+02  0.45594000000E+02  0.51100000000E-03 0. -1.
    9900012    2    1    2    0    0  0.95903050625E+01  0.23507507189E+02  0.35200094113E+02  0.47787268773E+02  0.19999989644E+02 0.  0.
         12    1    1    2    0    0 -0.95903050625E+01 -0.23507507189E+02 -0.35200094113E+02  0.43400731227E+02  0.00000000000E+00 0. -1.
         11    1    3    3    0    0  0.28855106368E+01  0.31140633406E+01  0.80068290116E+01  0.90627188639E+01  0.51100000000E-03 0. -1.
        -11    1    3    3    0    0 -0.37723639288E+01 -0.35821787185E-01  0.78252322731E+01  0.86871326225E+01  0.51100000000E-03 0.  1.
         12    1    3    3    0    0  0.10477158354E+02  0.20429265636E+02  0.19368032829E+02  0.30037417287E+02  0.00000000000E+00 0. -1.
</event>
<event>
 7    1  0.2339217E-009  0.4778730E+02  0.7816164E-02  0.1312668E+00
        -11   -1    0    0    0    0  0.00000000000E+00  0.00000000000E+00  0.45593999997E+02  0.45594000000E+02  0.51100000000E-03 0.  1.
         11   -1    0    0    0    0 -0.00000000000E+00 -0.00000000000E+00 -0.45593999997E+02  0.45594000000E+02  0.51100000000E-03 0. -1.
    9900012    2    1    2    0    0 -0.23434674809E+02 -0.40325753671E+01  0.36306681304E+02  0.47787300065E+02  0.20000132317E+02 0.  0.
         12    1    1    2    0    0  0.23434674809E+02  0.40325753671E+01 -0.36306681304E+02  0.43400699935E+02  0.00000000000E+00 0. -1.
         11    1    3    3    0    0 -0.92184219924E+01 -0.12959447563E+01  0.17931702095E+02  0.20204076745E+02  0.51100000000E-03 0.  1.
        -11    1    3    3    0    0 -0.61611715340E+00  0.23130098815E+01  0.11097800462E+02  0.11353007990E+02  0.51100000000E-03 0. -1.
         12    1    3    3    0    0 -0.13600135663E+02 -0.50496404923E+01  0.72771787475E+01  0.16230215331E+02  0.00000000000E+00 0. -1.
</event>
<event>
 7    1  0.2339217E-009  0.4778727E+02  0.7816164E-02  0.1312668E+00
        -11   -1    0    0    0    0  0.00000000000E+00  0.00000000000E+00  0.45593999997E+02  0.45594000000E+02  0.51100000000E-03 0. -1.
         11   -1    0    0    0    0 -0.00000000000E+00 -0.00000000000E+00 -0.45593999997E+02  0.45594000000E+02  0.51100000000E-03 0.  1.
    9900012    2    1    2    0    0  0.24522639015E+01 -0.19537725421E+01 -0.43287324259E+02  0.47787271125E+02  0.20000000367E+02 0.  0.
         12    1    1    2    0    0 -0.24522639015E+01  0.19537725421E+01  0.43287324259E+02  0.43400728875E+02  0.00000000000E+00 0. -1.
         11    1    3    3    0    0 -0.17278987471E+01 -0.41928271369E+00 -0.53185349633E+01  0.56078736159E+01  0.51100000000E-03 0. -1.
        -11    1    3    3    0    0  0.24984967713E+01 -0.89104706521E+01 -0.12136807842E+02  0.15262407353E+02  0.51100000000E-03 0.  1.
         12    1    3    3    0    0  0.16816658773E+01  0.73759808237E+01 -0.25831981453E+02  0.26916990156E+02  0.00000000000E+00 0. -1.
</event>
<event>
 7    1  0.2339217E-009  0.4778732E+02  0.7816164E-02  0.1312668E+00
        -11   -1    0    0    0    0  0.00000000000E+00  0.00000000000E+00  0.45593999997E+02  0.45594000000E+02  0.51100000000E-03 0.  1.
         11   -1    0    0    0    0 -0.00000000000E+00 -0.00000000000E+00 -0.45593999997E+02  0.45594000000E+02  0.51100000000E-03 0. -1.
    9900012    2    1    2    0    0  0.21450730838E+02 -0.37710675462E+02 -0.11790726635E+01  0.47787319019E+02  0.20000218732E+02 0.  0.
         12    1    1    2    0    0 -0.21450730838E+02  0.37710675462E+02  0.11790726635E+01  0.43400680981E+02  0.00000000000E+00 0. -1.
         11    1    3    3    0    0  0.31779199201E+01 -0.12382960441E+02  0.26605338704E+01  0.13058151670E+02  0.51100000000E-03 0. -1.
        -11    1    3    3    0    0 -0.15679697562E+01 -0.71161311993E+01 -0.27077504853E+01  0.77736584279E+01  0.51100000000E-03 0.  1.
        -12    1    3    3    0    0  0.19840780674E+02 -0.18211583822E+02 -0.11318560486E+01  0.26955508921E+02  0.00000000000E+00 0.  1.
</event>
<event>
 7    1  0.2339217E-009  0.4778727E+02  0.7816164E-02  0.1312668E+00
        -11   -1    0    0    0    0  0.00000000000E+00  0.00000000000E+00  0.45593999997E+02  0.45594000000E+02  0.51100000000E-03 0.  1.
         11   -1    0    0    0    0 -0.00000000000E+00 -0.00000000000E+00 -0.45593999997E+02  0.45594000000E+02  0.51100000000E-03 0. -1.
    9900012    2    1    2    0    0 -0.35482948050E+02 -0.17495303094E+02  0.17846508170E+02  0.47787273202E+02  0.20000009838E+02 0.  0.
         12    1    1    2    0    0  0.35482948050E+02  0.17495303094E+02 -0.17846508170E+02  0.43400726798E+02  0.00000000000E+00 0. -1.
         11    1    3    3    0    0 -0.63128179796E+01 -0.79264991462E+01  0.98221589626E+01  0.14112259440E+02  0.51100000000E-03 0. -1.
        -11    1    3    3    0    0 -0.10103075874E+02  0.21432608944E+01  0.25880880601E+01  0.10647248915E+02  0.51100000000E-03 0.  1.
         12    1    3    3    0    0 -0.19067054196E+02 -0.11712064843E+02  0.54362611473E+01  0.23027764847E+02  0.00000000000E+00 0. -1.
</event>
<event>
 7    1  0.2339217E-009  0.4778726E+02  0.7816164E-02  0.1312668E+00
        -11   -1    0    0    0    0  0.00000000000E+00  0.00000000000E+00  0.45593999997E+02  0.45594000000E+02  0.51100000000E-03 0. -1.
         11   -1    0    0    0    0 -0.00000000000E+00 -0.00000000000E+00 -0.45593999997E+02  0.45594000000E+02  0.51100000000E-03 0.  1.
    9900012    2    1    2    0    0  0.15173931593E+02 -0.19111883404E+01 -0.40616792068E+02  0.47787255321E+02  0.19999928309E+02 0.  0.
         12    1    1    2    0    0 -0.15173931593E+02  0.19111883404E+01  0.40616792068E+02  0.43400744679E+02  0.00000000000E+00 0. -1.
         11    1    3    3    0    0  0.14215349661E+02  0.38782057238E+00 -0.16454207885E+02  0.21747816630E+02  0.51100000000E-03 0. -1.
        -11    1    3    3    0    0  0.14605085409E+01  0.35233858438E+01 -0.82936270752E+01  0.91286134394E+01  0.51100000000E-03 0.  1.
        -12    1    3    3    0    0 -0.50192660871E+00 -0.58223947566E+01 -0.15868957107E+02  0.16910825252E+02  0.00000000000E+00 0.  1.
</event>
<event>
 7    1  0.2339217E-009  0.4778728E+02  0.7816164E-02  0.1312668E+00
        -11   -1    0    0    0    0  0.00000000000E+00  0.00000000000E+00  0.45593999997E+02  0.45594000000E+02  0.51100000000E-03 0. -1.
         11   -1    0    0    0    0 -0.00000000000E+00 -0.00000000000E+00 -0.45593999997E+02  0.45594000000E+02  0.51100000000E-03 0.  1.
    9900012    2    1    2    0    0 -0.29494887420E+02 -0.19786326648E+02 -0.24943449135E+02  0.47787276954E+02  0.20000026946E+02 0.  0.
         12    1    1    2    0    0  0.29494887420E+02  0.19786326648E+02  0.24943449135E+02  0.43400723046E+02  0.00000000000E+00 0. -1.
         11    1    3    3    0    0 -0.66726714949E+01 -0.60393003509E+00 -0.19259227003E+00  0.67027135110E+01  0.51100000000E-03 0. -1.
        -11    1    3    3    0    0  0.14098179669E+01 -0.20399704449E+01 -0.45445222637E+01  0.51770405621E+01  0.51100000000E-03 0.  1.
        -12    1    3    3    0    0 -0.24232033892E+02 -0.17142426168E+02 -0.20206334601E+02  0.35907522881E+02  0.00000000000E+00 0.  1.
</event>
<event>
 7    1  0.2339217E-009  0.4778727E+02  0.7816164E-02  0.1312668E+00
        -11   -1    0    0    0    0  0.00000000000E+00  0.00000000000E+00  0.45593999997E+02  0.45594000000E+02  0.51100000000E-03 0.  1.
         11   -1    0    0    0    0 -0.00000000000E+00 -0.00000000000E+00 -0.45593999997E+02  0.45594000000E+02  0.51100000000E-03 0. -1.
    9900012    2    1    2    0    0 -0.68538958034E+01 -0.26180294555E+02  0.33929924293E+02  0.47787268748E+02  0.19999989529E+02 0.  0.
         12    1    1    2    0    0  0.68538958034E+01  0.26180294555E+02 -0.33929924293E+02  0.43400731252E+02  0.00000000000E+00 0. -1.
         11    1    3    3    0    0 -0.27869928947E+01  0.21688702418E+01  0.35838785648E+00  0.35496154211E+01  0.51100000000E-03 0. -1.
        -11    1    3    3    0    0  0.25027910535E+00 -0.52292485366E+01  0.51097362247E+01  0.73155371939E+01  0.51100000000E-03 0.  1.
         12    1    3    3    0    0 -0.43171820140E+01 -0.23119916260E+02  0.28461800212E+02  0.36922116133E+02  0.00000000000E+00 0. -1.
</event>
<event>
 7    1  0.2339217E-009  0.4778726E+02  0.7816164E-02  0.1312668E+00
        -11   -1    0    0    0    0  0.00000000000E+00  0.00000000000E+00  0.45593999997E+02  0.45594000000E+02  0.51100000000E-03 0. -1.
         11   -1    0    0    0    0 -0.00000000000E+00 -0.00000000000E+00 -0.45593999997E+02  0.45594000000E+02  0.51100000000E-03 0.  1.
    9900012    2    1    2    0    0 -0.20736886105E+02  0.27286158309E+02 -0.26628387805E+02  0.47787263627E+02  0.19999966180E+02 0.  0.
         12    1    1    2    0    0  0.20736886105E+02 -0.27286158309E+02  0.26628387805E+02  0.43400736373E+02  0.00000000000E+00 0. -1.
         11    1    3    3    0    0 -0.63822716287E+01  0.56667599302E+01 -0.11444841291E+02  0.14276902735E+02  0.51100000000E-03 0.  1.
        -11    1    3    3    0    0 -0.29276902507E+01  0.76325108828E+01 -0.12946149961E+02  0.15311087214E+02  0.51100000000E-03 0. -1.
        -12    1    3    3    0    0 -0.11426924226E+02  0.13986887496E+02 -0.22373965527E+01  0.18199273679E+02  0.00000000000E+00 0.  1.
</event>
<event>
 7    1  0.2339217E-009  0.4778727E+02  0.7816164E-02  0.1312668E+00
        -11   -1    0    0    0    0  0.00000000000E+00  0.00000000000E+00  0.45593999997E+02  0.45594000000E+02  0.51100000000E-03 0.  1.
         11   -1    0    0    0    0 -0.00000000000E+00 -0.00000000000E+00 -0.45593999997E+02  0.45594000000E+02  0.51100000000E-03 0. -1.
    9900012    2    1    2    0    0  0.17523785180E+02  0.38739847681E+02  0.87042752668E+01  0.47787271282E+02  0.20000001083E+02 0.  0.
         12    1    1    2    0    0 -0.17523785180E+02 -0.38739847681E+02 -0.87042752668E+01  0.43400728718E+02  0.00000000000E+00 0. -1.
         11    1    3    3    0    0  0.16011672860E+02  0.24570992252E+02  0.52121104703E+01  0.29787135207E+02  0.51100000000E-03 0. -1.
        -11    1    3    3    0    0  0.35453592175E+01  0.39613292484E+00 -0.27339488914E+00  0.35778818177E+01  0.51100000000E-03 0.  1.
        -12    1    3    3    0    0 -0.20332468977E+01  0.13772722504E+02  0.37655596857E+01  0.14422254257E+02  0.00000000000E+00 0.  1.
</event>
<event>
 7    1  0.2339217E-009  0.4778727E+02  0.7816164E-02  0.1312668E+00
        -11   -1    0    0    0    0  0.00000000000E+00  0.00000000000E+00  0.45593999997E+02  0.45594000000E+02  0.51100000000E-03 0.  1.
         11   -1    0    0    0    0 -0.00000000000E+00 -0.00000000000E+00 -0.45593999997E+02  0.45594000000E+02  0.51100000000E-03 0. -1.
    9900012    2    1    2    0    0 -0.39148662272E+02  0.51661842130E+01  0.18008776208E+02  0.47787271463E+02  0.20000001909E+02 0.  0.
         12    1    1    2    0    0  0.39148662272E+02 -0.51661842130E+01 -0.18008776208E+02  0.43400728537E+02  0.00000000000E+00 0. -1.
         11    1    3    3    0    0 -0.53528556241E+00  0.56721530567E+00 -0.25391384282E+01  0.26562168690E+01  0.51100000000E-03 0. -1.
        -11    1    3    3    0    0 -0.38384470491E+01  0.53614707310E+00  0.61614922865E+01  0.72790876413E+01  0.51100000000E-03 0.  1.
        -12    1    3    3    0    0 -0.34774929661E+02  0.40628218342E+01  0.14386422350E+02  0.37851966953E+02  0.00000000000E+00 0.  1.
</event>
<event>
 7    1  0.2339217E-009  0.4778727E+02  0.7816164E-02  0.1312668E+00
        -11   -1    0    0    0    0  0.00000000000E+00  0.00000000000E+00  0.45593999997E+02  0.45594000000E+02  0.51100000000E-03 0.  1.
         11   -1    0    0    0    0 -0.00000000000E+00 -0.00000000000E+00 -0.45593999997E+02  0.45594000000E+02  0.51100000000E-03 0. -1.
    9900012    2    1    2    0    0  0.81723843730E+00  0.28905974974E+02  0.32363558866E+02  0.47787271777E+02  0.20000003338E+02 0.  0.
         12    1    1    2    0    0 -0.81723843730E+00 -0.28905974974E+02 -0.32363558866E+02  0.43400728223E+02  0.00000000000E+00 0. -1.
         11    1    3    3    0    0  0.14806840326E+01  0.36676088506E+00  0.45578313891E+00  0.15920669841E+01  0.51100000000E-03 0. -1.
        -11    1    3    3    0    0 -0.79106014996E+01  0.97751802471E+01  0.77994336418E+01  0.14797396066E+02  0.51100000000E-03 0.  1.
        -12    1    3    3    0    0  0.72471559043E+01  0.18764033842E+02  0.24108342085E+02  0.31397808726E+02  0.00000000000E+00 0.  1.
</event>
<event>
 7    1  0.2339217E-009  0.4778727E+02  0.7816164E-02  0.1312668E+00
        -11   -1    0    0    0    0  0.00000000000E+00  0.00000000000E+00  0.45593999997E+02  0.45594000000E+02  0.51100000000E-03 0.  1.
         11   -1    0    0    0    0 -0.00000000000E+00 -0.00000000000E+00 -0.45593999997E+02  0.45594000000E+02  0.51100000000E-03 0. -1.
    9900012    2    1    2    0    0  0.22589371682E+02 -0.19330790586E+02  0.31617463191E+02  0.47787272399E+02  0.20000006177E+02 0.  0.
         12    1    1    2    0    0 -0.22589371682E+02  0.19330790586E+02 -0.31617463191E+02  0.43400727601E+02  0.00000000000E+00 0. -1.
         11    1    3    3    0    0  0.11703178584E+02 -0.39236170805E+01  0.46163293322E+01  0.13178378380E+02  0.51100000000E-03 0. -1.
        -11    1    3    3    0    0  0.59044621683E+01 -0.12709179651E+02  0.11577220323E+02  0.18177402223E+02  0.51100000000E-03 0.  1.
         12    1    3    3    0    0  0.49817309297E+01 -0.26979938541E+01  0.15423913536E+02  0.16431491797E+02  0.00000000000E+00 0. -1.
</event>
<event>
 7    1  0.2339217E-009  0.4778727E+02  0.7816164E-02  0.1312668E+00
        -11   -1    0    0    0    0  0.00000000000E+00  0.00000000000E+00  0.45593999997E+02  0.45594000000E+02  0.51100000000E-03 0. -1.
         11   -1    0    0    0    0 -0.00000000000E+00 -0.00000000000E+00 -0.45593999997E+02  0.45594000000E+02  0.51100000000E-03 0.  1.
    9900012    2    1    2    0    0 -0.44956285217E+01 -0.24033557730E+02 -0.35858062641E+02  0.47787271558E+02  0.20000002341E+02 0.  0.
         12    1    1    2    0    0  0.44956285217E+01  0.24033557730E+02  0.35858062641E+02  0.43400728442E+02  0.00000000000E+00 0. -1.
         11    1    3    3    0    0  0.41766653766E+01 -0.58531024012E+01 -0.58050065757E+01  0.92412901151E+01  0.51100000000E-03 0. -1.
        -11    1    3    3    0    0  0.16049058076E+01 -0.11277850922E+02 -0.11081116213E+02  0.15892035139E+02  0.51100000000E-03 0.  1.
        -12    1    3    3    0    0 -0.10277199706E+02 -0.69026044068E+01 -0.18971939852E+02  0.22653946304E+02  0.00000000000E+00 0.  1.
</event>
<event>
 7    1  0.2339217E-009  0.4778725E+02  0.7816164E-02  0.1312668E+00
        -11   -1    0    0    0    0  0.00000000000E+00  0.00000000000E+00  0.45593999997E+02  0.45594000000E+02  0.51100000000E-03 0.  1.
         11   -1    0    0    0    0 -0.00000000000E+00 -0.00000000000E+00 -0.45593999997E+02  0.45594000000E+02  0.51100000000E-03 0. -1.
    9900012    2    1    2    0    0  0.28778955406E+02  0.32475011191E+02 -0.87781206103E+00  0.47787249084E+02  0.19999899872E+02 0.  0.
         12    1    1    2    0    0 -0.28778955406E+02 -0.32475011191E+02  0.87781206103E+00  0.43400750916E+02  0.00000000000E+00 0. -1.
         11    1    3    3    0    0  0.76697492408E+00  0.81731374865E+01  0.28842145552E+01  0.87009838966E+01  0.51100000000E-03 0. -1.
        -11    1    3    3    0    0  0.36239798476E+01  0.99807305193E+01 -0.12929084703E+01  0.10696720255E+02  0.51100000000E-03 0.  1.
         12    1    3    3    0    0  0.24388000634E+02  0.14321143185E+02 -0.24691181459E+01  0.28389544932E+02  0.00000000000E+00 0. -1.
</event>
<event>
 7    1  0.2339217E-009  0.4778727E+02  0.7816164E-02  0.1312668E+00
        -11   -1    0    0    0    0  0.00000000000E+00  0.00000000000E+00  0.45593999997E+02  0.45594000000E+02  0.51100000000E-03 0.  1.
         11   -1    0    0    0    0 -0.00000000000E+00 -0.00000000000E+00 -0.45593999997E+02  0.45594000000E+02  0.51100000000E-03 0. -1.
    9900012    2    1    2    0    0  0.10416947948E+02  0.24842691632E+02  0.34028681582E+02  0.47787270717E+02  0.19999998506E+02 0.  0.
         12    1    1    2    0    0 -0.10416947948E+02 -0.24842691632E+02 -0.34028681582E+02  0.43400729283E+02  0.00000000000E+00 0. -1.
         11    1    3    3    0    0  0.31138153053E+01  0.13429056843E+02  0.94514677318E+01  0.16714235131E+02  0.51100000000E-03 0. -1.
        -11    1    3    3    0    0  0.75145392326E+01  0.84352020156E+01  0.71005179097E+01  0.13343098882E+02  0.51100000000E-03 0.  1.
         12    1    3    3    0    0 -0.21140658956E+00  0.29784327732E+01  0.17476695941E+02  0.17729936704E+02  0.00000000000E+00 0. -1.
</event>
<event>
 7    1  0.2339217E-009  0.4778727E+02  0.7816164E-02  0.1312668E+00
        -11   -1    0    0    0    0  0.00000000000E+00  0.00000000000E+00  0.45593999997E+02  0.45594000000E+02  0.51100000000E-03 0.  1.
         11   -1    0    0    0    0 -0.00000000000E+00 -0.00000000000E+00 -0.45593999997E+02  0.45594000000E+02  0.51100000000E-03 0. -1.
    9900012    2    1    2    0    0 -0.15472317236E+02  0.15351268057E+02  0.37530908275E+02  0.47787272960E+02  0.20000008735E+02 0.  0.
         12    1    1    2    0    0  0.15472317236E+02 -0.15351268057E+02 -0.37530908275E+02  0.43400727040E+02  0.00000000000E+00 0. -1.
         11    1    3    3    0    0 -0.23363679639E+01  0.11878345317E+02  0.15443040740E+02  0.19622466978E+02  0.51100000000E-03 0. -1.
        -11    1    3    3    0    0 -0.14478475028E+01  0.23736765750E+00 -0.12084526156E+01  0.19007797825E+01  0.51100000000E-03 0.  1.
        -12    1    3    3    0    0 -0.11688101769E+02  0.32355550823E+01  0.23296320150E+02  0.26264026199E+02  0.00000000000E+00 0.  1.
</event>
<event>
 7    1  0.2339217E-009  0.4778727E+02  0.7816164E-02  0.1312668E+00
        -11   -1    0    0    0    0  0.00000000000E+00  0.00000000000E+00  0.45593999997E+02  0.45594000000E+02  0.51100000000E-03 0. -1.
         11   -1    0    0    0    0 -0.00000000000E+00 -0.00000000000E+00 -0.45593999997E+02  0.45594000000E+02  0.51100000000E-03 0.  1.
    9900012    2    1    2    0    0  0.11557803826E+02  0.31757846518E+02 -0.27230121688E+02  0.47787272220E+02  0.20000005358E+02 0.  0.
         12    1    1    2    0    0 -0.11557803826E+02 -0.31757846518E+02  0.27230121688E+02  0.43400727780E+02  0.00000000000E+00 0. -1.
         11    1    3    3    0    0  0.45572398715E+01  0.57728213343E+01 -0.54096779305E+01  0.91300885526E+01  0.51100000000E-03 0.  1.
        -11    1    3    3    0    0 -0.46575474296E+00  0.20196065507E+02 -0.21054429958E+02  0.29178536814E+02  0.51100000000E-03 0. -1.
         12    1    3    3    0    0  0.74663186976E+01  0.57889596764E+01 -0.76601379856E+00  0.94786468533E+01  0.00000000000E+00 0. -1.
</event>
<event>
 7    1  0.2339217E-009  0.4778727E+02  0.7816164E-02  0.1312668E+00
        -11   -1    0    0    0    0  0.00000000000E+00  0.00000000000E+00  0.45593999997E+02  0.45594000000E+02  0.51100000000E-03 0.  1.
         11   -1    0    0    0    0 -0.00000000000E+00 -0.00000000000E+00 -0.45593999997E+02  0.45594000000E+02  0.51100000000E-03 0. -1.
    9900012    2    1    2    0    0 -0.28026200737E+02  0.25820339487E+02  0.20771753122E+02  0.47787267440E+02  0.19999983564E+02 0.  0.
         12    1    1    2    0    0  0.28026200737E+02 -0.25820339487E+02 -0.20771753122E+02  0.43400732560E+02  0.00000000000E+00 0. -1.
         11    1    3    3    0    0 -0.93434404016E+01  0.91292431562E+01  0.19144471453E+01  0.13202578054E+02  0.51100000000E-03 0. -1.
        -11    1    3    3    0    0 -0.12474888733E+01  0.96998906769E+01  0.37327264851E+01  0.10467920276E+02  0.51100000000E-03 0.  1.
        -12    1    3    3    0    0 -0.17435271462E+02  0.69912056540E+01  0.15124579492E+02  0.24116769109E+02  0.00000000000E+00 0.  1.
</event>
<event>
 7    1  0.2339217E-009  0.4778728E+02  0.7816164E-02  0.1312668E+00
        -11   -1    0    0    0    0  0.00000000000E+00  0.00000000000E+00  0.45593999997E+02  0.45594000000E+02  0.51100000000E-03 0.  1.
         11   -1    0    0    0    0 -0.00000000000E+00 -0.00000000000E+00 -0.45593999997E+02  0.45594000000E+02  0.51100000000E-03 0. -1.
    9900012    2    1    2    0    0  0.93689344023E+01 -0.29269011561E+02  0.30645888369E+02  0.47787280611E+02  0.20000043616E+02 0.  0.
         12    1    1    2    0    0 -0.93689344023E+01  0.29269011561E+02 -0.30645888369E+02  0.43400719389E+02  0.00000000000E+00 0. -1.
         11    1    3    3    0    0  0.13124317704E-01 -0.10207494984E+02  0.10453471135E+02  0.14610550473E+02  0.51100000000E-03 0. -1.
        -11    1    3    3    0    0  0.49166346236E+01 -0.19201243234E+02  0.10309262763E+02  0.22341484658E+02  0.51100000000E-03 0.  1.
         12    1    3    3    0    0  0.44391754609E+01  0.13972665596E+00  0.98831544710E+01  0.10835245480E+02  0.00000000000E+00 0. -1.
</event>
<event>
 7    1  0.2339217E-009  0.4778724E+02  0.7816164E-02  0.1312668E+00
        -11   -1    0    0    0    0  0.00000000000E+00  0.00000000000E+00  0.45593999997E+02  0.45594000000E+02  0.51100000000E-03 0.  1.
         11   -1    0    0    0    0 -0.00000000000E+00 -0.00000000000E+00 -0.45593999997E+02  0.45594000000E+02  0.51100000000E-03 0. -1.
    9900012    2    1    2    0    0  0.22759334048E+01  0.16085802351E+02  0.40245413731E+02  0.47787236914E+02  0.19999844383E+02 0.  0.
         12    1    1    2    0    0 -0.22759334048E+01 -0.16085802351E+02 -0.40245413731E+02  0.43400763086E+02  0.00000000000E+00 0. -1.
         11    1    3    3    0    0 -0.14038165170E+01  0.10601741214E+02  0.12643440372E+02  0.16559716250E+02  0.51100000000E-03 0. -1.
        -11    1    3    3    0    0 -0.18150129722E+01  0.68255703256E+01  0.22596608827E+02  0.23674657613E+02  0.51100000000E-03 0.  1.
         12    1    3    3    0    0  0.54947628941E+01 -0.13415091885E+01  0.50053645318E+01  0.75528630506E+01  0.00000000000E+00 0. -1.
</event>
<event>
 7    1  0.2339217E-009  0.4778727E+02  0.7816164E-02  0.1312668E+00
        -11   -1    0    0    0    0  0.00000000000E+00  0.00000000000E+00  0.45593999997E+02  0.45594000000E+02  0.51100000000E-03 0.  1.
         11   -1    0    0    0    0 -0.00000000000E+00 -0.00000000000E+00 -0.45593999997E+02  0.45594000000E+02  0.51100000000E-03 0. -1.
    9900012    2    1    2    0    0 -0.70676351469E+01 -0.23959557522E+02  0.35491002794E+02  0.47787272558E+02  0.20000006901E+02 0.  0.
         12    1    1    2    0    0  0.70676351469E+01  0.23959557522E+02 -0.35491002794E+02  0.43400727442E+02  0.00000000000E+00 0. -1.
         11    1    3    3    0    0 -0.30373009201E+00 -0.15819127328E+01  0.11197558430E+02  0.11312825241E+02  0.51100000000E-03 0. -1.
        -11    1    3    3    0    0  0.41861107506E+01 -0.77703680799E+01  0.95928933587E+01  0.13035557010E+02  0.51100000000E-03 0.  1.
         12    1    3    3    0    0 -0.10950015805E+02 -0.14607276709E+02  0.14700551005E+02  0.23438890307E+02  0.00000000000E+00 0. -1.
</event>
<event>
 7    1  0.2339217E-009  0.4778725E+02  0.7816164E-02  0.1312668E+00
        -11   -1    0    0    0    0  0.00000000000E+00  0.00000000000E+00  0.45593999997E+02  0.45594000000E+02  0.51100000000E-03 0.  1.
         11   -1    0    0    0    0 -0.00000000000E+00 -0.00000000000E+00 -0.45593999997E+02  0.45594000000E+02  0.51100000000E-03 0. -1.
    9900012    2    1    2    0    0 -0.13655674818E+02 -0.31848799991E+02  0.26130465575E+02  0.47787254076E+02  0.19999922633E+02 0.  0.
         12    1    1    2    0    0  0.13655674818E+02  0.31848799991E+02 -0.26130465575E+02  0.43400745924E+02  0.00000000000E+00 0. -1.
         11    1    3    3    0    0 -0.46074349006E+01  0.91487178502E+00  0.55666452016E+01  0.72837480604E+01  0.51100000000E-03 0. -1.
        -11    1    3    3    0    0 -0.19542920606E+01 -0.16673687413E+02  0.65591974969E+01  0.18023711645E+02  0.51100000000E-03 0.  1.
        -12    1    3    3    0    0 -0.70939478571E+01 -0.16089984363E+02  0.14004622877E+02  0.22479794370E+02  0.00000000000E+00 0.  1.
</event>
<event>
 7    1  0.2339217E-009  0.4778727E+02  0.7816164E-02  0.1312668E+00
        -11   -1    0    0    0    0  0.00000000000E+00  0.00000000000E+00  0.45593999997E+02  0.45594000000E+02  0.51100000000E-03 0.  1.
         11   -1    0    0    0    0 -0.00000000000E+00 -0.00000000000E+00 -0.45593999997E+02  0.45594000000E+02  0.51100000000E-03 0. -1.
    9900012    2    1    2    0    0 -0.14047095845E+02  0.28801838408E+02  0.29270402582E+02  0.47787271151E+02  0.20000000485E+02 0.  0.
         12    1    1    2    0    0  0.14047095845E+02 -0.28801838408E+02 -0.29270402582E+02  0.43400728849E+02  0.00000000000E+00 0. -1.
         11    1    3    3    0    0 -0.39246963959E+01  0.11455620784E+02  0.18366415166E+02  0.21999083973E+02  0.51100000000E-03 0. -1.
        -11    1    3    3    0    0  0.22414188943E+01  0.44607719095E+01  0.47743601289E+01  0.69077463466E+01  0.51100000000E-03 0.  1.
         12    1    3    3    0    0 -0.12363818343E+02  0.12885445715E+02  0.61296272864E+01  0.18880440831E+02  0.00000000000E+00 0. -1.
</event>
<event>
 7    1  0.2339217E-009  0.4778727E+02  0.7816164E-02  0.1312668E+00
        -11   -1    0    0    0    0  0.00000000000E+00  0.00000000000E+00  0.45593999997E+02  0.45594000000E+02  0.51100000000E-03 0.  1.
         11   -1    0    0    0    0 -0.00000000000E+00 -0.00000000000E+00 -0.45593999997E+02  0.45594000000E+02  0.51100000000E-03 0. -1.
    9900012    2    1    2    0    0 -0.32374793118E+02  0.63922024665E+01  0.28189283504E+02  0.47787272054E+02  0.20000004604E+02 0.  0.
         12    1    1    2    0    0  0.32374793118E+02 -0.63922024665E+01 -0.28189283504E+02  0.43400727946E+02  0.00000000000E+00 0. -1.
         11    1    3    3    0    0 -0.10326228249E+02  0.67023188139E+01  0.42455574788E+01  0.13022166713E+02  0.51100000000E-03 0. -1.
        -11    1    3    3    0    0  0.10010225441E+01 -0.13534571086E+01  0.37206408525E+01  0.40837557338E+01  0.51100000000E-03 0.  1.
         12    1    3    3    0    0 -0.23049587413E+02  0.10433407611E+01  0.20223085173E+02  0.30681349607E+02  0.00000000000E+00 0. -1.
</event>
<event>
 7    1  0.2339217E-009  0.4778727E+02  0.7816164E-02  0.1312668E+00
        -11   -1    0    0    0    0  0.00000000000E+00  0.00000000000E+00  0.45593999997E+02  0.45594000000E+02  0.51100000000E-03 0.  1.
         11   -1    0    0    0    0 -0.00000000000E+00 -0.00000000000E+00 -0.45593999997E+02  0.45594000000E+02  0.51100000000E-03 0. -1.
    9900012    2    1    2    0    0 -0.17553019178E+02  0.68619338483E+01  0.39095125452E+02  0.47787268986E+02  0.19999990617E+02 0.  0.
         12    1    1    2    0    0  0.17553019178E+02 -0.68619338483E+01 -0.39095125452E+02  0.43400731014E+02  0.00000000000E+00 0. -1.
         11    1    3    3    0    0 -0.55150622961E+01 -0.38869443711E+01  0.59588874035E+01  0.90018102636E+01  0.51100000000E-03 0.  1.
        -11    1    3    3    0    0 -0.35397072379E+01  0.31269105645E+01  0.12040266897E+01  0.48740924837E+01  0.51100000000E-03 0. -1.
        -12    1    3    3    0    0 -0.84982496436E+01  0.76219676548E+01  0.31932211359E+02  0.33911366239E+02  0.00000000000E+00 0.  1.
</event>
<event>
 7    1  0.2339217E-009  0.4778727E+02  0.7816164E-02  0.1312668E+00
        -11   -1    0    0    0    0  0.00000000000E+00  0.00000000000E+00  0.45593999997E+02  0.45594000000E+02  0.51100000000E-03 0. -1.
         11   -1    0    0    0    0 -0.00000000000E+00 -0.00000000000E+00 -0.45593999997E+02  0.45594000000E+02  0.51100000000E-03 0.  1.
    9900012    2    1    2    0    0 -0.10605703829E+02 -0.40237437253E+02 -0.12332515138E+02  0.47787271435E+02  0.20000001780E+02 0.  0.
         12    1    1    2    0    0  0.10605703829E+02  0.40237437253E+02  0.12332515138E+02  0.43400728565E+02  0.00000000000E+00 0. -1.
         11    1    3    3    0    0 -0.24305330741E+00 -0.31220545735E+01 -0.14661621585E+01  0.34577350110E+01  0.51100000000E-03 0. -1.
        -11    1    3    3    0    0 -0.65161337357E+00 -0.19696013963E+02  0.31451256984E+01  0.19956186558E+02  0.51100000000E-03 0.  1.
         12    1    3    3    0    0 -0.97110371476E+01 -0.17419368716E+02 -0.14011478678E+02  0.24373349866E+02  0.00000000000E+00 0. -1.
</event>
<event>
 7    1  0.2339217E-009  0.4778727E+02  0.7816164E-02  0.1312668E+00
        -11   -1    0    0    0    0  0.00000000000E+00  0.00000000000E+00  0.45593999997E+02  0.45594000000E+02  0.51100000000E-03 0.  1.
         11   -1    0    0    0    0 -0.00000000000E+00 -0.00000000000E+00 -0.45593999997E+02  0.45594000000E+02  0.51100000000E-03 0. -1.
    9900012    2    1    2    0    0  0.24149025877E+02 -0.31373611797E+02 -0.17780455473E+02  0.47787267693E+02  0.19999984718E+02 0.  0.
         12    1    1    2    0    0 -0.24149025877E+02  0.31373611797E+02  0.17780455473E+02  0.43400732307E+02  0.00000000000E+00 0. -1.
         11    1    3    3    0    0  0.13287345307E+02 -0.17124141738E+02 -0.91214472707E+01  0.23515751661E+02  0.51100000000E-03 0. -1.
        -11    1    3    3    0    0  0.10568059949E+02 -0.10400669189E+02 -0.12070923619E+02  0.19119754390E+02  0.51100000000E-03 0.  1.
         12    1    3    3    0    0  0.29362062081E+00 -0.38488008696E+01  0.34119154167E+01  0.51517616417E+01  0.00000000000E+00 0. -1.
</event>
<event>
 7    1  0.2339217E-009  0.4778727E+02  0.7816164E-02  0.1312668E+00
        -11   -1    0    0    0    0  0.00000000000E+00  0.00000000000E+00  0.45593999997E+02  0.45594000000E+02  0.51100000000E-03 0.  1.
         11   -1    0    0    0    0 -0.00000000000E+00 -0.00000000000E+00 -0.45593999997E+02  0.45594000000E+02  0.51100000000E-03 0. -1.
    9900012    2    1    2    0    0  0.28537620132E+02  0.32199680544E+02  0.56928198392E+01  0.47787269734E+02  0.19999994023E+02 0.  0.
         12    1    1    2    0    0 -0.28537620132E+02 -0.32199680544E+02 -0.56928198392E+01  0.43400730266E+02  0.00000000000E+00 0. -1.
         11    1    3    3    0    0 -0.16732469146E+01  0.25858206487E+01 -0.17135577232E+01  0.35245572766E+01  0.51100000000E-03 0. -1.
        -11    1    3    3    0    0  0.18657786256E+02  0.21183322456E+02  0.15825474818E+00  0.28228906870E+02  0.51100000000E-03 0.  1.
        -12    1    3    3    0    0  0.11553080791E+02  0.84305374391E+01  0.72481228142E+01  0.16033805587E+02  0.00000000000E+00 0.  1.
</event>
<event>
 7    1  0.2339217E-009  0.4778727E+02  0.7816164E-02  0.1312668E+00
        -11   -1    0    0    0    0  0.00000000000E+00  0.00000000000E+00  0.45593999997E+02  0.45594000000E+02  0.51100000000E-03 0. -1.
         11   -1    0    0    0    0 -0.00000000000E+00 -0.00000000000E+00 -0.45593999997E+02  0.45594000000E+02  0.51100000000E-03 0.  1.
    9900012    2    1    2    0    0 -0.28779329476E+02  0.31454267344E+02 -0.81241827113E+01  0.47787273232E+02  0.20000009974E+02 0.  0.
         12    1    1    2    0    0  0.28779329476E+02 -0.31454267344E+02  0.81241827113E+01  0.43400726768E+02  0.00000000000E+00 0. -1.
         11    1    3    3    0    0  0.80899965613E+00  0.36840377940E+01 -0.39102024254E+01  0.54328904075E+01  0.51100000000E-03 0. -1.
        -11    1    3    3    0    0 -0.85278796941E+01  0.15699409796E+02 -0.15073377084E+01  0.17929536170E+02  0.51100000000E-03 0.  1.
         12    1    3    3    0    0 -0.21060449438E+02  0.12070819754E+02 -0.27066425774E+01  0.24424846655E+02  0.00000000000E+00 0. -1.
</event>
<event>
 7    1  0.2339217E-009  0.4778728E+02  0.7816164E-02  0.1312668E+00
        -11   -1    0    0    0    0  0.00000000000E+00  0.00000000000E+00  0.45593999997E+02  0.45594000000E+02  0.51100000000E-03 0. -1.
         11   -1    0    0    0    0 -0.00000000000E+00 -0.00000000000E+00 -0.45593999997E+02  0.45594000000E+02  0.51100000000E-03 0.  1.
    9900012    2    1    2    0    0  0.22373774689E+02  0.13015937410E+02 -0.34837076454E+02  0.47787282076E+02  0.20000050295E+02 0.  0.
         12    1    1    2    0    0 -0.22373774689E+02 -0.13015937410E+02  0.34837076454E+02  0.43400717924E+02  0.00000000000E+00 0. -1.
         11    1    3    3    0    0  0.55431481869E+01  0.40178018153E+01 -0.46186441931E+01  0.82583955883E+01  0.51100000000E-03 0. -1.
        -11    1    3    3    0    0  0.13298851474E+02  0.77000709917E+01 -0.31899227118E+02  0.35407784946E+02  0.51100000000E-03 0.  1.
         12    1    3    3    0    0  0.35317750283E+01  0.12980646030E+01  0.16807948568E+01  0.41211015414E+01  0.00000000000E+00 0. -1.
</event>
<event>
 7    1  0.2339217E-009  0.4778727E+02  0.7816164E-02  0.1312668E+00
        -11   -1    0    0    0    0  0.00000000000E+00  0.00000000000E+00  0.45593999997E+02  0.45594000000E+02  0.51100000000E-03 0.  1.
         11   -1    0    0    0    0 -0.00000000000E+00 -0.00000000000E+00 -0.45593999997E+02  0.45594000000E+02  0.51100000000E-03 0. -1.
    9900012    2    1    2    0    0 -0.28695978021E+02 -0.27867708047E+02  0.16839098072E+02  0.47787268091E+02  0.19999986533E+02 0.  0.
         12    1    1    2    0    0  0.28695978021E+02  0.27867708047E+02 -0.16839098072E+02  0.43400731909E+02  0.00000000000E+00 0. -1.
         11    1    3    3    0    0 -0.11404709839E+02 -0.12285118700E+02  0.69668374852E-01  0.16762947292E+02  0.51100000000E-03 0. -1.
        -11    1    3    3    0    0 -0.13936708479E+02 -0.64284435824E+01  0.59514872980E+01  0.16461376960E+02  0.51100000000E-03 0.  1.
        -12    1    3    3    0    0 -0.33545597033E+01 -0.91541457649E+01  0.10817942399E+02  0.14562943838E+02  0.00000000000E+00 0.  1.
</event>
<event>
 7    1  0.2339217E-009  0.4778727E+02  0.7816164E-02  0.1312668E+00
        -11   -1    0    0    0    0  0.00000000000E+00  0.00000000000E+00  0.45593999997E+02  0.45594000000E+02  0.51100000000E-03 0. -1.
         11   -1    0    0    0    0 -0.00000000000E+00 -0.00000000000E+00 -0.45593999997E+02  0.45594000000E+02  0.51100000000E-03 0.  1.
    9900012    2    1    2    0    0 -0.79271031791E+00  0.41963096015E+02 -0.11049605617E+02  0.47787267274E+02  0.19999982810E+02 0.  0.
         12    1    1    2    0    0  0.79271031791E+00 -0.41963096015E+02  0.11049605617E+02  0.43400732726E+02  0.00000000000E+00 0. -1.
         11    1    3    3    0    0  0.34695356054E+00  0.90852358423E+01 -0.62398990481E+01  0.11027158631E+02  0.51100000000E-03 0. -1.
        -11    1    3    3    0    0  0.24678921412E+00 -0.98499473696E+00  0.19525728395E+01  0.22008317752E+01  0.51100000000E-03 0.  1.
        -12    1    3    3    0    0 -0.13864530926E+01  0.33862854910E+02 -0.67622794079E+01  0.34559276868E+02  0.00000000000E+00 0.  1.
</event>
<event>
 7    1  0.2339217E-009  0.4778726E+02  0.7816164E-02  0.1312668E+00
        -11   -1    0    0    0    0  0.00000000000E+00  0.00000000000E+00  0.45593999997E+02  0.45594000000E+02  0.51100000000E-03 0. -1.
         11   -1    0    0    0    0 -0.00000000000E+00 -0.00000000000E+00 -0.45593999997E+02  0.45594000000E+02  0.51100000000E-03 0.  1.
    9900012    2    1    2    0    0  0.42332872866E+02  0.89139989862E+01  0.34774412723E+01  0.47787261518E+02  0.19999956566E+02 0.  0.
         12    1    1    2    0    0 -0.42332872866E+02 -0.89139989862E+01 -0.34774412723E+01  0.43400738482E+02  0.00000000000E+00 0. -1.
         11    1    3    3    0    0  0.45123537558E+01  0.34720680185E+01  0.42659597819E+01  0.71144223844E+01  0.51100000000E-03 0. -1.
        -11    1    3    3    0    0  0.60181022210E+01 -0.43076433128E+01 -0.25255319824E+00  0.74052095603E+01  0.51100000000E-03 0.  1.
         12    1    3    3    0    0  0.31802416889E+02  0.97495742804E+01 -0.53596531135E+00  0.33267629573E+02  0.00000000000E+00 0. -1.
</event>
<event>
 7    1  0.2339217E-009  0.4778727E+02  0.7816164E-02  0.1312668E+00
        -11   -1    0    0    0    0  0.00000000000E+00  0.00000000000E+00  0.45593999997E+02  0.45594000000E+02  0.51100000000E-03 0.  1.
         11   -1    0    0    0    0 -0.00000000000E+00 -0.00000000000E+00 -0.45593999997E+02  0.45594000000E+02  0.51100000000E-03 0. -1.
    9900012    2    1    2    0    0  0.14669635019E+02 -0.39935911960E+02  0.85759966685E+01  0.47787274493E+02  0.20000015722E+02 0.  0.
         12    1    1    2    0    0 -0.14669635019E+02  0.39935911960E+02 -0.85759966685E+01  0.43400725507E+02  0.00000000000E+00 0. -1.
         11    1    3    3    0    0  0.99601471542E+01 -0.10215901958E+02  0.19740496765E+01  0.14403682048E+02  0.51100000000E-03 0.  1.
        -11    1    3    3    0    0  0.28208856810E+01 -0.14106009106E+01  0.37021626550E+01  0.48634555143E+01  0.51100000000E-03 0. -1.
        -12    1    3    3    0    0  0.18886021837E+01 -0.28309409092E+02  0.28997843371E+01  0.28520136931E+02  0.00000000000E+00 0.  1.
</event>
<event>
 7    1  0.2907614E-009  0.4778727E+02  0.7816164E-02  0.1312668E+00
        -11   -1    0    0    0    0  0.00000000000E+00  0.00000000000E+00  0.45593999997E+02  0.45594000000E+02  0.51100000000E-03 0. -1.
         11   -1    0    0    0    0 -0.00000000000E+00 -0.00000000000E+00 -0.45593999997E+02  0.45594000000E+02  0.51100000000E-03 0.  1.
    9900012    2    1    2    0    0  0.10757654358E+02  0.90258519951E+01 -0.41066167574E+02  0.47787271311E+02  0.20000001213E+02 0.  0.
         12    1    1    2    0    0 -0.10757654358E+02 -0.90258519951E+01  0.41066167574E+02  0.43400728689E+02  0.00000000000E+00 0. -1.
         11    1    3    3    0    0 -0.13320860934E+01 -0.19745230782E+01 -0.13342359394E+01  0.27300880113E+01  0.51100000000E-03 0. -1.
        -11    1    3    3    0    0  0.33498137535E+01  0.46240152049E+00 -0.23851353832E+02  0.24089876447E+02  0.51100000000E-03 0.  1.
        -12    1    3    3    0    0  0.87399266979E+01  0.10537973553E+02 -0.15880577803E+02  0.20967306853E+02  0.00000000000E+00 0.  1.
</event>
<event>
 7    1  0.2339217E-009  0.4778724E+02  0.7816164E-02  0.1312668E+00
        -11   -1    0    0    0    0  0.00000000000E+00  0.00000000000E+00  0.45593999997E+02  0.45594000000E+02  0.51100000000E-03 0. -1.
         11   -1    0    0    0    0 -0.00000000000E+00 -0.00000000000E+00 -0.45593999997E+02  0.45594000000E+02  0.51100000000E-03 0.  1.
    9900012    2    1    2    0    0  0.78046049989E+01 -0.70079438601E+01 -0.42114159749E+02  0.47787244388E+02  0.19999878463E+02 0.  0.
         12    1    1    2    0    0 -0.78046049989E+01  0.70079438601E+01  0.42114159749E+02  0.43400755612E+02  0.00000000000E+00 0. -1.
         11    1    3    3    0    0  0.21910868411E+01  0.11777155085E+01 -0.10437064735E+02  0.10729407994E+02  0.51100000000E-03 0. -1.
        -11    1    3    3    0    0  0.53629775505E+01 -0.53092600211E+01 -0.33021538075E+02  0.33872876277E+02  0.51100000000E-03 0.  1.
         12    1    3    3    0    0  0.25054060727E+00 -0.28763993474E+01  0.13444430610E+01  0.31849601169E+01  0.00000000000E+00 0. -1.
</event>
<event>
 7    1  0.2339217E-009  0.4778727E+02  0.7816164E-02  0.1312668E+00
        -11   -1    0    0    0    0  0.00000000000E+00  0.00000000000E+00  0.45593999997E+02  0.45594000000E+02  0.51100000000E-03 0.  1.
         11   -1    0    0    0    0 -0.00000000000E+00 -0.00000000000E+00 -0.45593999997E+02  0.45594000000E+02  0.51100000000E-03 0. -1.
    9900012    2    1    2    0    0  0.29054223556E+02  0.21493341340E+02  0.24031471448E+02  0.47787271338E+02  0.20000001337E+02 0.  0.
         12    1    1    2    0    0 -0.29054223556E+02 -0.21493341340E+02 -0.24031471448E+02  0.43400728662E+02  0.00000000000E+00 0. -1.
         11    1    3    3    0    0 -0.76393186581E+00  0.48808515218E+01  0.31422377682E+00  0.49502565910E+01  0.51100000000E-03 0. -1.
        -11    1    3    3    0    0  0.93638761844E+01  0.19468227532E+01  0.24167209931E+01  0.98647268917E+01  0.51100000000E-03 0.  1.
         12    1    3    3    0    0  0.20454279238E+02  0.14665667065E+02  0.21300526678E+02  0.32972287855E+02  0.00000000000E+00 0. -1.
</event>
<event>
 7    1  0.2339217E-009  0.4778727E+02  0.7816164E-02  0.1312668E+00
        -11   -1    0    0    0    0  0.00000000000E+00  0.00000000000E+00  0.45593999997E+02  0.45594000000E+02  0.51100000000E-03 0. -1.
         11   -1    0    0    0    0 -0.00000000000E+00 -0.00000000000E+00 -0.45593999997E+02  0.45594000000E+02  0.51100000000E-03 0.  1.
    9900012    2    1    2    0    0  0.22297197789E+02  0.37235139330E+02  0.53061033877E-01  0.47787269066E+02  0.19999990979E+02 0.  0.
         12    1    1    2    0    0 -0.22297197789E+02 -0.37235139330E+02 -0.53061033877E-01  0.43400730934E+02  0.00000000000E+00 0. -1.
         11    1    3    3    0    0 -0.24444430079E+01  0.20214352357E+01  0.13832297223E+00  0.31750016593E+01  0.51100000000E-03 0. -1.
        -11    1    3    3    0    0  0.34169252964E+01  0.17778696581E+01 -0.29499979116E+01  0.48516684699E+01  0.51100000000E-03 0.  1.
        -12    1    3    3    0    0  0.21324715500E+02  0.33435834436E+02  0.28647359732E+01  0.39760598937E+02  0.00000000000E+00 0.  1.
</event>
<event>
 7    1  0.2339217E-009  0.4778727E+02  0.7816164E-02  0.1312668E+00
        -11   -1    0    0    0    0  0.00000000000E+00  0.00000000000E+00  0.45593999997E+02  0.45594000000E+02  0.51100000000E-03 0. -1.
         11   -1    0    0    0    0 -0.00000000000E+00 -0.00000000000E+00 -0.45593999997E+02  0.45594000000E+02  0.51100000000E-03 0.  1.
    9900012    2    1    2    0    0 -0.61115213666E+01 -0.97481014048E+01 -0.41847906927E+02  0.47787268571E+02  0.19999988721E+02 0.  0.
         12    1    1    2    0    0  0.61115213666E+01  0.97481014048E+01  0.41847906927E+02  0.43400731429E+02  0.00000000000E+00 0. -1.
         11    1    3    3    0    0 -0.17905788224E+01 -0.12714028616E+02 -0.14310244081E+02  0.19225914337E+02  0.51100000000E-03 0. -1.
        -11    1    3    3    0    0 -0.49017437984E+01  0.12159720120E+01 -0.13696816379E+02  0.14598234804E+02  0.51100000000E-03 0.  1.
         12    1    3    3    0    0  0.58080125420E+00  0.17499551991E+01 -0.13840846467E+02  0.13963119430E+02  0.00000000000E+00 0. -1.
</event>
<event>
 7    1  0.2339217E-009  0.4778727E+02  0.7816164E-02  0.1312668E+00
        -11   -1    0    0    0    0  0.00000000000E+00  0.00000000000E+00  0.45593999997E+02  0.45594000000E+02  0.51100000000E-03 0.  1.
         11   -1    0    0    0    0 -0.00000000000E+00 -0.00000000000E+00 -0.45593999997E+02  0.45594000000E+02  0.51100000000E-03 0. -1.
    9900012    2    1    2    0    0 -0.15438698746E+02  0.54603773326E+00  0.40558251986E+02  0.47787269818E+02  0.19999994408E+02 0.  0.
         12    1    1    2    0    0  0.15438698746E+02 -0.54603773326E+00 -0.40558251986E+02  0.43400730182E+02  0.00000000000E+00 0. -1.
         11    1    3    3    0    0  0.40831670160E+01  0.18857524544E+01  0.50858025854E+01  0.67892343750E+01  0.51100000000E-03 0.  1.
        -11    1    3    3    0    0 -0.16612347840E+01  0.12672275977E+01  0.68317498735E+01  0.71441145979E+01  0.51100000000E-03 0. -1.
        -12    1    3    3    0    0 -0.17860630978E+02 -0.26069423189E+01  0.28640699527E+02  0.33853920845E+02  0.00000000000E+00 0.  1.
</event>
<event>
 7    1  0.2339217E-009  0.4778727E+02  0.7816164E-02  0.1312668E+00
        -11   -1    0    0    0    0  0.00000000000E+00  0.00000000000E+00  0.45593999997E+02  0.45594000000E+02  0.51100000000E-03 0.  1.
         11   -1    0    0    0    0 -0.00000000000E+00 -0.00000000000E+00 -0.45593999997E+02  0.45594000000E+02  0.51100000000E-03 0. -1.
    9900012    2    1    2    0    0 -0.32145242684E+02 -0.69175209440E+01  0.28327632758E+02  0.47787268429E+02  0.19999988074E+02 0.  0.
         12    1    1    2    0    0  0.32145242684E+02  0.69175209440E+01 -0.28327632758E+02  0.43400731571E+02  0.00000000000E+00 0. -1.
         11    1    3    3    0    0 -0.82064358553E+01 -0.51095435483E+01  0.15077018073E+02  0.17910039055E+02  0.51100000000E-03 0. -1.
        -11    1    3    3    0    0 -0.88738996013E+01 -0.64409528505E+01  0.63556874168E+01  0.12673860129E+02  0.51100000000E-03 0.  1.
        -12    1    3    3    0    0 -0.15064907228E+02  0.46329754548E+01  0.68949272679E+01  0.17203369245E+02  0.00000000000E+00 0.  1.
</event>
<event>
 7    1  0.2339217E-009  0.4778727E+02  0.7816164E-02  0.1312668E+00
        -11   -1    0    0    0    0  0.00000000000E+00  0.00000000000E+00  0.45593999997E+02  0.45594000000E+02  0.51100000000E-03 0. -1.
         11   -1    0    0    0    0 -0.00000000000E+00 -0.00000000000E+00 -0.45593999997E+02  0.45594000000E+02  0.51100000000E-03 0.  1.
    9900012    2    1    2    0    0 -0.19316422149E+02  0.27864739646E+02 -0.27093456016E+02  0.47787271446E+02  0.20000001829E+02 0.  0.
         12    1    1    2    0    0  0.19316422149E+02 -0.27864739646E+02  0.27093456016E+02  0.43400728554E+02  0.00000000000E+00 0. -1.
         11    1    3    3    0    0 -0.68740348370E+01  0.76711531490E+01 -0.24877312616E+01  0.10596591559E+02  0.51100000000E-03 0. -1.
        -11    1    3    3    0    0 -0.14264059868E+02  0.21380012095E+02 -0.22386552610E+02  0.34084102734E+02  0.51100000000E-03 0.  1.
         12    1    3    3    0    0  0.18216725566E+01 -0.11864255982E+01 -0.22191721439E+01  0.31065771530E+01  0.00000000000E+00 0. -1.
</event>
<event>
 7    1  0.2339217E-009  0.4778727E+02  0.7816164E-02  0.1312668E+00
        -11   -1    0    0    0    0  0.00000000000E+00  0.00000000000E+00  0.45593999997E+02  0.45594000000E+02  0.51100000000E-03 0. -1.
         11   -1    0    0    0    0 -0.00000000000E+00 -0.00000000000E+00 -0.45593999997E+02  0.45594000000E+02  0.51100000000E-03 0.  1.
    9900012    2    1    2    0    0  0.31948369692E+02  0.19687771279E+02  0.21801754970E+02  0.47787272084E+02  0.20000004739E+02 0.  0.
         12    1    1    2    0    0 -0.31948369692E+02 -0.19687771279E+02 -0.21801754970E+02  0.43400727916E+02  0.00000000000E+00 0. -1.
         11    1    3    3    0    0  0.18678535253E+02  0.18410708911E+01  0.11354298516E+02  0.21936210162E+02  0.51100000000E-03 0. -1.
        -11    1    3    3    0    0  0.45247429045E+01  0.20176444676E+01  0.48188025473E+01  0.69112260707E+01  0.51100000000E-03 0.  1.
        -12    1    3    3    0    0  0.87450915343E+01  0.15829055921E+02  0.56286539067E+01  0.18939835852E+02  0.00000000000E+00 0.  1.
</event>
<event>
 7    1  0.2339217E-009  0.4778728E+02  0.7816164E-02  0.1312668E+00
        -11   -1    0    0    0    0  0.00000000000E+00  0.00000000000E+00  0.45593999997E+02  0.45594000000E+02  0.51100000000E-03 0.  1.
         11   -1    0    0    0    0 -0.00000000000E+00 -0.00000000000E+00 -0.45593999997E+02  0.45594000000E+02  0.51100000000E-03 0. -1.
    9900012    2    1    2    0    0  0.18604699483E+02  0.13156563881E+02  0.36937686206E+02  0.47787277906E+02  0.20000031286E+02 0.  0.
         12    1    1    2    0    0 -0.18604699483E+02 -0.13156563881E+02 -0.36937686206E+02  0.43400722094E+02  0.00000000000E+00 0. -1.
         11    1    3    3    0    0  0.14200951702E+01  0.19230507392E+01  0.14597640486E+02  0.14792089185E+02  0.51100000000E-03 0. -1.
        -11    1    3    3    0    0  0.69313136534E+00  0.72316207595E+01  0.57742737363E+01  0.92800327230E+01  0.51100000000E-03 0.  1.
        -12    1    3    3    0    0  0.16491472947E+02  0.40018923821E+01  0.16565771984E+02  0.23715155998E+02  0.00000000000E+00 0.  1.
</event>
<event>
 7    1  0.2339217E-009  0.4778726E+02  0.7816164E-02  0.1312668E+00
        -11   -1    0    0    0    0  0.00000000000E+00  0.00000000000E+00  0.45593999997E+02  0.45594000000E+02  0.51100000000E-03 0. -1.
         11   -1    0    0    0    0 -0.00000000000E+00 -0.00000000000E+00 -0.45593999997E+02  0.45594000000E+02  0.51100000000E-03 0.  1.
    9900012    2    1    2    0    0 -0.53502884762E+01 -0.32231966472E+02 -0.28567439666E+02  0.47787264309E+02  0.19999969290E+02 0.  0.
         12    1    1    2    0    0  0.53502884762E+01  0.32231966472E+02  0.28567439666E+02  0.43400735691E+02  0.00000000000E+00 0. -1.
         11    1    3    3    0    0  0.66845399466E+00 -0.31584895783E+01  0.91128512073E+00  0.33545980372E+01  0.51100000000E-03 0. -1.
        -11    1    3    3    0    0  0.30849898693E+01 -0.55174359402E+01 -0.10517571766E+01  0.64082333968E+01  0.51100000000E-03 0.  1.
        -12    1    3    3    0    0 -0.91037323402E+01 -0.23556040953E+02 -0.28426967611E+02  0.38024432875E+02  0.00000000000E+00 0.  1.
</event>
<event>
 7    1  0.2339217E-009  0.4778727E+02  0.7816164E-02  0.1312668E+00
        -11   -1    0    0    0    0  0.00000000000E+00  0.00000000000E+00  0.45593999997E+02  0.45594000000E+02  0.51100000000E-03 0. -1.
         11   -1    0    0    0    0 -0.00000000000E+00 -0.00000000000E+00 -0.45593999997E+02  0.45594000000E+02  0.51100000000E-03 0.  1.
    9900012    2    1    2    0    0  0.37766797995E+02  0.81144054755E+01  0.19785056956E+02  0.47787273212E+02  0.20000009881E+02 0.  0.
         12    1    1    2    0    0 -0.37766797995E+02 -0.81144054755E+01 -0.19785056956E+02  0.43400726788E+02  0.00000000000E+00 0. -1.
         11    1    3    3    0    0  0.60526078962E+01 -0.67456415310E+00 -0.51619606473E+00  0.61119193205E+01  0.51100000000E-03 0. -1.
        -11    1    3    3    0    0  0.16570724969E+02 -0.44653008662E+00  0.29021463348E+01  0.16828867125E+02  0.51100000000E-03 0.  1.
         12    1    3    3    0    0  0.15143465130E+02  0.92354997152E+01  0.17399106686E+02  0.24846486766E+02  0.00000000000E+00 0. -1.
</event>
<event>
 7    1  0.2339217E-009  0.4778727E+02  0.7816164E-02  0.1312668E+00
        -11   -1    0    0    0    0  0.00000000000E+00  0.00000000000E+00  0.45593999997E+02  0.45594000000E+02  0.51100000000E-03 0. -1.
         11   -1    0    0    0    0 -0.00000000000E+00 -0.00000000000E+00 -0.45593999997E+02  0.45594000000E+02  0.51100000000E-03 0.  1.
    9900012    2    1    2    0    0 -0.14182727257E+02 -0.12003115478E+02 -0.39222425932E+02  0.47787271554E+02  0.20000002322E+02 0.  0.
         12    1    1    2    0    0  0.14182727257E+02  0.12003115478E+02  0.39222425932E+02  0.43400728446E+02  0.00000000000E+00 0. -1.
         11    1    3    3    0    0 -0.46784265863E+01  0.35293317948E+01 -0.21262292576E+02  0.22055134189E+02  0.51100000000E-03 0. -1.
        -11    1    3    3    0    0 -0.41491226135E+01 -0.42545640680E+01 -0.58309324528E+01  0.83256415609E+01  0.51100000000E-03 0.  1.
        -12    1    3    3    0    0 -0.53551780575E+01 -0.11277883205E+02 -0.12129200904E+02  0.17406495804E+02  0.00000000000E+00 0.  1.
</event>
<event>
 7    1  0.2339217E-009  0.4778727E+02  0.7816164E-02  0.1312668E+00
        -11   -1    0    0    0    0  0.00000000000E+00  0.00000000000E+00  0.45593999997E+02  0.45594000000E+02  0.51100000000E-03 0.  1.
         11   -1    0    0    0    0 -0.00000000000E+00 -0.00000000000E+00 -0.45593999997E+02  0.45594000000E+02  0.51100000000E-03 0. -1.
    9900012    2    1    2    0    0 -0.91727653741E+01  0.17811120867E+02  0.38499968187E+02  0.47787271877E+02  0.20000003797E+02 0.  0.
         12    1    1    2    0    0  0.91727653741E+01 -0.17811120867E+02 -0.38499968187E+02  0.43400728123E+02  0.00000000000E+00 0. -1.
         11    1    3    3    0    0 -0.15006706414E+01  0.23583466211E+01 -0.21066963437E+01  0.35002829749E+01  0.51100000000E-03 0. -1.
        -11    1    3    3    0    0 -0.23949784788E+01  0.17102515146E+01  0.61748182251E+01  0.68402677236E+01  0.51100000000E-03 0.  1.
        -12    1    3    3    0    0 -0.52771162539E+01  0.13742522732E+02  0.34431846306E+02  0.37446721179E+02  0.00000000000E+00 0.  1.
</event>
<event>
 7    1  0.2339217E-009  0.4778728E+02  0.7816164E-02  0.1312668E+00
        -11   -1    0    0    0    0  0.00000000000E+00  0.00000000000E+00  0.45593999997E+02  0.45594000000E+02  0.51100000000E-03 0. -1.
         11   -1    0    0    0    0 -0.00000000000E+00 -0.00000000000E+00 -0.45593999997E+02  0.45594000000E+02  0.51100000000E-03 0.  1.
    9900012    2    1    2    0    0 -0.26597921367E+02  0.33870667629E+02 -0.53806489152E+01  0.47787275013E+02  0.20000018092E+02 0.  0.
         12    1    1    2    0    0  0.26597921367E+02 -0.33870667629E+02  0.53806489152E+01  0.43400724987E+02  0.00000000000E+00 0. -1.
         11    1    3    3    0    0 -0.32683986453E+01  0.58045267965E+01  0.28627367179E+01  0.72505325882E+01  0.51100000000E-03 0. -1.
        -11    1    3    3    0    0 -0.38512142460E+01  0.13865216432E+02  0.16411817814E+01  0.14483423483E+02  0.51100000000E-03 0.  1.
        -12    1    3    3    0    0 -0.19478308476E+02  0.14200924401E+02 -0.98845674144E+01  0.26053318942E+02  0.00000000000E+00 0.  1.
</event>
<event>
 7    1  0.2339217E-009  0.4778725E+02  0.7816164E-02  0.1312668E+00
        -11   -1    0    0    0    0  0.00000000000E+00  0.00000000000E+00  0.45593999997E+02  0.45594000000E+02  0.51100000000E-03 0.  1.
         11   -1    0    0    0    0 -0.00000000000E+00 -0.00000000000E+00 -0.45593999997E+02  0.45594000000E+02  0.51100000000E-03 0. -1.
    9900012    2    1    2    0    0  0.39599467285E+02 -0.12223768126E+02 -0.12887453872E+02  0.47787253650E+02  0.19999920692E+02 0.  0.
         12    1    1    2    0    0 -0.39599467285E+02  0.12223768126E+02  0.12887453872E+02  0.43400746350E+02  0.00000000000E+00 0. -1.
         11    1    3    3    0    0  0.84159519503E+01 -0.17020701930E+01  0.21068460761E+01  0.88410457990E+01  0.51100000000E-03 0. -1.
        -11    1    3    3    0    0  0.24735997838E+02 -0.37022435778E+01 -0.55256246180E+01  0.25614619346E+02  0.51100000000E-03 0.  1.
         12    1    3    3    0    0  0.64475174966E+01 -0.68194543557E+01 -0.94686753297E+01  0.13331588505E+02  0.00000000000E+00 0. -1.
</event>
<event>
 7    1  0.2339217E-009  0.4778727E+02  0.7816164E-02  0.1312668E+00
        -11   -1    0    0    0    0  0.00000000000E+00  0.00000000000E+00  0.45593999997E+02  0.45594000000E+02  0.51100000000E-03 0.  1.
         11   -1    0    0    0    0 -0.00000000000E+00 -0.00000000000E+00 -0.45593999997E+02  0.45594000000E+02  0.51100000000E-03 0. -1.
    9900012    2    1    2    0    0  0.19875539385E+02 -0.32395714570E+02  0.20954809642E+02  0.47787269183E+02  0.19999991512E+02 0.  0.
         12    1    1    2    0    0 -0.19875539385E+02  0.32395714570E+02 -0.20954809642E+02  0.43400730817E+02  0.00000000000E+00 0. -1.
         11    1    3    3    0    0  0.76068593376E+01 -0.91015121446E+01 -0.92691280072E+00  0.11897940994E+02  0.51100000000E-03 0. -1.
        -11    1    3    3    0    0  0.46724314341E+01 -0.26482968097E+01  0.81892681534E+00  0.54328383824E+01  0.51100000000E-03 0.  1.
        -12    1    3    3    0    0  0.75962486131E+01 -0.20645905616E+02  0.21062795627E+02  0.30456489806E+02  0.00000000000E+00 0.  1.
</event>
<event>
 7    1  0.2339217E-009  0.4778727E+02  0.7816164E-02  0.1312668E+00
        -11   -1    0    0    0    0  0.00000000000E+00  0.00000000000E+00  0.45593999997E+02  0.45594000000E+02  0.51100000000E-03 0. -1.
         11   -1    0    0    0    0 -0.00000000000E+00 -0.00000000000E+00 -0.45593999997E+02  0.45594000000E+02  0.51100000000E-03 0.  1.
    9900012    2    1    2    0    0 -0.28427088160E+02 -0.32156161345E+02 -0.64424438911E+01  0.47787272621E+02  0.20000007190E+02 0.  0.
         12    1    1    2    0    0  0.28427088160E+02  0.32156161345E+02  0.64424438911E+01  0.43400727379E+02  0.00000000000E+00 0. -1.
         11    1    3    3    0    0 -0.15344146699E+02 -0.57817929457E+01  0.24627414063E+01  0.16581226224E+02  0.51100000000E-03 0. -1.
        -11    1    3    3    0    0 -0.12998033808E+01 -0.56573474234E+00 -0.10600975341E+01  0.17701275859E+01  0.51100000000E-03 0.  1.
        -12    1    3    3    0    0 -0.11783138080E+02 -0.25808633657E+02 -0.78450877634E+01  0.29435918812E+02  0.00000000000E+00 0.  1.
</event>
<event>
 7    1  0.2339217E-009  0.4778728E+02  0.7816164E-02  0.1312668E+00
        -11   -1    0    0    0    0  0.00000000000E+00  0.00000000000E+00  0.45593999997E+02  0.45594000000E+02  0.51100000000E-03 0.  1.
         11   -1    0    0    0    0 -0.00000000000E+00 -0.00000000000E+00 -0.45593999997E+02  0.45594000000E+02  0.51100000000E-03 0. -1.
    9900012    2    1    2    0    0 -0.38846517077E+02 -0.18080136370E+02  0.69050150188E+01  0.47787280506E+02  0.20000043141E+02 0.  0.
         12    1    1    2    0    0  0.38846517077E+02  0.18080136370E+02 -0.69050150188E+01  0.43400719494E+02  0.00000000000E+00 0. -1.
         11    1    3    3    0    0 -0.26839484983E+02 -0.97018942109E+01 -0.72461680099E+00  0.28548376052E+02  0.51100000000E-03 0.  1.
        -11    1    3    3    0    0 -0.67435126179E+01 -0.13232586806E+01 -0.96156640083E+00  0.69390623407E+01  0.51100000000E-03 0. -1.
        -12    1    3    3    0    0 -0.52635194753E+01 -0.70549834788E+01  0.85911982206E+01  0.12299842114E+02  0.00000000000E+00 0.  1.
</event>
<event>
 7    1  0.2339217E-009  0.4778727E+02  0.7816164E-02  0.1312668E+00
        -11   -1    0    0    0    0  0.00000000000E+00  0.00000000000E+00  0.45593999997E+02  0.45594000000E+02  0.51100000000E-03 0. -1.
         11   -1    0    0    0    0 -0.00000000000E+00 -0.00000000000E+00 -0.45593999997E+02  0.45594000000E+02  0.51100000000E-03 0.  1.
    9900012    2    1    2    0    0  0.14271874867E+02  0.39518276411E+02 -0.10873941104E+02  0.47787272151E+02  0.20000005045E+02 0.  0.
         12    1    1    2    0    0 -0.14271874867E+02 -0.39518276411E+02  0.10873941104E+02  0.43400727849E+02  0.00000000000E+00 0. -1.
         11    1    3    3    0    0  0.71357621426E+01  0.75251679832E+01  0.15728649232E+01  0.10489097142E+02  0.51100000000E-03 0. -1.
        -11    1    3    3    0    0  0.59880278373E+01  0.63423654068E+01 -0.66685688371E+01  0.10979612331E+02  0.51100000000E-03 0.  1.
        -12    1    3    3    0    0  0.11480848869E+01  0.25650743021E+02 -0.57782371898E+01  0.26318562678E+02  0.00000000000E+00 0.  1.
</event>
<event>
 7    1  0.2339217E-009  0.4778726E+02  0.7816164E-02  0.1312668E+00
        -11   -1    0    0    0    0  0.00000000000E+00  0.00000000000E+00  0.45593999997E+02  0.45594000000E+02  0.51100000000E-03 0.  1.
         11   -1    0    0    0    0 -0.00000000000E+00 -0.00000000000E+00 -0.45593999997E+02  0.45594000000E+02  0.51100000000E-03 0. -1.
    9900012    2    1    2    0    0  0.36836398176E+01  0.15058978860E+02  0.40537414958E+02  0.47787262010E+02  0.19999958808E+02 0.  0.
         12    1    1    2    0    0 -0.36836398176E+01 -0.15058978860E+02 -0.40537414958E+02  0.43400737990E+02  0.00000000000E+00 0. -1.
         11    1    3    3    0    0  0.83242604170E+00 -0.78028323320E+00 -0.22081528664E+00  0.11621250754E+01  0.51100000000E-03 0. -1.
        -11    1    3    3    0    0  0.57879706969E+01  0.15847942323E+02  0.22451247486E+02  0.28084095047E+02  0.51100000000E-03 0.  1.
        -12    1    3    3    0    0 -0.29367569210E+01 -0.86802292433E-02  0.18306982759E+02  0.18541041888E+02  0.00000000000E+00 0.  1.
</event>
<event>
 7    1  0.2339217E-009  0.4778727E+02  0.7816164E-02  0.1312668E+00
        -11   -1    0    0    0    0  0.00000000000E+00  0.00000000000E+00  0.45593999997E+02  0.45594000000E+02  0.51100000000E-03 0.  1.
         11   -1    0    0    0    0 -0.00000000000E+00 -0.00000000000E+00 -0.45593999997E+02  0.45594000000E+02  0.51100000000E-03 0. -1.
    9900012    2    1    2    0    0 -0.24964271104E+02  0.32100956978E+02  0.15163667400E+02  0.47787273282E+02  0.20000010201E+02 0.  0.
         12    1    1    2    0    0  0.24964271104E+02 -0.32100956978E+02 -0.15163667400E+02  0.43400726718E+02  0.00000000000E+00 0. -1.
         11    1    3    3    0    0 -0.90237785797E+00  0.75547579527E+01  0.26545580585E+01  0.80582462278E+01  0.51100000000E-03 0. -1.
        -11    1    3    3    0    0 -0.16901687198E+02  0.21089329880E+02  0.15591658862E+02  0.31201389252E+02  0.51100000000E-03 0.  1.
        -12    1    3    3    0    0 -0.71602060482E+01  0.34568691456E+01 -0.30825495204E+01  0.85276378024E+01  0.00000000000E+00 0.  1.
</event>
<event>
 7    1  0.2339217E-009  0.4778727E+02  0.7816164E-02  0.1312668E+00
        -11   -1    0    0    0    0  0.00000000000E+00  0.00000000000E+00  0.45593999997E+02  0.45594000000E+02  0.51100000000E-03 0.  1.
         11   -1    0    0    0    0 -0.00000000000E+00 -0.00000000000E+00 -0.45593999997E+02  0.45594000000E+02  0.51100000000E-03 0. -1.
    9900012    2    1    2    0    0  0.22628974169E+02 -0.23584171218E+02  0.28554154572E+02  0.47787270198E+02  0.19999996141E+02 0.  0.
         12    1    1    2    0    0 -0.22628974169E+02  0.23584171218E+02 -0.28554154572E+02  0.43400729802E+02  0.00000000000E+00 0. -1.
         11    1    3    3    0    0  0.71133967821E+01 -0.66356074482E+01  0.40949697002E+00  0.97364977285E+01  0.51100000000E-03 0. -1.
        -11    1    3    3    0    0  0.11748288332E+02 -0.14533489781E+02  0.14389657907E+02  0.23586158206E+02  0.51100000000E-03 0.  1.
         12    1    3    3    0    0  0.37672890552E+01 -0.24150739888E+01  0.13754999695E+02  0.14464614264E+02  0.00000000000E+00 0. -1.
</event>
<event>
 7    1  0.2339217E-009  0.4778728E+02  0.7816164E-02  0.1312668E+00
        -11   -1    0    0    0    0  0.00000000000E+00  0.00000000000E+00  0.45593999997E+02  0.45594000000E+02  0.51100000000E-03 0. -1.
         11   -1    0    0    0    0 -0.00000000000E+00 -0.00000000000E+00 -0.45593999997E+02  0.45594000000E+02  0.51100000000E-03 0.  1.
    9900012    2    1    2    0    0 -0.34254298642E+02  0.14853123736E+02 -0.22128036406E+02  0.47787282779E+02  0.20000053501E+02 0.  0.
         12    1    1    2    0    0  0.34254298642E+02 -0.14853123736E+02  0.22128036406E+02  0.43400717221E+02  0.00000000000E+00 0. -1.
         11    1    3    3    0    0 -0.10724697402E+01  0.11620777159E+01 -0.12225903267E+00  0.15860528029E+01  0.51100000000E-03 0. -1.
        -11    1    3    3    0    0  0.91270152995E+00 -0.20956353985E+00 -0.59673215629E+01  0.60403532890E+01  0.51100000000E-03 0.  1.
        -12    1    3    3    0    0 -0.34094530432E+02  0.13900609560E+02 -0.16038455810E+02  0.40160876687E+02  0.00000000000E+00 0.  1.
</event>
<event>
 7    1  0.2339217E-009  0.4778727E+02  0.7816164E-02  0.1312668E+00
        -11   -1    0    0    0    0  0.00000000000E+00  0.00000000000E+00  0.45593999997E+02  0.45594000000E+02  0.51100000000E-03 0. -1.
         11   -1    0    0    0    0 -0.00000000000E+00 -0.00000000000E+00 -0.45593999997E+02  0.45594000000E+02  0.51100000000E-03 0.  1.
    9900012    2    1    2    0    0 -0.40874320784E+02  0.82194512172E+01 -0.12056297850E+02  0.47787265032E+02  0.19999972587E+02 0.  0.
         12    1    1    2    0    0  0.40874320784E+02 -0.82194512172E+01  0.12056297850E+02  0.43400734968E+02  0.00000000000E+00 0. -1.
         11    1    3    3    0    0 -0.10023600145E+02  0.27378179213E+01 -0.26565965372E+01  0.10725004068E+02  0.51100000000E-03 0. -1.
        -11    1    3    3    0    0 -0.26984117935E+02 -0.63233525695E+00 -0.11775141047E+02  0.29448198850E+02  0.51100000000E-03 0.  1.
         12    1    3    3    0    0 -0.38666027043E+01  0.61139685529E+01  0.23754397338E+01  0.76140621135E+01  0.00000000000E+00 0. -1.
</event>
<event>
 7    1  0.2339217E-009  0.4778727E+02  0.7816164E-02  0.1312668E+00
        -11   -1    0    0    0    0  0.00000000000E+00  0.00000000000E+00  0.45593999997E+02  0.45594000000E+02  0.51100000000E-03 0. -1.
         11   -1    0    0    0    0 -0.00000000000E+00 -0.00000000000E+00 -0.45593999997E+02  0.45594000000E+02  0.51100000000E-03 0.  1.
    9900012    2    1    2    0    0  0.39501434235E+02 -0.17941399393E+02  0.11687959405E+01  0.47787271864E+02  0.20000003736E+02 0.  0.
         12    1    1    2    0    0 -0.39501434235E+02  0.17941399393E+02 -0.11687959405E+01  0.43400728136E+02  0.00000000000E+00 0. -1.
         11    1    3    3    0    0  0.68853876527E+01  0.16005456871E+01 -0.29454576869E+01  0.76580696569E+01  0.51100000000E-03 0. -1.
        -11    1    3    3    0    0  0.14061024817E+02 -0.28641484596E+01  0.49135847228E+01  0.15167698586E+02  0.51100000000E-03 0.  1.
        -12    1    3    3    0    0  0.18555021765E+02 -0.16677796621E+02 -0.79933109536E+00  0.24961503621E+02  0.00000000000E+00 0.  1.
</event>
<event>
 7    1  0.2339217E-009  0.4778727E+02  0.7816164E-02  0.1312668E+00
        -11   -1    0    0    0    0  0.00000000000E+00  0.00000000000E+00  0.45593999997E+02  0.45594000000E+02  0.51100000000E-03 0. -1.
         11   -1    0    0    0    0 -0.00000000000E+00 -0.00000000000E+00 -0.45593999997E+02  0.45594000000E+02  0.51100000000E-03 0.  1.
    9900012    2    1    2    0    0  0.38941455592E+01  0.39038177572E+02 -0.18560165847E+02  0.47787269199E+02  0.19999991587E+02 0.  0.
         12    1    1    2    0    0 -0.38941455592E+01 -0.39038177572E+02  0.18560165847E+02  0.43400730801E+02  0.00000000000E+00 0. -1.
         11    1    3    3    0    0  0.39914723717E+01  0.12709940172E+02 -0.94787152538E+01  0.16349938042E+02  0.51100000000E-03 0. -1.
        -11    1    3    3    0    0  0.36065990364E+01  0.20378467024E+02 -0.11912326183E+02  0.23878714166E+02  0.51100000000E-03 0.  1.
         12    1    3    3    0    0 -0.37039258489E+01  0.59497703760E+01  0.28308755893E+01  0.75586169915E+01  0.00000000000E+00 0. -1.
</event>
<event>
 7    1  0.2339217E-009  0.4778728E+02  0.7816164E-02  0.1312668E+00
        -11   -1    0    0    0    0  0.00000000000E+00  0.00000000000E+00  0.45593999997E+02  0.45594000000E+02  0.51100000000E-03 0. -1.
         11   -1    0    0    0    0 -0.00000000000E+00 -0.00000000000E+00 -0.45593999997E+02  0.45594000000E+02  0.51100000000E-03 0.  1.
    9900012    2    1    2    0    0  0.27169702218E+02 -0.30935976341E+02  0.13725718682E+02  0.47787277608E+02  0.20000029927E+02 0.  0.
         12    1    1    2    0    0 -0.27169702218E+02  0.30935976341E+02 -0.13725718682E+02  0.43400722392E+02  0.00000000000E+00 0. -1.
         11    1    3    3    0    0  0.66746313941E+01 -0.39713590867E+01  0.77965640352E+01  0.11004944719E+02  0.51100000000E-03 0. -1.
        -11    1    3    3    0    0  0.20499241677E+02 -0.20818555854E+02  0.80074400521E+01  0.30294393436E+02  0.51100000000E-03 0.  1.
         12    1    3    3    0    0 -0.41708528838E-02 -0.61460614000E+01 -0.20782854057E+01  0.64879394538E+01  0.00000000000E+00 0. -1.
</event>
<event>
 7    1  0.2339217E-009  0.4778725E+02  0.7816164E-02  0.1312668E+00
        -11   -1    0    0    0    0  0.00000000000E+00  0.00000000000E+00  0.45593999997E+02  0.45594000000E+02  0.51100000000E-03 0. -1.
         11   -1    0    0    0    0 -0.00000000000E+00 -0.00000000000E+00 -0.45593999997E+02  0.45594000000E+02  0.51100000000E-03 0.  1.
    9900012    2    1    2    0    0  0.41118314697E+01 -0.58154149552E+01 -0.42812368374E+02  0.47787250065E+02  0.19999904345E+02 0.  0.
         12    1    1    2    0    0 -0.41118314697E+01  0.58154149552E+01  0.42812368374E+02  0.43400749935E+02  0.00000000000E+00 0. -1.
         11    1    3    3    0    0  0.31676475875E+01 -0.48545666614E+00 -0.46376650466E+01  0.56371621192E+01  0.51100000000E-03 0. -1.
        -11    1    3    3    0    0 -0.38502387773E+01  0.24800974173E+01 -0.23030586874E+01  0.51263341112E+01  0.51100000000E-03 0.  1.
        -12    1    3    3    0    0  0.47944226595E+01 -0.78100557064E+01 -0.35871644640E+02  0.37023753834E+02  0.00000000000E+00 0.  1.
</event>
<event>
 7    1  0.2339217E-009  0.4778726E+02  0.7816164E-02  0.1312668E+00
        -11   -1    0    0    0    0  0.00000000000E+00  0.00000000000E+00  0.45593999997E+02  0.45594000000E+02  0.51100000000E-03 0. -1.
         11   -1    0    0    0    0 -0.00000000000E+00 -0.00000000000E+00 -0.45593999997E+02  0.45594000000E+02  0.51100000000E-03 0.  1.
    9900012    2    1    2    0    0  0.28958421366E+02 -0.27372202554E+01 -0.32210897219E+02  0.47787257582E+02  0.19999938620E+02 0.  0.
         12    1    1    2    0    0 -0.28958421366E+02  0.27372202554E+01  0.32210897219E+02  0.43400742418E+02  0.00000000000E+00 0. -1.
         11    1    3    3    0    0  0.22756554744E+01  0.22094465515E+01 -0.15155811973E+01  0.35152878301E+01  0.51100000000E-03 0. -1.
        -11    1    3    3    0    0  0.10244090177E+02  0.52227748734E+01 -0.61849764048E+01  0.13056519227E+02  0.51100000000E-03 0.  1.
         12    1    3    3    0    0  0.16438675715E+02 -0.10169441680E+02 -0.24510339617E+02  0.31215450525E+02  0.00000000000E+00 0. -1.
</event>
<event>
 7    1  0.2339217E-009  0.4778726E+02  0.7816164E-02  0.1312668E+00
        -11   -1    0    0    0    0  0.00000000000E+00  0.00000000000E+00  0.45593999997E+02  0.45594000000E+02  0.51100000000E-03 0.  1.
         11   -1    0    0    0    0 -0.00000000000E+00 -0.00000000000E+00 -0.45593999997E+02  0.45594000000E+02  0.51100000000E-03 0. -1.
    9900012    2    1    2    0    0 -0.19176768707E+02 -0.32185570653E+01  0.38800983534E+02  0.47787263937E+02  0.19999967592E+02 0.  0.
         12    1    1    2    0    0  0.19176768707E+02  0.32185570653E+01 -0.38800983534E+02  0.43400736063E+02  0.00000000000E+00 0. -1.
         11    1    3    3    0    0  0.84078365353E+00  0.14763204290E+00  0.17047211190E+01  0.19065116645E+01  0.51100000000E-03 0. -1.
        -11    1    3    3    0    0 -0.18538323878E+02 -0.44198490650E+01  0.16510686576E+02  0.25215219401E+02  0.51100000000E-03 0.  1.
        -12    1    3    3    0    0 -0.14792284822E+01  0.10536599569E+01  0.20585575839E+02  0.20665532871E+02  0.00000000000E+00 0.  1.
</event>
<event>
 7    1  0.2339217E-009  0.4778727E+02  0.7816164E-02  0.1312668E+00
        -11   -1    0    0    0    0  0.00000000000E+00  0.00000000000E+00  0.45593999997E+02  0.45594000000E+02  0.51100000000E-03 0.  1.
         11   -1    0    0    0    0 -0.00000000000E+00 -0.00000000000E+00 -0.45593999997E+02  0.45594000000E+02  0.51100000000E-03 0. -1.
    9900012    2    1    2    0    0  0.28069254606E+02  0.29398177456E+02  0.15214703470E+02  0.47787273122E+02  0.20000009473E+02 0.  0.
         12    1    1    2    0    0 -0.28069254606E+02 -0.29398177456E+02 -0.15214703470E+02  0.43400726878E+02  0.00000000000E+00 0. -1.
         11    1    3    3    0    0  0.31352024918E+01  0.24451583178E+01 -0.18446219265E+01  0.43830268282E+01  0.51100000000E-03 0. -1.
        -11    1    3    3    0    0  0.21694473334E+02  0.13646242953E+02  0.14579412219E+02  0.29486087921E+02  0.51100000000E-03 0.  1.
         12    1    3    3    0    0  0.32395787798E+01  0.13306776186E+02  0.24799131773E+01  0.13918158373E+02  0.00000000000E+00 0. -1.
</event>
<event>
 7    1  0.2339217E-009  0.4778727E+02  0.7816164E-02  0.1312668E+00
        -11   -1    0    0    0    0  0.00000000000E+00  0.00000000000E+00  0.45593999997E+02  0.45594000000E+02  0.51100000000E-03 0.  1.
         11   -1    0    0    0    0 -0.00000000000E+00 -0.00000000000E+00 -0.45593999997E+02  0.45594000000E+02  0.51100000000E-03 0. -1.
    9900012    2    1    2    0    0  0.32893352480E+02 -0.27148040283E+02  0.80395544956E+01  0.47787272298E+02  0.20000005716E+02 0.  0.
         12    1    1    2    0    0 -0.32893352480E+02  0.27148040283E+02 -0.80395544956E+01  0.43400727702E+02  0.00000000000E+00 0. -1.
         11    1    3    3    0    0  0.23387124158E+00 -0.47871413476E+01  0.11041950484E+01  0.49184006552E+01  0.51100000000E-03 0. -1.
        -11    1    3    3    0    0  0.18656386326E+02 -0.21215792943E+02  0.48466895330E+01  0.28664630133E+02  0.51100000000E-03 0.  1.
        -12    1    3    3    0    0  0.14003094913E+02 -0.11451059919E+01  0.20886699142E+01  0.14204241510E+02  0.00000000000E+00 0.  1.
</event>
<event>
 7    1  0.2339217E-009  0.4778727E+02  0.7816164E-02  0.1312668E+00
        -11   -1    0    0    0    0  0.00000000000E+00  0.00000000000E+00  0.45593999997E+02  0.45594000000E+02  0.51100000000E-03 0.  1.
         11   -1    0    0    0    0 -0.00000000000E+00 -0.00000000000E+00 -0.45593999997E+02  0.45594000000E+02  0.51100000000E-03 0. -1.
    9900012    2    1    2    0    0  0.37384530485E+02 -0.13115623225E+01 -0.22006819227E+02  0.47787269502E+02  0.19999992967E+02 0.  0.
         12    1    1    2    0    0 -0.37384530485E+02  0.13115623225E+01  0.22006819227E+02  0.43400730498E+02  0.00000000000E+00 0. -1.
         11    1    3    3    0    0  0.56922399991E+01 -0.91569633869E+00 -0.38570308862E+01  0.69366262340E+01  0.51100000000E-03 0. -1.
        -11    1    3    3    0    0  0.28954683047E+02  0.32191461664E+01 -0.87573494707E+01  0.30420843880E+02  0.51100000000E-03 0.  1.
         12    1    3    3    0    0  0.27376074388E+01 -0.36150121502E+01 -0.93924388699E+01  0.10429799387E+02  0.00000000000E+00 0. -1.
</event>
<event>
 7    1  0.2339217E-009  0.4778726E+02  0.7816164E-02  0.1312668E+00
        -11   -1    0    0    0    0  0.00000000000E+00  0.00000000000E+00  0.45593999997E+02  0.45594000000E+02  0.51100000000E-03 0.  1.
         11   -1    0    0    0    0 -0.00000000000E+00 -0.00000000000E+00 -0.45593999997E+02  0.45594000000E+02  0.51100000000E-03 0. -1.
    9900012    2    1    2    0    0  0.35386100482E+02 -0.23654872370E+02  0.84790901822E+01  0.47787261936E+02  0.19999958472E+02 0.  0.
         12    1    1    2    0    0 -0.35386100482E+02  0.23654872370E+02 -0.84790901822E+01  0.43400738064E+02  0.00000000000E+00 0. -1.
         11    1    3    3    0    0 -0.13772938034E+01  0.12744259526E+01  0.13404246292E+01  0.23060438368E+01  0.51100000000E-03 0. -1.
        -11    1    3    3    0    0  0.53073402194E+01 -0.15598287409E+01  0.23219760670E+01  0.59993748859E+01  0.51100000000E-03 0.  1.
        -12    1    3    3    0    0  0.31456054066E+02 -0.23369469581E+02  0.48166894860E+01  0.39481843213E+02  0.00000000000E+00 0.  1.
</event>
<event>
 7    1  0.2339217E-009  0.4778728E+02  0.7816164E-02  0.1312668E+00
        -11   -1    0    0    0    0  0.00000000000E+00  0.00000000000E+00  0.45593999997E+02  0.45594000000E+02  0.51100000000E-03 0.  1.
         11   -1    0    0    0    0 -0.00000000000E+00 -0.00000000000E+00 -0.45593999997E+02  0.45594000000E+02  0.51100000000E-03 0. -1.
    9900012    2    1    2    0    0  0.82341844772E+01 -0.11313170965E+02  0.41083245645E+02  0.47787277610E+02  0.20000029934E+02 0.  0.
         12    1    1    2    0    0 -0.82341844772E+01  0.11313170965E+02 -0.41083245645E+02  0.43400722390E+02  0.00000000000E+00 0. -1.
         11    1    3    3    0    0 -0.22030500242E+01 -0.93946681747E+00 -0.75909053339E+00  0.25124183587E+01  0.51100000000E-03 0. -1.
        -11    1    3    3    0    0  0.15461463166E+01 -0.40309484098E+01  0.39911097320E+01  0.58794617670E+01  0.51100000000E-03 0.  1.
        -12    1    3    3    0    0  0.88910881848E+01 -0.63427557375E+01  0.37851226446E+02  0.39395397484E+02  0.00000000000E+00 0.  1.
</event>
<event>
 7    1  0.2339217E-009  0.4778727E+02  0.7816164E-02  0.1312668E+00
        -11   -1    0    0    0    0  0.00000000000E+00  0.00000000000E+00  0.45593999997E+02  0.45594000000E+02  0.51100000000E-03 0. -1.
         11   -1    0    0    0    0 -0.00000000000E+00 -0.00000000000E+00 -0.45593999997E+02  0.45594000000E+02  0.51100000000E-03 0.  1.
    9900012    2    1    2    0    0  0.94706929641E+01 -0.33994161479E+02 -0.25265122507E+02  0.47787268956E+02  0.19999990477E+02 0.  0.
         12    1    1    2    0    0 -0.94706929641E+01  0.33994161479E+02  0.25265122507E+02  0.43400731044E+02  0.00000000000E+00 0. -1.
         11    1    3    3    0    0 -0.37446951449E+01 -0.67584760686E+01 -0.19644145851E+01  0.79723688714E+01  0.51100000000E-03 0.  1.
        -11    1    3    3    0    0  0.30364654419E+00 -0.31215559034E+00 -0.45184222268E+01  0.45393592077E+01  0.51100000000E-03 0. -1.
        -12    1    3    3    0    0  0.12911741565E+02 -0.26923529820E+02 -0.18782285695E+02  0.35275540877E+02  0.00000000000E+00 0.  1.
</event>
<event>
 7    1  0.2339217E-009  0.4778727E+02  0.7816164E-02  0.1312668E+00
        -11   -1    0    0    0    0  0.00000000000E+00  0.00000000000E+00  0.45593999997E+02  0.45594000000E+02  0.51100000000E-03 0. -1.
         11   -1    0    0    0    0 -0.00000000000E+00 -0.00000000000E+00 -0.45593999997E+02  0.45594000000E+02  0.51100000000E-03 0.  1.
    9900012    2    1    2    0    0  0.41385624772E+01 -0.37686444950E+02 -0.21124093666E+02  0.47787272292E+02  0.20000005689E+02 0.  0.
         12    1    1    2    0    0 -0.41385624772E+01  0.37686444950E+02  0.21124093666E+02  0.43400727708E+02  0.00000000000E+00 0. -1.
         11    1    3    3    0    0  0.34136607980E+01 -0.27026445416E+02 -0.11913942984E+02  0.29732538901E+02  0.51100000000E-03 0. -1.
        -11    1    3    3    0    0  0.21248766562E+01 -0.91019983386E+01 -0.79236248438E+00  0.93802618902E+01  0.51100000000E-03 0.  1.
         12    1    3    3    0    0 -0.13999749771E+01 -0.15580011958E+01 -0.84177881983E+01  0.86744715006E+01  0.00000000000E+00 0. -1.
</event>
<event>
 7    1  0.2339217E-009  0.4778727E+02  0.7816164E-02  0.1312668E+00
        -11   -1    0    0    0    0  0.00000000000E+00  0.00000000000E+00  0.45593999997E+02  0.45594000000E+02  0.51100000000E-03 0. -1.
         11   -1    0    0    0    0 -0.00000000000E+00 -0.00000000000E+00 -0.45593999997E+02  0.45594000000E+02  0.51100000000E-03 0.  1.
    9900012    2    1    2    0    0  0.49734062919E+01  0.26498944842E+02 -0.34010209824E+02  0.47787271663E+02  0.20000002822E+02 0.  0.
         12    1    1    2    0    0 -0.49734062919E+01 -0.26498944842E+02  0.34010209824E+02  0.43400728337E+02  0.00000000000E+00 0. -1.
         11    1    3    3    0    0  0.10048141788E+01  0.24656431148E+02 -0.24529276580E+02  0.34794175637E+02  0.51100000000E-03 0. -1.
        -11    1    3    3    0    0  0.11591320946E+01  0.41390329590E+01 -0.79846328001E+01  0.90680506318E+01  0.51100000000E-03 0.  1.
        -12    1    3    3    0    0  0.28094600185E+01 -0.22965192647E+01 -0.14963004439E+01  0.39250453943E+01  0.00000000000E+00 0.  1.
</event>
<event>
 7    1  0.2339217E-009  0.4778728E+02  0.7816164E-02  0.1312668E+00
        -11   -1    0    0    0    0  0.00000000000E+00  0.00000000000E+00  0.45593999997E+02  0.45594000000E+02  0.51100000000E-03 0.  1.
         11   -1    0    0    0    0 -0.00000000000E+00 -0.00000000000E+00 -0.45593999997E+02  0.45594000000E+02  0.51100000000E-03 0. -1.
    9900012    2    1    2    0    0 -0.25537232236E+02 -0.10147154725E+02  0.33593266466E+02  0.47787279601E+02  0.20000039012E+02 0.  0.
         12    1    1    2    0    0  0.25537232236E+02  0.10147154725E+02 -0.33593266466E+02  0.43400720399E+02  0.00000000000E+00 0. -1.
         11    1    3    3    0    0 -0.96803836440E+01 -0.82287387541E+01  0.16593880328E+02  0.20899254378E+02  0.51100000000E-03 0. -1.
        -11    1    3    3    0    0 -0.97629864845E+01 -0.56454825267E+01  0.16144975632E+02  0.19693847173E+02  0.51100000000E-03 0.  1.
         12    1    3    3    0    0 -0.60938621074E+01  0.37270665554E+01  0.85441050645E+00  0.71941780494E+01  0.00000000000E+00 0. -1.
</event>
<event>
 7    1  0.2339217E-009  0.4778727E+02  0.7816164E-02  0.1312668E+00
        -11   -1    0    0    0    0  0.00000000000E+00  0.00000000000E+00  0.45593999997E+02  0.45594000000E+02  0.51100000000E-03 0.  1.
         11   -1    0    0    0    0 -0.00000000000E+00 -0.00000000000E+00 -0.45593999997E+02  0.45594000000E+02  0.51100000000E-03 0. -1.
    9900012    2    1    2    0    0  0.58955345063E+01 -0.11924732414E+02  0.41311823140E+02  0.47787270727E+02  0.19999998552E+02 0.  0.
         12    1    1    2    0    0 -0.58955345063E+01  0.11924732414E+02 -0.41311823140E+02  0.43400729273E+02  0.00000000000E+00 0. -1.
         11    1    3    3    0    0 -0.27983815191E+01 -0.30931938971E+01  0.20849059701E+02  0.21262221857E+02  0.51100000000E-03 0. -1.
        -11    1    3    3    0    0  0.40011410005E+01  0.16124264235E+01  0.10485018012E+02  0.11337753360E+02  0.51100000000E-03 0.  1.
         12    1    3    3    0    0  0.46927750249E+01 -0.10443964940E+02  0.99777454273E+01  0.15187295510E+02  0.00000000000E+00 0. -1.
</event>
<event>
 7    1  0.2339217E-009  0.4778728E+02  0.7816164E-02  0.1312668E+00
        -11   -1    0    0    0    0  0.00000000000E+00  0.00000000000E+00  0.45593999997E+02  0.45594000000E+02  0.51100000000E-03 0. -1.
         11   -1    0    0    0    0 -0.00000000000E+00 -0.00000000000E+00 -0.45593999997E+02  0.45594000000E+02  0.51100000000E-03 0.  1.
    9900012    2    1    2    0    0  0.18687746764E+01  0.43098129275E+02  0.47625314204E+01  0.47787276834E+02  0.20000026396E+02 0.  0.
         12    1    1    2    0    0 -0.18687746764E+01 -0.43098129275E+02 -0.47625314204E+01  0.43400723166E+02  0.00000000000E+00 0. -1.
         11    1    3    3    0    0 -0.72635593534E+01  0.11443490903E+02  0.21247300084E+01  0.13719593886E+02  0.51100000000E-03 0. -1.
        -11    1    3    3    0    0  0.25762888549E+00  0.17196278227E+01  0.22485290399E+01  0.28424242462E+01  0.51100000000E-03 0.  1.
        -12    1    3    3    0    0  0.88747051442E+01  0.29935010549E+02  0.38927237210E+00  0.31225258701E+02  0.00000000000E+00 0.  1.
</event>
<event>
 7    1  0.2339217E-009  0.4778727E+02  0.7816164E-02  0.1312668E+00
        -11   -1    0    0    0    0  0.00000000000E+00  0.00000000000E+00  0.45593999997E+02  0.45594000000E+02  0.51100000000E-03 0.  1.
         11   -1    0    0    0    0 -0.00000000000E+00 -0.00000000000E+00 -0.45593999997E+02  0.45594000000E+02  0.51100000000E-03 0. -1.
    9900012    2    1    2    0    0 -0.31562522123E+02 -0.82385706541E+01  0.28627895376E+02  0.47787271402E+02  0.20000001631E+02 0.  0.
         12    1    1    2    0    0  0.31562522123E+02  0.82385706541E+01 -0.28627895376E+02  0.43400728598E+02  0.00000000000E+00 0. -1.
         11    1    3    3    0    0 -0.51410202677E+01  0.71405745467E+00  0.35934991121E+01  0.63129393765E+01  0.51100000000E-03 0. -1.
        -11    1    3    3    0    0 -0.18501598509E+02 -0.14329406982E+02  0.19143659584E+02  0.30234429949E+02  0.51100000000E-03 0.  1.
        -12    1    3    3    0    0 -0.79199033462E+01  0.53767788728E+01  0.58907366792E+01  0.11239902076E+02  0.00000000000E+00 0.  1.
</event>
<event>
 7    1  0.2339217E-009  0.4778727E+02  0.7816164E-02  0.1312668E+00
        -11   -1    0    0    0    0  0.00000000000E+00  0.00000000000E+00  0.45593999997E+02  0.45594000000E+02  0.51100000000E-03 0.  1.
         11   -1    0    0    0    0 -0.00000000000E+00 -0.00000000000E+00 -0.45593999997E+02  0.45594000000E+02  0.51100000000E-03 0. -1.
    9900012    2    1    2    0    0  0.10870622570E+01  0.24851484123E+02  0.35564661978E+02  0.47787272481E+02  0.20000006552E+02 0.  0.
         12    1    1    2    0    0 -0.10870622570E+01 -0.24851484123E+02 -0.35564661978E+02  0.43400727519E+02  0.00000000000E+00 0. -1.
         11    1    3    3    0    0  0.51857336455E-01  0.61108760476E+01  0.13674201772E+02  0.14977626301E+02  0.51100000000E-03 0. -1.
        -11    1    3    3    0    0 -0.54291466450E+01  0.15878765220E+02  0.18473765312E+02  0.24957780817E+02  0.51100000000E-03 0.  1.
         12    1    3    3    0    0  0.64643515655E+01  0.28618428555E+01  0.34166948944E+01  0.78518653639E+01  0.00000000000E+00 0. -1.
</event>
<event>
 7    1  0.2339217E-009  0.4778728E+02  0.7816164E-02  0.1312668E+00
        -11   -1    0    0    0    0  0.00000000000E+00  0.00000000000E+00  0.45593999997E+02  0.45594000000E+02  0.51100000000E-03 0.  1.
         11   -1    0    0    0    0 -0.00000000000E+00 -0.00000000000E+00 -0.45593999997E+02  0.45594000000E+02  0.51100000000E-03 0. -1.
    9900012    2    1    2    0    0 -0.30697437238E+02  0.12261692509E+02  0.28123676345E+02  0.47787275037E+02  0.20000018206E+02 0.  0.
         12    1    1    2    0    0  0.30697437238E+02 -0.12261692509E+02 -0.28123676345E+02  0.43400724963E+02  0.00000000000E+00 0. -1.
         11    1    3    3    0    0 -0.15343751310E+02  0.96511700570E+01  0.10393819398E+02  0.20895149429E+02  0.51100000000E-03 0. -1.
        -11    1    3    3    0    0 -0.14606589938E+02  0.59445193859E+01  0.10645006639E+02  0.19026453872E+02  0.51100000000E-03 0.  1.
        -12    1    3    3    0    0 -0.74709598951E+00 -0.33339969340E+01  0.70848503081E+01  0.78656717362E+01  0.00000000000E+00 0.  1.
</event>
<event>
 7    1  0.2339217E-009  0.4778724E+02  0.7816164E-02  0.1312668E+00
        -11   -1    0    0    0    0  0.00000000000E+00  0.00000000000E+00  0.45593999997E+02  0.45594000000E+02  0.51100000000E-03 0. -1.
         11   -1    0    0    0    0 -0.00000000000E+00 -0.00000000000E+00 -0.45593999997E+02  0.45594000000E+02  0.51100000000E-03 0.  1.
    9900012    2    1    2    0    0  0.40621900259E+02  0.75103981570E+01 -0.13307174315E+02  0.47787242526E+02  0.19999869971E+02 0.  0.
         12    1    1    2    0    0 -0.40621900259E+02 -0.75103981570E+01  0.13307174315E+02  0.43400757474E+02  0.00000000000E+00 0. -1.
         11    1    3    3    0    0  0.29399002597E+01  0.16405353680E+00 -0.66594040015E+01  0.72813178077E+01  0.51100000000E-03 0. -1.
        -11    1    3    3    0    0 -0.20762047735E+00  0.68412953731E+00  0.10521277998E+01  0.12720505708E+01  0.51100000000E-03 0.  1.
        -12    1    3    3    0    0  0.37889620476E+02  0.66622150829E+01 -0.76998981130E+01  0.39233874147E+02  0.00000000000E+00 0.  1.
</event>
<event>
 7    1  0.2339217E-009  0.4778727E+02  0.7816164E-02  0.1312668E+00
        -11   -1    0    0    0    0  0.00000000000E+00  0.00000000000E+00  0.45593999997E+02  0.45594000000E+02  0.51100000000E-03 0.  1.
         11   -1    0    0    0    0 -0.00000000000E+00 -0.00000000000E+00 -0.45593999997E+02  0.45594000000E+02  0.51100000000E-03 0. -1.
    9900012    2    1    2    0    0 -0.85386483134E+00  0.23589262192E+02  0.36420337905E+02  0.47787269718E+02  0.19999993950E+02 0.  0.
         12    1    1    2    0    0  0.85386483134E+00 -0.23589262192E+02 -0.36420337905E+02  0.43400730282E+02  0.00000000000E+00 0. -1.
         11    1    3    3    0    0 -0.93492297437E+00 -0.29528073906E+00 -0.16297636406E+01  0.19019467575E+01  0.51100000000E-03 0. -1.
        -11    1    3    3    0    0 -0.55486864333E+00  0.56337254734E+00 -0.41888110234E+00  0.89483488838E+00  0.51100000000E-03 0.  1.
        -12    1    3    3    0    0  0.63592678635E+00  0.23321170384E+02  0.38468982648E+02  0.44990488072E+02  0.00000000000E+00 0.  1.
</event>
<event>
 7    1  0.2339217E-009  0.4778725E+02  0.7816164E-02  0.1312668E+00
        -11   -1    0    0    0    0  0.00000000000E+00  0.00000000000E+00  0.45593999997E+02  0.45594000000E+02  0.51100000000E-03 0.  1.
         11   -1    0    0    0    0 -0.00000000000E+00 -0.00000000000E+00 -0.45593999997E+02  0.45594000000E+02  0.51100000000E-03 0. -1.
    9900012    2    1    2    0    0  0.83843707098E+01 -0.42458963101E+02  0.32501656391E+01  0.47787253503E+02  0.19999920024E+02 0.  0.
         12    1    1    2    0    0 -0.83843707098E+01  0.42458963101E+02 -0.32501656391E+01  0.43400746497E+02  0.00000000000E+00 0. -1.
         11    1    3    3    0    0  0.10593018874E+02 -0.25445747544E+02  0.65265333869E+01  0.28324790472E+02  0.51100000000E-03 0. -1.
        -11    1    3    3    0    0  0.15174118157E+00 -0.13574779202E+02  0.84123509337E+00  0.13601666534E+02  0.51100000000E-03 0.  1.
         12    1    3    3    0    0 -0.23603893459E+01 -0.34384363544E+01 -0.41176028411E+01  0.58607964975E+01  0.00000000000E+00 0. -1.
</event>
<event>
 7    1  0.2339217E-009  0.4778729E+02  0.7816164E-02  0.1312668E+00
        -11   -1    0    0    0    0  0.00000000000E+00  0.00000000000E+00  0.45593999997E+02  0.45594000000E+02  0.51100000000E-03 0.  1.
         11   -1    0    0    0    0 -0.00000000000E+00 -0.00000000000E+00 -0.45593999997E+02  0.45594000000E+02  0.51100000000E-03 0. -1.
    9900012    2    1    2    0    0 -0.18767726977E+02 -0.18789515592E+02  0.34327075145E+02  0.47787290788E+02  0.20000090021E+02 0.  0.
         12    1    1    2    0    0  0.18767726977E+02  0.18789515592E+02 -0.34327075145E+02  0.43400709212E+02  0.00000000000E+00 0. -1.
         11    1    3    3    0    0 -0.42589232315E+01 -0.74403438182E+01  0.17829236339E+02  0.19783296285E+02  0.51100000000E-03 0. -1.
        -11    1    3    3    0    0 -0.14460425483E+02 -0.62580791776E+01  0.16632541593E+02  0.22910890429E+02  0.51100000000E-03 0.  1.
         12    1    3    3    0    0 -0.48378262631E-01 -0.50910925957E+01 -0.13470278638E+00  0.50931040747E+01  0.00000000000E+00 0. -1.
</event>
<event>
 7    1  0.2339217E-009  0.4778727E+02  0.7816164E-02  0.1312668E+00
        -11   -1    0    0    0    0  0.00000000000E+00  0.00000000000E+00  0.45593999997E+02  0.45594000000E+02  0.51100000000E-03 0.  1.
         11   -1    0    0    0    0 -0.00000000000E+00 -0.00000000000E+00 -0.45593999997E+02  0.45594000000E+02  0.51100000000E-03 0. -1.
    9900012    2    1    2    0    0  0.39570798401E+02  0.78974501105E+01  0.15981409189E+02  0.47787271388E+02  0.20000001567E+02 0.  0.
         12    1    1    2    0    0 -0.39570798401E+02 -0.78974501105E+01 -0.15981409189E+02  0.43400728612E+02  0.00000000000E+00 0. -1.
         11    1    3    3    0    0  0.26391671210E+02  0.37256653248E+01  0.74988495483E+01  0.27688149743E+02  0.51100000000E-03 0. -1.
        -11    1    3    3    0    0  0.11825078464E+02  0.75124600144E+01  0.86944037260E+01  0.16488244071E+02  0.51100000000E-03 0.  1.
        -12    1    3    3    0    0  0.13540487282E+01 -0.33406752287E+01 -0.21184408570E+00  0.36108775746E+01  0.00000000000E+00 0.  1.
</event>
<event>
 7    1  0.2339217E-009  0.4778727E+02  0.7816164E-02  0.1312668E+00
        -11   -1    0    0    0    0  0.00000000000E+00  0.00000000000E+00  0.45593999997E+02  0.45594000000E+02  0.51100000000E-03 0. -1.
         11   -1    0    0    0    0 -0.00000000000E+00 -0.00000000000E+00 -0.45593999997E+02  0.45594000000E+02  0.51100000000E-03 0.  1.
    9900012    2    1    2    0    0  0.81205023184E+01  0.42617812025E+02  0.11844058742E+01  0.47787271009E+02  0.19999999838E+02 0.  0.
         12    1    1    2    0    0 -0.81205023184E+01 -0.42617812025E+02 -0.11844058742E+01  0.43400728991E+02  0.00000000000E+00 0. -1.
         11    1    3    3    0    0  0.26898735347E+01  0.39525372594E+01 -0.12164779536E+01  0.49333345004E+01  0.51100000000E-03 0. -1.
        -11    1    3    3    0    0  0.11021557691E+02  0.16103653833E+02  0.18739195478E+01  0.19603927551E+02  0.51100000000E-03 0.  1.
         12    1    3    3    0    0 -0.55909289076E+01  0.22561620933E+02  0.52696428005E+00  0.23250008957E+02  0.00000000000E+00 0. -1.
</event>
<event>
 7    1  0.2339217E-009  0.4778727E+02  0.7816164E-02  0.1312668E+00
        -11   -1    0    0    0    0  0.00000000000E+00  0.00000000000E+00  0.45593999997E+02  0.45594000000E+02  0.51100000000E-03 0.  1.
         11   -1    0    0    0    0 -0.00000000000E+00 -0.00000000000E+00 -0.45593999997E+02  0.45594000000E+02  0.51100000000E-03 0. -1.
    9900012    2    1    2    0    0 -0.35278299261E+02  0.11345354769E+02  0.22590878910E+02  0.47787270933E+02  0.19999999494E+02 0.  0.
         12    1    1    2    0    0  0.35278299261E+02 -0.11345354769E+02 -0.22590878910E+02  0.43400729067E+02  0.00000000000E+00 0. -1.
         11    1    3    3    0    0 -0.50488197216E+01  0.42652871358E+01  0.70433278938E+00  0.66467540854E+01  0.51100000000E-03 0. -1.
        -11    1    3    3    0    0 -0.14158209089E+02 -0.37217541175E+01  0.50658520297E+01  0.15490939137E+02  0.51100000000E-03 0.  1.
        -12    1    3    3    0    0 -0.16071270451E+02  0.10801821751E+02  0.16820694091E+02  0.25649577711E+02  0.00000000000E+00 0.  1.
</event>
<event>
 7    1  0.2339217E-009  0.4778727E+02  0.7816164E-02  0.1312668E+00
        -11   -1    0    0    0    0  0.00000000000E+00  0.00000000000E+00  0.45593999997E+02  0.45594000000E+02  0.51100000000E-03 0.  1.
         11   -1    0    0    0    0 -0.00000000000E+00 -0.00000000000E+00 -0.45593999997E+02  0.45594000000E+02  0.51100000000E-03 0. -1.
    9900012    2    1    2    0    0 -0.25287611654E+02 -0.24244932059E+01  0.35189234042E+02  0.47787266562E+02  0.19999979563E+02 0.  0.
         12    1    1    2    0    0  0.25287611654E+02  0.24244932059E+01 -0.35189234042E+02  0.43400733438E+02  0.00000000000E+00 0. -1.
         11    1    3    3    0    0 -0.12752339898E+02 -0.86961986081E+00  0.93684449222E+01  0.15847591997E+02  0.51100000000E-03 0.  1.
        -11    1    3    3    0    0  0.19984152377E+01  0.21597676254E+01  0.86623723487E+01  0.91484946645E+01  0.51100000000E-03 0. -1.
         12    1    3    3    0    0 -0.14533686994E+02 -0.37146409705E+01  0.17158416771E+02  0.22791179901E+02  0.00000000000E+00 0. -1.
</event>
<event>
 7    1  0.2339217E-009  0.4778727E+02  0.7816164E-02  0.1312668E+00
        -11   -1    0    0    0    0  0.00000000000E+00  0.00000000000E+00  0.45593999997E+02  0.45594000000E+02  0.51100000000E-03 0. -1.
         11   -1    0    0    0    0 -0.00000000000E+00 -0.00000000000E+00 -0.45593999997E+02  0.45594000000E+02  0.51100000000E-03 0.  1.
    9900012    2    1    2    0    0 -0.26003165712E+02 -0.34614878436E+02  0.30445130005E+01  0.47787268490E+02  0.19999988353E+02 0.  0.
         12    1    1    2    0    0  0.26003165712E+02  0.34614878436E+02 -0.30445130005E+01  0.43400731510E+02  0.00000000000E+00 0. -1.
         11    1    3    3    0    0 -0.11432181194E+02 -0.74273669568E+01  0.51388572852E+01  0.14569433799E+02  0.51100000000E-03 0. -1.
        -11    1    3    3    0    0 -0.12032981137E+02 -0.98539931789E+01  0.16923712794E+00  0.15553856695E+02  0.51100000000E-03 0.  1.
         12    1    3    3    0    0 -0.25380033811E+01 -0.17333518301E+02 -0.22635814127E+01  0.17663977996E+02  0.00000000000E+00 0. -1.
</event>
<event>
 7    1  0.2339217E-009  0.4778726E+02  0.7816164E-02  0.1312668E+00
        -11   -1    0    0    0    0  0.00000000000E+00  0.00000000000E+00  0.45593999997E+02  0.45594000000E+02  0.51100000000E-03 0. -1.
         11   -1    0    0    0    0 -0.00000000000E+00 -0.00000000000E+00 -0.45593999997E+02  0.45594000000E+02  0.51100000000E-03 0.  1.
    9900012    2    1    2    0    0  0.30434225339E+02  0.30545348496E+02  0.49359912406E+01  0.47787258114E+02  0.19999941044E+02 0.  0.
         12    1    1    2    0    0 -0.30434225339E+02 -0.30545348496E+02 -0.49359912406E+01  0.43400741886E+02  0.00000000000E+00 0. -1.
         11    1    3    3    0    0  0.12358797983E+02  0.12383168873E+02  0.54531457145E+01  0.18325380143E+02  0.51100000000E-03 0. -1.
        -11    1    3    3    0    0  0.13241521968E+01  0.11063258111E+02  0.11019188397E+01  0.11196574675E+02  0.51100000000E-03 0.  1.
        -12    1    3    3    0    0  0.16751275160E+02  0.70989215119E+01 -0.16190733136E+01  0.18265303296E+02  0.00000000000E+00 0.  1.
</event>
<event>
 7    1  0.2339217E-009  0.4778728E+02  0.7816164E-02  0.1312668E+00
        -11   -1    0    0    0    0  0.00000000000E+00  0.00000000000E+00  0.45593999997E+02  0.45594000000E+02  0.51100000000E-03 0.  1.
         11   -1    0    0    0    0 -0.00000000000E+00 -0.00000000000E+00 -0.45593999997E+02  0.45594000000E+02  0.51100000000E-03 0. -1.
    9900012    2    1    2    0    0 -0.95330045584E+01  0.55749049675E+01  0.41972188953E+02  0.47787281264E+02  0.20000046594E+02 0.  0.
         12    1    1    2    0    0  0.95330045584E+01 -0.55749049675E+01 -0.41972188953E+02  0.43400718736E+02  0.00000000000E+00 0. -1.
         11    1    3    3    0    0 -0.43270985660E+00  0.84921566393E+00 -0.67079086021E+00  0.11654894693E+01  0.51100000000E-03 0. -1.
        -11    1    3    3    0    0 -0.13191414712E+02  0.28460166118E+01  0.24958838849E+02  0.28373524096E+02  0.51100000000E-03 0.  1.
         12    1    3    3    0    0  0.40911200101E+01  0.18796726918E+01  0.17684140964E+02  0.18248267699E+02  0.00000000000E+00 0. -1.
</event>
<event>
 7    1  0.2339217E-009  0.4778727E+02  0.7816164E-02  0.1312668E+00
        -11   -1    0    0    0    0  0.00000000000E+00  0.00000000000E+00  0.45593999997E+02  0.45594000000E+02  0.51100000000E-03 0.  1.
         11   -1    0    0    0    0 -0.00000000000E+00 -0.00000000000E+00 -0.45593999997E+02  0.45594000000E+02  0.51100000000E-03 0. -1.
    9900012    2    1    2    0    0  0.36366269596E+02  0.51497884573E+01  0.23121360866E+02  0.47787271737E+02  0.20000003156E+02 0.  0.
         12    1    1    2    0    0 -0.36366269596E+02 -0.51497884573E+01 -0.23121360866E+02  0.43400728263E+02  0.00000000000E+00 0. -1.
         11    1    3    3    0    0  0.20992272566E-02  0.25089208391E+01  0.25837165194E+01  0.36014274250E+01  0.51100000000E-03 0. -1.
        -11    1    3    3    0    0  0.19705041446E+02  0.54010926000E+01  0.45511361534E+01  0.20932589429E+02  0.51100000000E-03 0.  1.
         12    1    3    3    0    0  0.16659128923E+02 -0.27602249818E+01  0.15986508193E+02  0.23253254883E+02  0.00000000000E+00 0. -1.
</event>
<event>
 7    1  0.2339217E-009  0.4778727E+02  0.7816164E-02  0.1312668E+00
        -11   -1    0    0    0    0  0.00000000000E+00  0.00000000000E+00  0.45593999997E+02  0.45594000000E+02  0.51100000000E-03 0. -1.
         11   -1    0    0    0    0 -0.00000000000E+00 -0.00000000000E+00 -0.45593999997E+02  0.45594000000E+02  0.51100000000E-03 0.  1.
    9900012    2    1    2    0    0  0.43370582505E+02  0.76083353302E+00  0.14271307522E+01  0.47787274238E+02  0.20000014559E+02 0.  0.
         12    1    1    2    0    0 -0.43370582505E+02 -0.76083353302E+00 -0.14271307522E+01  0.43400725762E+02  0.00000000000E+00 0. -1.
         11    1    3    3    0    0  0.24098617675E+02 -0.40983242809E+01 -0.13250086863E+01  0.24480508247E+02  0.51100000000E-03 0. -1.
        -11    1    3    3    0    0  0.18466683029E+02  0.21946603496E+01 -0.10132560247E+01  0.18624220901E+02  0.51100000000E-03 0.  1.
         12    1    3    3    0    0  0.80528180123E+00  0.26644974643E+01  0.37653954632E+01  0.46825450891E+01  0.00000000000E+00 0. -1.
</event>
<event>
 7    1  0.2339217E-009  0.4778727E+02  0.7816164E-02  0.1312668E+00
        -11   -1    0    0    0    0  0.00000000000E+00  0.00000000000E+00  0.45593999997E+02  0.45594000000E+02  0.51100000000E-03 0. -1.
         11   -1    0    0    0    0 -0.00000000000E+00 -0.00000000000E+00 -0.45593999997E+02  0.45594000000E+02  0.51100000000E-03 0.  1.
    9900012    2    1    2    0    0 -0.37864115626E+02 -0.19788425188E+02 -0.76387333740E+01  0.47787271076E+02  0.20000000145E+02 0.  0.
         12    1    1    2    0    0  0.37864115626E+02  0.19788425188E+02  0.76387333740E+01  0.43400728924E+02  0.00000000000E+00 0. -1.
         11    1    3    3    0    0 -0.17243653292E+01  0.26508573980E+01  0.67265547491E+00  0.32331016659E+01  0.51100000000E-03 0. -1.
        -11    1    3    3    0    0 -0.67934965657E+01 -0.28140610370E+01 -0.54147697837E+01  0.91318271545E+01  0.51100000000E-03 0.  1.
        -12    1    3    3    0    0 -0.29346253731E+02 -0.19625221549E+02 -0.28966190652E+01  0.35422342256E+02  0.00000000000E+00 0.  1.
</event>
<event>
 7    1  0.2339217E-009  0.4778724E+02  0.7816164E-02  0.1312668E+00
        -11   -1    0    0    0    0  0.00000000000E+00  0.00000000000E+00  0.45593999997E+02  0.45594000000E+02  0.51100000000E-03 0.  1.
         11   -1    0    0    0    0 -0.00000000000E+00 -0.00000000000E+00 -0.45593999997E+02  0.45594000000E+02  0.51100000000E-03 0. -1.
    9900012    2    1    2    0    0  0.30610442501E+02  0.30308786320E+02 -0.52918918480E+01  0.47787241509E+02  0.19999865335E+02 0.  0.
         12    1    1    2    0    0 -0.30610442501E+02 -0.30308786320E+02  0.52918918480E+01  0.43400758491E+02  0.00000000000E+00 0. -1.
         11    1    3    3    0    0  0.80033763849E+01  0.93640967471E+01  0.35844993595E+01  0.12829223568E+02  0.51100000000E-03 0.  1.
        -11    1    3    3    0    0  0.40882129788E+01  0.90572661033E+01 -0.82952791791E+01  0.12944466445E+02  0.51100000000E-03 0. -1.
         12    1    3    3    0    0  0.18518853137E+02  0.11887423469E+02 -0.58111202843E+00  0.22013551496E+02  0.00000000000E+00 0. -1.
</event>
<event>
 7    1  0.2339217E-009  0.4778727E+02  0.7816164E-02  0.1312668E+00
        -11   -1    0    0    0    0  0.00000000000E+00  0.00000000000E+00  0.45593999997E+02  0.45594000000E+02  0.51100000000E-03 0.  1.
         11   -1    0    0    0    0 -0.00000000000E+00 -0.00000000000E+00 -0.45593999997E+02  0.45594000000E+02  0.51100000000E-03 0. -1.
    9900012    2    1    2    0    0  0.16046109432E+02  0.39223070393E+02  0.93646447555E+01  0.47787269012E+02  0.19999990732E+02 0.  0.
         12    1    1    2    0    0 -0.16046109432E+02 -0.39223070393E+02 -0.93646447555E+01  0.43400730988E+02  0.00000000000E+00 0. -1.
         11    1    3    3    0    0  0.56362404392E+01  0.18093062197E+02  0.74619765833E+01  0.20366816166E+02  0.51100000000E-03 0.  1.
        -11    1    3    3    0    0  0.35352798585E+01  0.16364738129E+01 -0.43362768376E+01  0.58291978257E+01  0.51100000000E-03 0. -1.
         12    1    3    3    0    0  0.68745891341E+01  0.19493534383E+02  0.62389450097E+01  0.21591255020E+02  0.00000000000E+00 0. -1.
</event>
<event>
 7    1  0.2339217E-009  0.4778727E+02  0.7816164E-02  0.1312668E+00
        -11   -1    0    0    0    0  0.00000000000E+00  0.00000000000E+00  0.45593999997E+02  0.45594000000E+02  0.51100000000E-03 0. -1.
         11   -1    0    0    0    0 -0.00000000000E+00 -0.00000000000E+00 -0.45593999997E+02  0.45594000000E+02  0.51100000000E-03 0.  1.
    9900012    2    1    2    0    0 -0.44085924956E+01  0.35205150646E+02 -0.24995696022E+02  0.47787272593E+02  0.20000007062E+02 0.  0.
         12    1    1    2    0    0  0.44085924956E+01 -0.35205150646E+02  0.24995696022E+02  0.43400727407E+02  0.00000000000E+00 0. -1.
         11    1    3    3    0    0 -0.68272675939E+01  0.98893111889E+01 -0.67803782417E+01  0.13797955934E+02  0.51100000000E-03 0. -1.
        -11    1    3    3    0    0 -0.21057676518E+01  0.13685846946E+02 -0.16261512754E+02  0.21358217654E+02  0.51100000000E-03 0.  1.
         12    1    3    3    0    0  0.45244427501E+01  0.11629992511E+02 -0.19538050261E+01  0.12631099006E+02  0.00000000000E+00 0. -1.
</event>
<event>
 7    1  0.2339217E-009  0.4778727E+02  0.7816164E-02  0.1312668E+00
        -11   -1    0    0    0    0  0.00000000000E+00  0.00000000000E+00  0.45593999997E+02  0.45594000000E+02  0.51100000000E-03 0.  1.
         11   -1    0    0    0    0 -0.00000000000E+00 -0.00000000000E+00 -0.45593999997E+02  0.45594000000E+02  0.51100000000E-03 0. -1.
    9900012    2    1    2    0    0  0.23494689231E+02  0.12317833739E+02  0.34349578528E+02  0.47787274256E+02  0.20000014642E+02 0.  0.
         12    1    1    2    0    0 -0.23494689231E+02 -0.12317833739E+02 -0.34349578528E+02  0.43400725744E+02  0.00000000000E+00 0. -1.
         11    1    3    3    0    0  0.81623033854E+01  0.12781627497E+01  0.42149826009E+01  0.92748571502E+01  0.51100000000E-03 0. -1.
        -11    1    3    3    0    0  0.16231266205E+02  0.39786029988E+01  0.23038557404E+02  0.28461525116E+02  0.51100000000E-03 0.  1.
        -12    1    3    3    0    0 -0.89888035948E+00  0.70610679899E+01  0.70960385237E+01  0.10050891990E+02  0.00000000000E+00 0.  1.
</event>
<event>
 7    1  0.2339217E-009  0.4778733E+02  0.7816164E-02  0.1312668E+00
        -11   -1    0    0    0    0  0.00000000000E+00  0.00000000000E+00  0.45593999997E+02  0.45594000000E+02  0.51100000000E-03 0.  1.
         11   -1    0    0    0    0 -0.00000000000E+00 -0.00000000000E+00 -0.45593999997E+02  0.45594000000E+02  0.51100000000E-03 0. -1.
    9900012    2    1    2    0    0 -0.24003280173E+02 -0.22820834877E+02  0.28047648183E+02  0.47787325672E+02  0.20000249068E+02 0.  0.
         12    1    1    2    0    0  0.24003280173E+02  0.22820834877E+02 -0.28047648183E+02  0.43400674328E+02  0.00000000000E+00 0. -1.
         11    1    3    3    0    0 -0.86822973979E+01 -0.79580694966E+01  0.44706195438E+01  0.12597602851E+02  0.51100000000E-03 0. -1.
        -11    1    3    3    0    0 -0.31080291242E+01 -0.11081109372E+02  0.17714292660E+02  0.21124559040E+02  0.51100000000E-03 0.  1.
        -12    1    3    3    0    0 -0.12212953650E+02 -0.37816560084E+01  0.58627359794E+01  0.14065163781E+02  0.00000000000E+00 0.  1.
</event>
<event>
 7    1  0.2339217E-009  0.4778727E+02  0.7816164E-02  0.1312668E+00
        -11   -1    0    0    0    0  0.00000000000E+00  0.00000000000E+00  0.45593999997E+02  0.45594000000E+02  0.51100000000E-03 0.  1.
         11   -1    0    0    0    0 -0.00000000000E+00 -0.00000000000E+00 -0.45593999997E+02  0.45594000000E+02  0.51100000000E-03 0. -1.
    9900012    2    1    2    0    0 -0.18016676150E+02 -0.36202304197E+02  0.15761209548E+02  0.47787272183E+02  0.20000005192E+02 0.  0.
         12    1    1    2    0    0  0.18016676150E+02  0.36202304197E+02 -0.15761209548E+02  0.43400727817E+02  0.00000000000E+00 0. -1.
         11    1    3    3    0    0  0.22529719882E+01 -0.12846748442E+01 -0.10299404816E+01  0.27905286044E+01  0.51100000000E-03 0. -1.
        -11    1    3    3    0    0 -0.29572875024E+01 -0.21742941544E+00  0.10797816204E+01  0.31557492821E+01  0.51100000000E-03 0.  1.
        -12    1    3    3    0    0 -0.17312360635E+02 -0.34700199937E+02  0.15711368409E+02  0.41840994297E+02  0.00000000000E+00 0.  1.
</event>
<event>
 7    1  0.2339217E-009  0.4778727E+02  0.7816164E-02  0.1312668E+00
        -11   -1    0    0    0    0  0.00000000000E+00  0.00000000000E+00  0.45593999997E+02  0.45594000000E+02  0.51100000000E-03 0. -1.
         11   -1    0    0    0    0 -0.00000000000E+00 -0.00000000000E+00 -0.45593999997E+02  0.45594000000E+02  0.51100000000E-03 0.  1.
    9900012    2    1    2    0    0 -0.61077075752E+01  0.40059596109E+02 -0.15541812572E+02  0.47787271086E+02  0.20000000188E+02 0.  0.
         12    1    1    2    0    0  0.61077075752E+01 -0.40059596109E+02  0.15541812572E+02  0.43400728914E+02  0.00000000000E+00 0. -1.
         11    1    3    3    0    0 -0.49775348212E+01  0.11592273982E+02 -0.65354043889E+01  0.14208032227E+02  0.51100000000E-03 0. -1.
        -11    1    3    3    0    0  0.19599386108E+00  0.25508768303E+01 -0.71139122318E+01  0.75599691600E+01  0.51100000000E-03 0.  1.
         12    1    3    3    0    0 -0.13261666150E+01  0.25916445297E+02 -0.18924959512E+01  0.26019269699E+02  0.00000000000E+00 0. -1.
</event>
<event>
 7    1  0.2339217E-009  0.4778727E+02  0.7816164E-02  0.1312668E+00
        -11   -1    0    0    0    0  0.00000000000E+00  0.00000000000E+00  0.45593999997E+02  0.45594000000E+02  0.51100000000E-03 0.  1.
         11   -1    0    0    0    0 -0.00000000000E+00 -0.00000000000E+00 -0.45593999997E+02  0.45594000000E+02  0.51100000000E-03 0. -1.
    9900012    2    1    2    0    0  0.55647015300E+01 -0.27175517770E+02  0.33378866381E+02  0.47787269705E+02  0.19999993894E+02 0.  0.
         12    1    1    2    0    0 -0.55647015300E+01  0.27175517770E+02 -0.33378866381E+02  0.43400730295E+02  0.00000000000E+00 0. -1.
         11    1    3    3    0    0 -0.17697481133E+01  0.17962336263E+01  0.50937732024E+01  0.56837478237E+01  0.51100000000E-03 0. -1.
        -11    1    3    3    0    0  0.55173689570E+01 -0.84353328864E+01  0.12942821185E+02  0.16404658534E+02  0.51100000000E-03 0.  1.
        -12    1    3    3    0    0  0.18170806863E+01 -0.20536418510E+02  0.15342271994E+02  0.25698863348E+02  0.00000000000E+00 0.  1.
</event>
<event>
 7    1  0.2339217E-009  0.4778727E+02  0.7816164E-02  0.1312668E+00
        -11   -1    0    0    0    0  0.00000000000E+00  0.00000000000E+00  0.45593999997E+02  0.45594000000E+02  0.51100000000E-03 0.  1.
         11   -1    0    0    0    0 -0.00000000000E+00 -0.00000000000E+00 -0.45593999997E+02  0.45594000000E+02  0.51100000000E-03 0. -1.
    9900012    2    1    2    0    0  0.21569732028E+02  0.84301299508E+01  0.36705624783E+02  0.47787270496E+02  0.19999997499E+02 0.  0.
         12    1    1    2    0    0 -0.21569732028E+02 -0.84301299508E+01 -0.36705624783E+02  0.43400729504E+02  0.00000000000E+00 0. -1.
         11    1    3    3    0    0  0.55418957850E+01 -0.12419617363E+01  0.65359919505E+01  0.86587683238E+01  0.51100000000E-03 0. -1.
        -11    1    3    3    0    0  0.11519345370E+02 -0.51438448693E+00  0.23417022900E+02  0.26102047255E+02  0.51100000000E-03 0.  1.
         12    1    3    3    0    0  0.45084908732E+01  0.10186476174E+02  0.67526099332E+01  0.13026454917E+02  0.00000000000E+00 0. -1.
</event>
<event>
 7    1  0.2339217E-009  0.4778727E+02  0.7816164E-02  0.1312668E+00
        -11   -1    0    0    0    0  0.00000000000E+00  0.00000000000E+00  0.45593999997E+02  0.45594000000E+02  0.51100000000E-03 0.  1.
         11   -1    0    0    0    0 -0.00000000000E+00 -0.00000000000E+00 -0.45593999997E+02  0.45594000000E+02  0.51100000000E-03 0. -1.
    9900012    2    1    2    0    0 -0.19175505217E+02 -0.22244942338E+02  0.31954436533E+02  0.47787268738E+02  0.19999989483E+02 0.  0.
         12    1    1    2    0    0  0.19175505217E+02  0.22244942338E+02 -0.31954436533E+02  0.43400731262E+02  0.00000000000E+00 0. -1.
         11    1    3    3    0    0 -0.74099102759E+00 -0.54142065657E+01  0.85364267879E+01  0.10135742844E+02  0.51100000000E-03 0. -1.
        -11    1    3    3    0    0 -0.13365128592E+02 -0.16641054523E+02  0.24470189039E+02  0.32470625337E+02  0.51100000000E-03 0.  1.
         12    1    3    3    0    0 -0.50693855972E+01 -0.18968124897E+00 -0.10521792935E+01  0.51809005564E+01  0.00000000000E+00 0. -1.
</event>
<event>
 7    1  0.2339217E-009  0.4778727E+02  0.7816164E-02  0.1312668E+00
        -11   -1    0    0    0    0  0.00000000000E+00  0.00000000000E+00  0.45593999997E+02  0.45594000000E+02  0.51100000000E-03 0. -1.
         11   -1    0    0    0    0 -0.00000000000E+00 -0.00000000000E+00 -0.45593999997E+02  0.45594000000E+02  0.51100000000E-03 0.  1.
    9900012    2    1    2    0    0 -0.16130490503E+02 -0.40148437156E+02  0.33961368660E+01  0.47787268721E+02  0.19999989408E+02 0.  0.
         12    1    1    2    0    0  0.16130490503E+02  0.40148437156E+02 -0.33961368660E+01  0.43400731279E+02  0.00000000000E+00 0. -1.
         11    1    3    3    0    0  0.24699709921E+01 -0.67266027811E+01  0.23694699469E+01  0.75473392508E+01  0.51100000000E-03 0. -1.
        -11    1    3    3    0    0 -0.96167668080E+01 -0.27790181825E+02  0.25961701133E+01  0.29521458454E+02  0.51100000000E-03 0.  1.
         12    1    3    3    0    0 -0.89836946866E+01 -0.56316525496E+01 -0.15695031942E+01  0.10718471017E+02  0.00000000000E+00 0. -1.
</event>
<event>
 7    1  0.2339217E-009  0.4778726E+02  0.7816164E-02  0.1312668E+00
        -11   -1    0    0    0    0  0.00000000000E+00  0.00000000000E+00  0.45593999997E+02  0.45594000000E+02  0.51100000000E-03 0.  1.
         11   -1    0    0    0    0 -0.00000000000E+00 -0.00000000000E+00 -0.45593999997E+02  0.45594000000E+02  0.51100000000E-03 0. -1.
    9900012    2    1    2    0    0 -0.30422982675E+02  0.26438144350E+02  0.16096294731E+02  0.47787262039E+02  0.19999958939E+02 0.  0.
         12    1    1    2    0    0  0.30422982675E+02 -0.26438144350E+02 -0.16096294731E+02  0.43400737961E+02  0.00000000000E+00 0. -1.
         11    1    3    3    0    0 -0.10498838623E+01  0.14829616386E+01  0.52724856025E+01  0.55767854572E+01  0.51100000000E-03 0. -1.
        -11    1    3    3    0    0 -0.59826182918E+01  0.15396836426E+00  0.46174916767E+01  0.75588793831E+01  0.51100000000E-03 0.  1.
        -12    1    3    3    0    0 -0.23390480521E+02  0.24801214347E+02  0.62063174516E+01  0.34651597198E+02  0.00000000000E+00 0.  1.
</event>
<event>
 7    1  0.2339217E-009  0.4778728E+02  0.7816164E-02  0.1312668E+00
        -11   -1    0    0    0    0  0.00000000000E+00  0.00000000000E+00  0.45593999997E+02  0.45594000000E+02  0.51100000000E-03 0.  1.
         11   -1    0    0    0    0 -0.00000000000E+00 -0.00000000000E+00 -0.45593999997E+02  0.45594000000E+02  0.51100000000E-03 0. -1.
    9900012    2    1    2    0    0  0.21049101406E+02 -0.12022570135E+02  0.36000221470E+02  0.47787276405E+02  0.20000024442E+02 0.  0.
         12    1    1    2    0    0 -0.21049101406E+02  0.12022570135E+02 -0.36000221470E+02  0.43400723595E+02  0.00000000000E+00 0. -1.
         11    1    3    3    0    0  0.45592339186E+01 -0.42514294120E+01  0.16048543622E+01  0.64371440682E+01  0.51100000000E-03 0. -1.
        -11    1    3    3    0    0  0.78169361622E+01 -0.31423376658E+01  0.38521619767E+01  0.92637966907E+01  0.51100000000E-03 0.  1.
        -12    1    3    3    0    0  0.86729313249E+01 -0.46288030567E+01  0.30543205132E+02  0.32086335646E+02  0.00000000000E+00 0.  1.
</event>
<event>
 7    1  0.2339217E-009  0.4778728E+02  0.7816164E-02  0.1312668E+00
        -11   -1    0    0    0    0  0.00000000000E+00  0.00000000000E+00  0.45593999997E+02  0.45594000000E+02  0.51100000000E-03 0.  1.
         11   -1    0    0    0    0 -0.00000000000E+00 -0.00000000000E+00 -0.45593999997E+02  0.45594000000E+02  0.51100000000E-03 0. -1.
    9900012    2    1    2    0    0 -0.98528358108E+01  0.13109645531E+02  0.40183097621E+02  0.47787279800E+02  0.20000039919E+02 0.  0.
         12    1    1    2    0    0  0.98528358108E+01 -0.13109645531E+02 -0.40183097621E+02  0.43400720200E+02  0.00000000000E+00 0. -1.
         11    1    3    3    0    0  0.40638281758E+01  0.56701886833E+01  0.15076341643E+02  0.16612098505E+02  0.51100000000E-03 0. -1.
        -11    1    3    3    0    0 -0.49966696412E+01  0.79264723083E+01  0.15002694983E+02  0.17688316137E+02  0.51100000000E-03 0.  1.
         12    1    3    3    0    0 -0.89199943454E+01 -0.48701546062E+00  0.10104060995E+02  0.13486865158E+02  0.00000000000E+00 0. -1.
</event>
<event>
 7    1  0.2339217E-009  0.4778727E+02  0.7816164E-02  0.1312668E+00
        -11   -1    0    0    0    0  0.00000000000E+00  0.00000000000E+00  0.45593999997E+02  0.45594000000E+02  0.51100000000E-03 0.  1.
         11   -1    0    0    0    0 -0.00000000000E+00 -0.00000000000E+00 -0.45593999997E+02  0.45594000000E+02  0.51100000000E-03 0. -1.
    9900012    2    1    2    0    0  0.21158019882E+02 -0.37618158325E+02 -0.45645929755E+01  0.47787272470E+02  0.20000006501E+02 0.  0.
         12    1    1    2    0    0 -0.21158019882E+02  0.37618158325E+02  0.45645929755E+01  0.43400727530E+02  0.00000000000E+00 0. -1.
         11    1    3    3    0    0  0.40843325186E-01  0.10046322051E+01  0.41386587039E+00  0.10873082656E+01  0.51100000000E-03 0.  1.
        -11    1    3    3    0    0  0.44410885206E+01 -0.25135255865E+01  0.32952799326E+01  0.60745327571E+01  0.51100000000E-03 0. -1.
         12    1    3    3    0    0  0.16676088036E+02 -0.36109264943E+02 -0.82737387785E+01  0.40625431448E+02  0.00000000000E+00 0. -1.
</event>
<event>
 7    1  0.2339217E-009  0.4778727E+02  0.7816164E-02  0.1312668E+00
        -11   -1    0    0    0    0  0.00000000000E+00  0.00000000000E+00  0.45593999997E+02  0.45594000000E+02  0.51100000000E-03 0.  1.
         11   -1    0    0    0    0 -0.00000000000E+00 -0.00000000000E+00 -0.45593999997E+02  0.45594000000E+02  0.51100000000E-03 0. -1.
    9900012    2    1    2    0    0  0.33731755951E+02  0.21913048480E+02 -0.16297548954E+02  0.47787272412E+02  0.20000006236E+02 0.  0.
         12    1    1    2    0    0 -0.33731755951E+02 -0.21913048480E+02  0.16297548954E+02  0.43400727588E+02  0.00000000000E+00 0. -1.
         11    1    3    3    0    0  0.14836452130E+02  0.14509113794E+01 -0.10689272779E+02  0.18343554957E+02  0.51100000000E-03 0. -1.
        -11    1    3    3    0    0  0.14916557511E+02  0.10798052242E+02 -0.28418960250E+01  0.18632712993E+02  0.51100000000E-03 0.  1.
        -12    1    3    3    0    0  0.39787463100E+01  0.96640848584E+01 -0.27663801503E+01  0.10811004462E+02  0.00000000000E+00 0.  1.
</event>
<event>
 7    1  0.2339217E-009  0.4778729E+02  0.7816164E-02  0.1312668E+00
        -11   -1    0    0    0    0  0.00000000000E+00  0.00000000000E+00  0.45593999997E+02  0.45594000000E+02  0.51100000000E-03 0.  1.
         11   -1    0    0    0    0 -0.00000000000E+00 -0.00000000000E+00 -0.45593999997E+02  0.45594000000E+02  0.51100000000E-03 0. -1.
    9900012    2    1    2    0    0 -0.77980805502E+01  0.12407815222E+02  0.40851654716E+02  0.47787289961E+02  0.20000086250E+02 0.  0.
         12    1    1    2    0    0  0.77980805502E+01 -0.12407815222E+02 -0.40851654716E+02  0.43400710039E+02  0.00000000000E+00 0. -1.
         11    1    3    3    0    0 -0.84993372440E+00 -0.27989692265E+01  0.61885216768E+01  0.68450286247E+01  0.51100000000E-03 0. -1.
        -11    1    3    3    0    0  0.37183487363E+01  0.20625702399E+01  0.36222862315E+01  0.55858098001E+01  0.51100000000E-03 0.  1.
        -12    1    3    3    0    0 -0.10666495562E+02  0.13144214209E+02  0.31040846807E+02  0.35356451537E+02  0.00000000000E+00 0.  1.
</event>
<event>
 7    1  0.2339217E-009  0.4778727E+02  0.7816164E-02  0.1312668E+00
        -11   -1    0    0    0    0  0.00000000000E+00  0.00000000000E+00  0.45593999997E+02  0.45594000000E+02  0.51100000000E-03 0. -1.
         11   -1    0    0    0    0 -0.00000000000E+00 -0.00000000000E+00 -0.45593999997E+02  0.45594000000E+02  0.51100000000E-03 0.  1.
    9900012    2    1    2    0    0 -0.15909470204E+02 -0.17191389722E+02 -0.36537215119E+02  0.47787271764E+02  0.20000003283E+02 0.  0.
         12    1    1    2    0    0  0.15909470204E+02  0.17191389722E+02  0.36537215119E+02  0.43400728236E+02  0.00000000000E+00 0. -1.
         11    1    3    3    0    0 -0.81165705182E+01 -0.20415167499E+01 -0.80483882432E+01  0.11611333308E+02  0.51100000000E-03 0. -1.
        -11    1    3    3    0    0 -0.46651160952E+01 -0.17669708114E+02 -0.23099448092E+02  0.29454480058E+02  0.51100000000E-03 0.  1.
         12    1    3    3    0    0 -0.31277835905E+01  0.25198351428E+01 -0.53893787833E+01  0.67214583987E+01  0.00000000000E+00 0. -1.
</event>
<event>
 7    1  0.2339217E-009  0.4778728E+02  0.7816164E-02  0.1312668E+00
        -11   -1    0    0    0    0  0.00000000000E+00  0.00000000000E+00  0.45593999997E+02  0.45594000000E+02  0.51100000000E-03 0.  1.
         11   -1    0    0    0    0 -0.00000000000E+00 -0.00000000000E+00 -0.45593999997E+02  0.45594000000E+02  0.51100000000E-03 0. -1.
    9900012    2    1    2    0    0  0.94814928565E+01  0.23366442757E+01  0.42287873940E+02  0.47787275402E+02  0.20000019870E+02 0.  0.
         12    1    1    2    0    0 -0.94814928565E+01 -0.23366442757E+01 -0.42287873940E+02  0.43400724598E+02  0.00000000000E+00 0. -1.
         11    1    3    3    0    0  0.23228413732E+01 -0.58324126144E+01  0.13735142745E+02  0.15101879864E+02  0.51100000000E-03 0. -1.
        -11    1    3    3    0    0 -0.11941875008E+01 -0.13728288106E+01  0.10301592952E+02  0.10461049677E+02  0.51100000000E-03 0.  1.
        -12    1    3    3    0    0  0.83528389841E+01  0.95418857007E+01  0.18251138243E+02  0.22224345862E+02  0.00000000000E+00 0.  1.
</event>
<event>
 7    1  0.2339217E-009  0.4778727E+02  0.7816164E-02  0.1312668E+00
        -11   -1    0    0    0    0  0.00000000000E+00  0.00000000000E+00  0.45593999997E+02  0.45594000000E+02  0.51100000000E-03 0.  1.
         11   -1    0    0    0    0 -0.00000000000E+00 -0.00000000000E+00 -0.45593999997E+02  0.45594000000E+02  0.51100000000E-03 0. -1.
    9900012    2    1    2    0    0  0.11916441242E+02  0.11987552058E+02  0.39973992125E+02  0.47787273939E+02  0.20000013196E+02 0.  0.
         12    1    1    2    0    0 -0.11916441242E+02 -0.11987552058E+02 -0.39973992125E+02  0.43400726061E+02  0.00000000000E+00 0. -1.
         11    1    3    3    0    0 -0.21121794528E+01  0.53869330607E+00 -0.22856479308E-02  0.21797931104E+01  0.51100000000E-03 0. -1.
        -11    1    3    3    0    0  0.73914767589E+01  0.75678562030E+01  0.96401212878E+01  0.14312173661E+02  0.51100000000E-03 0.  1.
         12    1    3    3    0    0  0.66371439359E+01  0.38810025487E+01  0.30336156486E+02  0.31295307168E+02  0.00000000000E+00 0. -1.
</event>
<event>
 7    1  0.2339217E-009  0.4778727E+02  0.7816164E-02  0.1312668E+00
        -11   -1    0    0    0    0  0.00000000000E+00  0.00000000000E+00  0.45593999997E+02  0.45594000000E+02  0.51100000000E-03 0.  1.
         11   -1    0    0    0    0 -0.00000000000E+00 -0.00000000000E+00 -0.45593999997E+02  0.45594000000E+02  0.51100000000E-03 0. -1.
    9900012    2    1    2    0    0  0.40861356654E+02 -0.92171597595E+01  0.11358572734E+02  0.47787266409E+02  0.19999978866E+02 0.  0.
         12    1    1    2    0    0 -0.40861356654E+02  0.92171597595E+01 -0.11358572734E+02  0.43400733591E+02  0.00000000000E+00 0. -1.
         11    1    3    3    0    0  0.10324484814E+02 -0.90827838222E+00  0.35543580991E+01  0.10956889069E+02  0.51100000000E-03 0. -1.
        -11    1    3    3    0    0  0.20582884226E+02 -0.27578136844E+01  0.12790984169E+02  0.24389955630E+02  0.51100000000E-03 0.  1.
         12    1    3    3    0    0  0.99539876139E+01 -0.55510676929E+01 -0.49867695339E+01  0.12440421710E+02  0.00000000000E+00 0. -1.
</event>
<event>
 7    1  0.2339217E-009  0.4778727E+02  0.7816164E-02  0.1312668E+00
        -11   -1    0    0    0    0  0.00000000000E+00  0.00000000000E+00  0.45593999997E+02  0.45594000000E+02  0.51100000000E-03 0. -1.
         11   -1    0    0    0    0 -0.00000000000E+00 -0.00000000000E+00 -0.45593999997E+02  0.45594000000E+02  0.51100000000E-03 0.  1.
    9900012    2    1    2    0    0  0.19435819948E+02  0.18126342633E+02 -0.34311918156E+02  0.47787272796E+02  0.20000007986E+02 0.  0.
         12    1    1    2    0    0 -0.19435819948E+02 -0.18126342633E+02  0.34311918156E+02  0.43400727204E+02  0.00000000000E+00 0. -1.
         11    1    3    3    0    0  0.49129031204E+01  0.93142378497E+01 -0.36602894081E+01  0.11148513919E+02  0.51100000000E-03 0. -1.
        -11    1    3    3    0    0  0.25886035763E+01 -0.12698134370E+01 -0.87593087227E+00  0.30133950611E+01  0.51100000000E-03 0.  1.
        -12    1    3    3    0    0  0.11934313251E+02  0.10081918221E+02 -0.29775697875E+02  0.33625363816E+02  0.00000000000E+00 0.  1.
</event>
<event>
 7    1  0.2339217E-009  0.4778727E+02  0.7816164E-02  0.1312668E+00
        -11   -1    0    0    0    0  0.00000000000E+00  0.00000000000E+00  0.45593999997E+02  0.45594000000E+02  0.51100000000E-03 0.  1.
         11   -1    0    0    0    0 -0.00000000000E+00 -0.00000000000E+00 -0.45593999997E+02  0.45594000000E+02  0.51100000000E-03 0. -1.
    9900012    2    1    2    0    0 -0.74640839879E+01 -0.37303498176E+02  0.20889232557E+02  0.47787267716E+02  0.19999984824E+02 0.  0.
         12    1    1    2    0    0  0.74640839879E+01  0.37303498176E+02 -0.20889232557E+02  0.43400732284E+02  0.00000000000E+00 0. -1.
         11    1    3    3    0    0 -0.62800844447E+00 -0.17230426369E+01 -0.50838832783E+00  0.19030842041E+01  0.51100000000E-03 0. -1.
        -11    1    3    3    0    0 -0.35843568448E+01 -0.28509155403E+02  0.24245841391E+02  0.37596281476E+02  0.51100000000E-03 0.  1.
        -12    1    3    3    0    0 -0.32517186986E+01 -0.70713001360E+01 -0.28482205060E+01  0.82879020360E+01  0.00000000000E+00 0.  1.
</event>
<event>
 7    1  0.2339217E-009  0.4778727E+02  0.7816164E-02  0.1312668E+00
        -11   -1    0    0    0    0  0.00000000000E+00  0.00000000000E+00  0.45593999997E+02  0.45594000000E+02  0.51100000000E-03 0.  1.
         11   -1    0    0    0    0 -0.00000000000E+00 -0.00000000000E+00 -0.45593999997E+02  0.45594000000E+02  0.51100000000E-03 0. -1.
    9900012    2    1    2    0    0 -0.35731629225E+02  0.97841813549E+01  0.22608481133E+02  0.47787274764E+02  0.20000016959E+02 0.  0.
         12    1    1    2    0    0  0.35731629225E+02 -0.97841813549E+01 -0.22608481133E+02  0.43400725236E+02  0.00000000000E+00 0. -1.
         11    1    3    3    0    0 -0.56106480392E+01  0.79730677728E+00 -0.26405940479E+01  0.62520242085E+01  0.51100000000E-03 0. -1.
        -11    1    3    3    0    0 -0.35964391137E+01 -0.94194610219E+00  0.67527900021E+01  0.77085543283E+01  0.51100000000E-03 0.  1.
         12    1    3    3    0    0 -0.26524542072E+02  0.99288206798E+01  0.18496285179E+02  0.33826696227E+02  0.00000000000E+00 0. -1.
</event>
<event>
 7    1  0.2339217E-009  0.4778727E+02  0.7816164E-02  0.1312668E+00
        -11   -1    0    0    0    0  0.00000000000E+00  0.00000000000E+00  0.45593999997E+02  0.45594000000E+02  0.51100000000E-03 0.  1.
         11   -1    0    0    0    0 -0.00000000000E+00 -0.00000000000E+00 -0.45593999997E+02  0.45594000000E+02  0.51100000000E-03 0. -1.
    9900012    2    1    2    0    0 -0.20074948984E+02  0.27865891806E+02  0.26535105127E+02  0.47787270663E+02  0.19999998261E+02 0.  0.
         12    1    1    2    0    0  0.20074948984E+02 -0.27865891806E+02 -0.26535105127E+02  0.43400729337E+02  0.00000000000E+00 0. -1.
         11    1    3    3    0    0 -0.13285454139E+01 -0.25890275609E+01 -0.19721399201E+00  0.29166745186E+01  0.51100000000E-03 0. -1.
        -11    1    3    3    0    0 -0.33961892949E+01  0.83610405417E+01  0.82820024010E+01  0.12248782172E+02  0.51100000000E-03 0.  1.
         12    1    3    3    0    0 -0.15350214275E+02  0.22093878825E+02  0.18450316718E+02  0.32621813972E+02  0.00000000000E+00 0. -1.
</event>
<event>
 7    1  0.2339217E-009  0.4778727E+02  0.7816164E-02  0.1312668E+00
        -11   -1    0    0    0    0  0.00000000000E+00  0.00000000000E+00  0.45593999997E+02  0.45594000000E+02  0.51100000000E-03 0.  1.
         11   -1    0    0    0    0 -0.00000000000E+00 -0.00000000000E+00 -0.45593999997E+02  0.45594000000E+02  0.51100000000E-03 0. -1.
    9900012    2    1    2    0    0 -0.23578521105E+02 -0.32613184819E+02  0.16249824386E+02  0.47787271042E+02  0.19999999989E+02 0.  0.
         12    1    1    2    0    0  0.23578521105E+02  0.32613184819E+02 -0.16249824386E+02  0.43400728958E+02  0.00000000000E+00 0. -1.
         11    1    3    3    0    0 -0.64230849536E+01 -0.28701917916E+01  0.76074240433E+01  0.10361801102E+02  0.51100000000E-03 0. -1.
        -11    1    3    3    0    0 -0.10551067492E+02 -0.85837826855E+01  0.67343321706E+01  0.15177535388E+02  0.51100000000E-03 0.  1.
         12    1    3    3    0    0 -0.66043686588E+01 -0.21159210342E+02  0.19080681724E+01  0.22247934552E+02  0.00000000000E+00 0. -1.
</event>
<event>
 7    1  0.2339217E-009  0.4778727E+02  0.7816164E-02  0.1312668E+00
        -11   -1    0    0    0    0  0.00000000000E+00  0.00000000000E+00  0.45593999997E+02  0.45594000000E+02  0.51100000000E-03 0.  1.
         11   -1    0    0    0    0 -0.00000000000E+00 -0.00000000000E+00 -0.45593999997E+02  0.45594000000E+02  0.51100000000E-03 0. -1.
    9900012    2    1    2    0    0 -0.27148792635E+01 -0.22047001503E+02  0.37285154132E+02  0.47787267709E+02  0.19999984793E+02 0.  0.
         12    1    1    2    0    0  0.27148792635E+01  0.22047001503E+02 -0.37285154132E+02  0.43400732291E+02  0.00000000000E+00 0. -1.
         11    1    3    3    0    0  0.42489266340E+00 -0.47580317103E+01  0.18815168568E+02  0.19412108799E+02  0.51100000000E-03 0. -1.
        -11    1    3    3    0    0  0.36587865375E+01 -0.89123851034E+01  0.13271487049E+02  0.16399685848E+02  0.51100000000E-03 0.  1.
         12    1    3    3    0    0 -0.67985584644E+01 -0.83765846894E+01  0.51984985164E+01  0.11975473063E+02  0.00000000000E+00 0. -1.
</event>
<event>
 7    1  0.2339217E-009  0.4778727E+02  0.7816164E-02  0.1312668E+00
        -11   -1    0    0    0    0  0.00000000000E+00  0.00000000000E+00  0.45593999997E+02  0.45594000000E+02  0.51100000000E-03 0.  1.
         11   -1    0    0    0    0 -0.00000000000E+00 -0.00000000000E+00 -0.45593999997E+02  0.45594000000E+02  0.51100000000E-03 0. -1.
    9900012    2    1    2    0    0 -0.11736540277E+02 -0.22019975055E+02  0.35510532087E+02  0.47787267653E+02  0.19999984539E+02 0.  0.
         12    1    1    2    0    0  0.11736540277E+02  0.22019975055E+02 -0.35510532087E+02  0.43400732347E+02  0.00000000000E+00 0. -1.
         11    1    3    3    0    0 -0.65291656194E+01 -0.44339726857E+01  0.12478535076E+02  0.14764957005E+02  0.51100000000E-03 0. -1.
        -11    1    3    3    0    0 -0.51331597821E+01 -0.13890707131E+02  0.24831089574E+02  0.28911659994E+02  0.51100000000E-03 0.  1.
         12    1    3    3    0    0 -0.74214875752E-01 -0.36952952384E+01 -0.17990925628E+01  0.41106506536E+01  0.00000000000E+00 0. -1.
</event>
<event>
 7    1  0.2339217E-009  0.4778727E+02  0.7816164E-02  0.1312668E+00
        -11   -1    0    0    0    0  0.00000000000E+00  0.00000000000E+00  0.45593999997E+02  0.45594000000E+02  0.51100000000E-03 0.  1.
         11   -1    0    0    0    0 -0.00000000000E+00 -0.00000000000E+00 -0.45593999997E+02  0.45594000000E+02  0.51100000000E-03 0. -1.
    9900012    2    1    2    0    0  0.27687339757E+02  0.26870478432E+02  0.19874911664E+02  0.47787268352E+02  0.19999987723E+02 0.  0.
         12    1    1    2    0    0 -0.27687339757E+02 -0.26870478432E+02 -0.19874911664E+02  0.43400731648E+02  0.00000000000E+00 0. -1.
         11    1    3    3    0    0  0.68737049124E+01  0.25218881276E+01 -0.15579718024E+01  0.74856539694E+01  0.51100000000E-03 0.  1.
        -11    1    3    3    0    0  0.28157567288E+01  0.10607260795E+01  0.67929037853E+01  0.74294796500E+01  0.51100000000E-03 0. -1.
        -12    1    3    3    0    0  0.17997878116E+02  0.23287864224E+02  0.14639979681E+02  0.32872134732E+02  0.00000000000E+00 0.  1.
</event>
<event>
 7    1  0.2339217E-009  0.4778727E+02  0.7816164E-02  0.1312668E+00
        -11   -1    0    0    0    0  0.00000000000E+00  0.00000000000E+00  0.45593999997E+02  0.45594000000E+02  0.51100000000E-03 0.  1.
         11   -1    0    0    0    0 -0.00000000000E+00 -0.00000000000E+00 -0.45593999997E+02  0.45594000000E+02  0.51100000000E-03 0. -1.
    9900012    2    1    2    0    0  0.57565472642E+01  0.32845712933E+02  0.27778488220E+02  0.47787273021E+02  0.20000009012E+02 0.  0.
         12    1    1    2    0    0 -0.57565472642E+01 -0.32845712933E+02 -0.27778488220E+02  0.43400726979E+02  0.00000000000E+00 0. -1.
         11    1    3    3    0    0 -0.20754871797E+01  0.75077477528E+01  0.17615254974E+01  0.79860438073E+01  0.51100000000E-03 0. -1.
        -11    1    3    3    0    0 -0.25904665972E+01  0.15672250670E+02  0.14474628995E+02  0.21490575680E+02  0.51100000000E-03 0.  1.
        -12    1    3    3    0    0  0.10422501041E+02  0.96657145104E+01  0.11542333728E+02  0.18310653534E+02  0.00000000000E+00 0.  1.
</event>
<event>
 7    1  0.2339217E-009  0.4778727E+02  0.7816164E-02  0.1312668E+00
        -11   -1    0    0    0    0  0.00000000000E+00  0.00000000000E+00  0.45593999997E+02  0.45594000000E+02  0.51100000000E-03 0.  1.
         11   -1    0    0    0    0 -0.00000000000E+00 -0.00000000000E+00 -0.45593999997E+02  0.45594000000E+02  0.51100000000E-03 0. -1.
    9900012    2    1    2    0    0  0.30602371278E+02  0.76877062814E+01 -0.29799614146E+02  0.47787274672E+02  0.20000016540E+02 0.  0.
         12    1    1    2    0    0 -0.30602371278E+02 -0.76877062814E+01  0.29799614146E+02  0.43400725328E+02  0.00000000000E+00 0. -1.
         11    1    3    3    0    0  0.12098324576E+02  0.12990988675E+02 -0.13457558840E+02  0.22276470423E+02  0.51100000000E-03 0. -1.
        -11    1    3    3    0    0  0.32005684472E+01 -0.12330725089E+01 -0.12943756460E+01  0.36659943769E+01  0.51100000000E-03 0.  1.
         12    1    3    3    0    0  0.15303478255E+02 -0.40702098849E+01 -0.15047679660E+02  0.21844809872E+02  0.00000000000E+00 0. -1.
</event>
<event>
 7    1  0.2339217E-009  0.4778727E+02  0.7816164E-02  0.1312668E+00
        -11   -1    0    0    0    0  0.00000000000E+00  0.00000000000E+00  0.45593999997E+02  0.45594000000E+02  0.51100000000E-03 0.  1.
         11   -1    0    0    0    0 -0.00000000000E+00 -0.00000000000E+00 -0.45593999997E+02  0.45594000000E+02  0.51100000000E-03 0. -1.
    9900012    2    1    2    0    0 -0.16964821163E+02 -0.33674088813E+02  0.21491249125E+02  0.47787271856E+02  0.20000003701E+02 0.  0.
         12    1    1    2    0    0  0.16964821163E+02  0.33674088813E+02 -0.21491249125E+02  0.43400728144E+02  0.00000000000E+00 0. -1.
         11    1    3    3    0    0 -0.51061251446E+01 -0.38990947391E+00  0.13151806632E+01  0.52871773025E+01  0.51100000000E-03 0. -1.
        -11    1    3    3    0    0 -0.91338887440E+01 -0.14005621821E+02  0.14727482756E+02  0.22281923498E+02  0.51100000000E-03 0.  1.
         12    1    3    3    0    0 -0.27248072743E+01 -0.19278557518E+02  0.54485857065E+01  0.20218171056E+02  0.00000000000E+00 0. -1.
</event>
<event>
 7    1  0.2339217E-009  0.4778727E+02  0.7816164E-02  0.1312668E+00
        -11   -1    0    0    0    0  0.00000000000E+00  0.00000000000E+00  0.45593999997E+02  0.45594000000E+02  0.51100000000E-03 0.  1.
         11   -1    0    0    0    0 -0.00000000000E+00 -0.00000000000E+00 -0.45593999997E+02  0.45594000000E+02  0.51100000000E-03 0. -1.
    9900012    2    1    2    0    0  0.29204119320E+02 -0.30915238818E+02 -0.86597338199E+01  0.47787267676E+02  0.19999984642E+02 0.  0.
         12    1    1    2    0    0 -0.29204119320E+02  0.30915238818E+02  0.86597338199E+01  0.43400732324E+02  0.00000000000E+00 0. -1.
         11    1    3    3    0    0  0.15760461069E+02 -0.17211374067E+02 -0.36968754300E+01  0.23628170022E+02  0.51100000000E-03 0. -1.
        -11    1    3    3    0    0  0.10836830554E+02 -0.78004934022E+01  0.32225964906E+01  0.13735709744E+02  0.51100000000E-03 0.  1.
         12    1    3    3    0    0  0.26068276971E+01 -0.59033713484E+01 -0.81854548804E+01  0.10423387910E+02  0.00000000000E+00 0. -1.
</event>
<event>
 7    1  0.2339217E-009  0.4778728E+02  0.7816164E-02  0.1312668E+00
        -11   -1    0    0    0    0  0.00000000000E+00  0.00000000000E+00  0.45593999997E+02  0.45594000000E+02  0.51100000000E-03 0.  1.
         11   -1    0    0    0    0 -0.00000000000E+00 -0.00000000000E+00 -0.45593999997E+02  0.45594000000E+02  0.51100000000E-03 0. -1.
    9900012    2    1    2    0    0  0.38438986732E+01  0.10141770862E+02  0.42023703549E+02  0.47787277273E+02  0.20000028399E+02 0.  0.
         12    1    1    2    0    0 -0.38438986732E+01 -0.10141770862E+02 -0.42023703549E+02  0.43400722727E+02  0.00000000000E+00 0. -1.
         11    1    3    3    0    0  0.29438606274E+01 -0.10895027328E+01  0.63606342645E+01  0.70930247502E+01  0.51100000000E-03 0.  1.
        -11    1    3    3    0    0  0.10425041936E+01 -0.35074123658E+01  0.14155734909E+02  0.14620998172E+02  0.51100000000E-03 0. -1.
        -12    1    3    3    0    0 -0.14246614785E+00  0.14738685961E+02  0.21507334376E+02  0.26073254350E+02  0.00000000000E+00 0.  1.
</event>
<event>
 7    1  0.2339217E-009  0.4778731E+02  0.7816164E-02  0.1312668E+00
        -11   -1    0    0    0    0  0.00000000000E+00  0.00000000000E+00  0.45593999997E+02  0.45594000000E+02  0.51100000000E-03 0.  1.
         11   -1    0    0    0    0 -0.00000000000E+00 -0.00000000000E+00 -0.45593999997E+02  0.45594000000E+02  0.51100000000E-03 0. -1.
    9900012    2    1    2    0    0 -0.21931769726E+02 -0.14262672374E+02  0.34629373435E+02  0.47787310477E+02  0.20000179788E+02 0.  0.
         12    1    1    2    0    0  0.21931769726E+02  0.14262672374E+02 -0.34629373435E+02  0.43400689523E+02  0.00000000000E+00 0. -1.
         11    1    3    3    0    0 -0.53045723058E+01 -0.20215170442E+01  0.66627818240E+00  0.57156754093E+01  0.51100000000E-03 0. -1.
        -11    1    3    3    0    0  0.22631627310E+01 -0.20431458332E+01  0.67797903547E+01  0.74338353464E+01  0.51100000000E-03 0.  1.
         12    1    3    3    0    0 -0.18890360151E+02 -0.10198009497E+02  0.27183304898E+02  0.34637799721E+02  0.00000000000E+00 0. -1.
</event>
<event>
 7    1  0.2339217E-009  0.4778727E+02  0.7816164E-02  0.1312668E+00
        -11   -1    0    0    0    0  0.00000000000E+00  0.00000000000E+00  0.45593999997E+02  0.45594000000E+02  0.51100000000E-03 0.  1.
         11   -1    0    0    0    0 -0.00000000000E+00 -0.00000000000E+00 -0.45593999997E+02  0.45594000000E+02  0.51100000000E-03 0. -1.
    9900012    2    1    2    0    0 -0.27100097717E+02  0.16676478179E+02  0.29514450640E+02  0.47787274000E+02  0.20000013475E+02 0.  0.
         12    1    1    2    0    0  0.27100097717E+02 -0.16676478179E+02 -0.29514450640E+02  0.43400726000E+02  0.00000000000E+00 0. -1.
         11    1    3    3    0    0 -0.65553552308E+01  0.29484839482E+00  0.11685865155E+02  0.13402203642E+02  0.51100000000E-03 0. -1.
        -11    1    3    3    0    0 -0.12478748573E+02  0.86916086024E+01  0.17570682051E+02  0.23237729968E+02  0.51100000000E-03 0.  1.
         12    1    3    3    0    0 -0.80659939139E+01  0.76900211822E+01  0.25790343417E+00  0.11147340391E+02  0.00000000000E+00 0. -1.
</event>
<event>
 7    1  0.2339217E-009  0.4778727E+02  0.7816164E-02  0.1312668E+00
        -11   -1    0    0    0    0  0.00000000000E+00  0.00000000000E+00  0.45593999997E+02  0.45594000000E+02  0.51100000000E-03 0.  1.
         11   -1    0    0    0    0 -0.00000000000E+00 -0.00000000000E+00 -0.45593999997E+02  0.45594000000E+02  0.51100000000E-03 0. -1.
    9900012    2    1    2    0    0 -0.23543940852E+02 -0.32427529207E+02  0.16666171211E+02  0.47787273460E+02  0.20000011015E+02 0.  0.
         12    1    1    2    0    0  0.23543940852E+02  0.32427529207E+02 -0.16666171211E+02  0.43400726540E+02  0.00000000000E+00 0. -1.
         11    1    3    3    0    0 -0.98979497882E+01 -0.13933628434E+02  0.84861280258E+01  0.19082184898E+02  0.51100000000E-03 0. -1.
        -11    1    3    3    0    0 -0.10552306388E+02 -0.20502964641E+01  0.38892460861E+01  0.11431584364E+02  0.51100000000E-03 0.  1.
         12    1    3    3    0    0 -0.30936846759E+01 -0.16443604309E+02  0.42907970993E+01  0.17273504198E+02  0.00000000000E+00 0. -1.
</event>
<event>
 7    1  0.2339217E-009  0.4778729E+02  0.7816164E-02  0.1312668E+00
        -11   -1    0    0    0    0  0.00000000000E+00  0.00000000000E+00  0.45593999997E+02  0.45594000000E+02  0.51100000000E-03 0. -1.
         11   -1    0    0    0    0 -0.00000000000E+00 -0.00000000000E+00 -0.45593999997E+02  0.45594000000E+02  0.51100000000E-03 0.  1.
    9900012    2    1    2    0    0  0.38988809525E+02 -0.18722884653E+02 -0.35983393587E+01  0.47787288900E+02  0.20000081409E+02 0.  0.
         12    1    1    2    0    0 -0.38988809525E+02  0.18722884653E+02  0.35983393587E+01  0.43400711100E+02  0.00000000000E+00 0. -1.
         11    1    3    3    0    0  0.49402703653E+01 -0.45540910399E+01  0.65524895581E+01  0.93851550947E+01  0.51100000000E-03 0. -1.
        -11    1    3    3    0    0  0.11015481882E+02 -0.28812980637E+01 -0.31503913248E+01  0.11813876815E+02  0.51100000000E-03 0.  1.
         12    1    3    3    0    0  0.23033057277E+02 -0.11287495549E+02 -0.70004375919E+01  0.26588256990E+02  0.00000000000E+00 0. -1.
</event>
<event>
 7    1 -0.2339217E-009  0.4778727E+02  0.7816164E-02  0.1312668E+00
        -11   -1    0    0    0    0  0.00000000000E+00  0.00000000000E+00  0.45593999997E+02  0.45594000000E+02  0.51100000000E-03 0. -1.
         11   -1    0    0    0    0 -0.00000000000E+00 -0.00000000000E+00 -0.45593999997E+02  0.45594000000E+02  0.51100000000E-03 0.  1.
    9900012    2    1    2    0    0  0.74489320847E+01  0.41261252650E+02 -0.11209186178E+02  0.47787269428E+02  0.19999992628E+02 0.  0.
         12    1    1    2    0    0 -0.74489320847E+01 -0.41261252650E+02  0.11209186178E+02  0.43400730572E+02  0.00000000000E+00 0. -1.
         11    1    3    3    0    0  0.46417650126E+00  0.15503496347E+02 -0.11667371340E+01  0.15554264194E+02  0.51100000000E-03 0. -1.
        -11    1    3    3    0    0 -0.38915604783E+01  0.56579312049E+01 -0.58001350357E+01  0.89887705038E+01  0.51100000000E-03 0.  1.
        -12    1    3    3    0    0  0.10876316062E+02  0.20099825098E+02 -0.42423140084E+01  0.23244234730E+02  0.00000000000E+00 0.  1.
</event>
<event>
 7    1  0.2339217E-009  0.4778727E+02  0.7816164E-02  0.1312668E+00
        -11   -1    0    0    0    0  0.00000000000E+00  0.00000000000E+00  0.45593999997E+02  0.45594000000E+02  0.51100000000E-03 0.  1.
         11   -1    0    0    0    0 -0.00000000000E+00 -0.00000000000E+00 -0.45593999997E+02  0.45594000000E+02  0.51100000000E-03 0. -1.
    9900012    2    1    2    0    0  0.30355578137E+02 -0.18082288110E+02  0.25203037127E+02  0.47787270193E+02  0.19999996119E+02 0.  0.
         12    1    1    2    0    0 -0.30355578137E+02  0.18082288110E+02 -0.25203037127E+02  0.43400729807E+02  0.00000000000E+00 0. -1.
         11    1    3    3    0    0 -0.22163204206E+01 -0.22427113163E+01  0.50456071412E+01  0.59497883945E+01  0.51100000000E-03 0. -1.
        -11    1    3    3    0    0  0.57638962050E+01 -0.52515558627E+01  0.34982628294E+01  0.85462963631E+01  0.51100000000E-03 0.  1.
        -12    1    3    3    0    0  0.26808002352E+02 -0.10588020931E+02  0.16659167157E+02  0.33291185436E+02  0.00000000000E+00 0.  1.
</event>
<event>
 7    1  0.2339217E-009  0.4778727E+02  0.7816164E-02  0.1312668E+00
        -11   -1    0    0    0    0  0.00000000000E+00  0.00000000000E+00  0.45593999997E+02  0.45594000000E+02  0.51100000000E-03 0.  1.
         11   -1    0    0    0    0 -0.00000000000E+00 -0.00000000000E+00 -0.45593999997E+02  0.45594000000E+02  0.51100000000E-03 0. -1.
    9900012    2    1    2    0    0  0.32211024416E+01  0.19869692340E+02  0.38450524039E+02  0.47787274505E+02  0.20000015777E+02 0.  0.
         12    1    1    2    0    0 -0.32211024416E+01 -0.19869692340E+02 -0.38450524039E+02  0.43400725495E+02  0.00000000000E+00 0. -1.
         11    1    3    3    0    0  0.30448248653E+00 -0.28419538524E+01  0.26126211532E+01  0.38723637271E+01  0.51100000000E-03 0. -1.
        -11    1    3    3    0    0 -0.10206015702E+01 -0.92617068566E+00  0.14446042502E+01  0.19965724141E+01  0.51100000000E-03 0.  1.
        -12    1    3    3    0    0  0.39372215253E+01  0.23637816879E+02  0.34393298635E+02  0.41918338363E+02  0.00000000000E+00 0.  1.
</event>
<event>
 7    1  0.2339217E-009  0.4778727E+02  0.7816164E-02  0.1312668E+00
        -11   -1    0    0    0    0  0.00000000000E+00  0.00000000000E+00  0.45593999997E+02  0.45594000000E+02  0.51100000000E-03 0.  1.
         11   -1    0    0    0    0 -0.00000000000E+00 -0.00000000000E+00 -0.45593999997E+02  0.45594000000E+02  0.51100000000E-03 0. -1.
    9900012    2    1    2    0    0 -0.44758689652E+01  0.39003607053E+01  0.42992754375E+02  0.47787272524E+02  0.20000006748E+02 0.  0.
         12    1    1    2    0    0  0.44758689652E+01 -0.39003607053E+01 -0.42992754375E+02  0.43400727476E+02  0.00000000000E+00 0. -1.
         11    1    3    3    0    0  0.50228881982E+00 -0.30870106663E+01  0.44694537906E+01  0.54550844502E+01  0.51100000000E-03 0. -1.
        -11    1    3    3    0    0 -0.55661184566E+00  0.26051206381E+01  0.35151721358E+02  0.35252517427E+02  0.51100000000E-03 0.  1.
         12    1    3    3    0    0 -0.44215459394E+01  0.43822507334E+01  0.33715792270E+01  0.70796706469E+01  0.00000000000E+00 0. -1.
</event>
<event>
 7    1  0.2339217E-009  0.4778727E+02  0.7816164E-02  0.1312668E+00
        -11   -1    0    0    0    0  0.00000000000E+00  0.00000000000E+00  0.45593999997E+02  0.45594000000E+02  0.51100000000E-03 0.  1.
         11   -1    0    0    0    0 -0.00000000000E+00 -0.00000000000E+00 -0.45593999997E+02  0.45594000000E+02  0.51100000000E-03 0. -1.
    9900012    2    1    2    0    0  0.96524993276E+01 -0.24817116387E+02  0.34271904397E+02  0.47787269130E+02  0.19999991271E+02 0.  0.
         12    1    1    2    0    0 -0.96524993276E+01  0.24817116387E+02 -0.34271904397E+02  0.43400730870E+02  0.00000000000E+00 0. -1.
         11    1    3    3    0    0 -0.64277946286E+00  0.16649193945E+01  0.41594080898E+01  0.45261239429E+01  0.51100000000E-03 0. -1.
        -11    1    3    3    0    0  0.28267226014E+00 -0.10846275882E+02  0.47877198609E+01  0.11859336653E+02  0.51100000000E-03 0.  1.
        -12    1    3    3    0    0  0.10012606530E+02 -0.15635759899E+02  0.25324776447E+02  0.31401808534E+02  0.00000000000E+00 0.  1.
</event>
<event>
 7    1  0.2339217E-009  0.4778727E+02  0.7816164E-02  0.1312668E+00
        -11   -1    0    0    0    0  0.00000000000E+00  0.00000000000E+00  0.45593999997E+02  0.45594000000E+02  0.51100000000E-03 0.  1.
         11   -1    0    0    0    0 -0.00000000000E+00 -0.00000000000E+00 -0.45593999997E+02  0.45594000000E+02  0.51100000000E-03 0. -1.
    9900012    2    1    2    0    0 -0.42489171441E+02 -0.46222197903E+01  0.75451148473E+01  0.47787270011E+02  0.19999995289E+02 0.  0.
         12    1    1    2    0    0  0.42489171441E+02  0.46222197903E+01 -0.75451148473E+01  0.43400729989E+02  0.00000000000E+00 0. -1.
         11    1    3    3    0    0  0.28990078610E+00  0.12068081782E+01  0.19417414758E+01  0.23045148437E+01  0.51100000000E-03 0. -1.
        -11    1    3    3    0    0 -0.21440040618E+02 -0.69745567684E+01  0.81237746620E+01  0.23964880531E+02  0.51100000000E-03 0.  1.
         12    1    3    3    0    0 -0.21339031609E+02  0.11455287999E+01 -0.25204012905E+01  0.21517874637E+02  0.00000000000E+00 0. -1.
</event>
<event>
 7    1  0.2339217E-009  0.4778727E+02  0.7816164E-02  0.1312668E+00
        -11   -1    0    0    0    0  0.00000000000E+00  0.00000000000E+00  0.45593999997E+02  0.45594000000E+02  0.51100000000E-03 0.  1.
         11   -1    0    0    0    0 -0.00000000000E+00 -0.00000000000E+00 -0.45593999997E+02  0.45594000000E+02  0.51100000000E-03 0. -1.
    9900012    2    1    2    0    0 -0.28834872793E+02 -0.51309092025E+01  0.32028854076E+02  0.47787267153E+02  0.19999982257E+02 0.  0.
         12    1    1    2    0    0  0.28834872793E+02  0.51309092025E+01 -0.32028854076E+02  0.43400732847E+02  0.00000000000E+00 0. -1.
         11    1    3    3    0    0 -0.10625726242E+02 -0.92130513701E+01  0.13906913751E+02  0.19778488923E+02  0.51100000000E-03 0. -1.
        -11    1    3    3    0    0 -0.39733909644E+00  0.33497952614E+01  0.42175193665E+01  0.54005996443E+01  0.51100000000E-03 0.  1.
        -12    1    3    3    0    0 -0.17811807454E+02  0.73234690622E+00  0.13904420959E+02  0.22608178586E+02  0.00000000000E+00 0.  1.
</event>
<event>
 7    1  0.2339217E-009  0.4778726E+02  0.7816164E-02  0.1312668E+00
        -11   -1    0    0    0    0  0.00000000000E+00  0.00000000000E+00  0.45593999997E+02  0.45594000000E+02  0.51100000000E-03 0.  1.
         11   -1    0    0    0    0 -0.00000000000E+00 -0.00000000000E+00 -0.45593999997E+02  0.45594000000E+02  0.51100000000E-03 0. -1.
    9900012    2    1    2    0    0  0.20478757781E+02 -0.92462642634E+01  0.37131538944E+02  0.47787261442E+02  0.19999956218E+02 0.  0.
         12    1    1    2    0    0 -0.20478757781E+02  0.92462642634E+01 -0.37131538944E+02  0.43400738558E+02  0.00000000000E+00 0. -1.
         11    1    3    3    0    0  0.11710652285E+02 -0.64235015796E+01  0.17341461852E+02  0.21888970942E+02  0.51100000000E-03 0. -1.
        -11    1    3    3    0    0  0.65021079034E+01 -0.88205269215E+00  0.72546582494E+00  0.66016456330E+01  0.51100000000E-03 0.  1.
        -12    1    3    3    0    0  0.22659975922E+01 -0.19407099917E+01  0.19064611266E+02  0.19296644866E+02  0.00000000000E+00 0.  1.
</event>
<event>
 7    1  0.2339217E-009  0.4778727E+02  0.7816164E-02  0.1312668E+00
        -11   -1    0    0    0    0  0.00000000000E+00  0.00000000000E+00  0.45593999997E+02  0.45594000000E+02  0.51100000000E-03 0.  1.
         11   -1    0    0    0    0 -0.00000000000E+00 -0.00000000000E+00 -0.45593999997E+02  0.45594000000E+02  0.51100000000E-03 0. -1.
    9900012    2    1    2    0    0  0.27263273958E+02 -0.21292622085E+02  0.26209951318E+02  0.47787269473E+02  0.19999992835E+02 0.  0.
         12    1    1    2    0    0 -0.27263273958E+02  0.21292622085E+02 -0.26209951318E+02  0.43400730527E+02  0.00000000000E+00 0. -1.
         11    1    3    3    0    0 -0.12072189602E+01  0.13080236301E+01  0.16229280074E+01  0.24087754178E+01  0.51100000000E-03 0. -1.
        -11    1    3    3    0    0  0.14970591876E+02 -0.18708062550E+02  0.13670655112E+02  0.27586174743E+02  0.51100000000E-03 0.  1.
         12    1    3    3    0    0  0.13499901043E+02 -0.38925831650E+01  0.10916368199E+02  0.17792319312E+02  0.00000000000E+00 0. -1.
</event>
<event>
 7    1  0.2339217E-009  0.4778727E+02  0.7816164E-02  0.1312668E+00
        -11   -1    0    0    0    0  0.00000000000E+00  0.00000000000E+00  0.45593999997E+02  0.45594000000E+02  0.51100000000E-03 0. -1.
         11   -1    0    0    0    0 -0.00000000000E+00 -0.00000000000E+00 -0.45593999997E+02  0.45594000000E+02  0.51100000000E-03 0.  1.
    9900012    2    1    2    0    0 -0.14779163801E+02 -0.32499379609E+01 -0.40677238822E+02  0.47787268006E+02  0.19999986147E+02 0.  0.
         12    1    1    2    0    0  0.14779163801E+02  0.32499379609E+01  0.40677238822E+02  0.43400731994E+02  0.00000000000E+00 0. -1.
         11    1    3    3    0    0 -0.13663305770E+01  0.63953759796E+01 -0.88505067098E+01  0.11004506461E+02  0.51100000000E-03 0. -1.
        -11    1    3    3    0    0 -0.15436619982E-01  0.95489208772E+00 -0.44792477693E+00  0.10548431425E+01  0.51100000000E-03 0.  1.
        -12    1    3    3    0    0 -0.13397396604E+02 -0.10600206028E+02 -0.31378807336E+02  0.35727918403E+02  0.00000000000E+00 0.  1.
</event>
<event>
 7    1  0.2339217E-009  0.4778727E+02  0.7816164E-02  0.1312668E+00
        -11   -1    0    0    0    0  0.00000000000E+00  0.00000000000E+00  0.45593999997E+02  0.45594000000E+02  0.51100000000E-03 0.  1.
         11   -1    0    0    0    0 -0.00000000000E+00 -0.00000000000E+00 -0.45593999997E+02  0.45594000000E+02  0.51100000000E-03 0. -1.
    9900012    2    1    2    0    0 -0.17019978401E+02 -0.33143376024E+02  0.22258937598E+02  0.47787270259E+02  0.19999996420E+02 0.  0.
         12    1    1    2    0    0  0.17019978401E+02  0.33143376024E+02 -0.22258937598E+02  0.43400729741E+02  0.00000000000E+00 0. -1.
         11    1    3    3    0    0 -0.47832333235E+01 -0.13941469258E+02  0.54795171326E+01  0.15724789168E+02  0.51100000000E-03 0. -1.
        -11    1    3    3    0    0 -0.12458218814E+02 -0.21171682506E+02  0.17260361879E+02  0.30022782160E+02  0.51100000000E-03 0.  1.
         12    1    3    3    0    0  0.22147373663E+00  0.19697757413E+01 -0.48094141337E+00  0.20396989312E+01  0.00000000000E+00 0. -1.
</event>
<event>
 7    1  0.2339217E-009  0.4778729E+02  0.7816164E-02  0.1312668E+00
        -11   -1    0    0    0    0  0.00000000000E+00  0.00000000000E+00  0.45593999997E+02  0.45594000000E+02  0.51100000000E-03 0.  1.
         11   -1    0    0    0    0 -0.00000000000E+00 -0.00000000000E+00 -0.45593999997E+02  0.45594000000E+02  0.51100000000E-03 0. -1.
    9900012    2    1    2    0    0 -0.32730860028E+02 -0.27240349729E+02  0.83830842110E+01  0.47787286268E+02  0.20000069412E+02 0.  0.
         12    1    1    2    0    0  0.32730860028E+02  0.27240349729E+02 -0.83830842110E+01  0.43400713732E+02  0.00000000000E+00 0. -1.
         11    1    3    3    0    0 -0.18570047316E+02 -0.16364832273E+02 -0.27387215784E+01  0.24902911251E+02  0.51100000000E-03 0. -1.
        -11    1    3    3    0    0 -0.28701782266E+01 -0.74995804764E+01  0.29998575742E+01  0.85720928658E+01  0.51100000000E-03 0.  1.
         12    1    3    3    0    0 -0.11290634486E+02 -0.33759369794E+01  0.81219482152E+01  0.14312282152E+02  0.00000000000E+00 0. -1.
</event>
<event>
 7    1  0.2339217E-009  0.4778726E+02  0.7816164E-02  0.1312668E+00
        -11   -1    0    0    0    0  0.00000000000E+00  0.00000000000E+00  0.45593999997E+02  0.45594000000E+02  0.51100000000E-03 0.  1.
         11   -1    0    0    0    0 -0.00000000000E+00 -0.00000000000E+00 -0.45593999997E+02  0.45594000000E+02  0.51100000000E-03 0. -1.
    9900012    2    1    2    0    0  0.10163358255E+02 -0.36137566481E+02  0.21780881586E+02  0.47787258476E+02  0.19999942697E+02 0.  0.
         12    1    1    2    0    0 -0.10163358255E+02  0.36137566481E+02 -0.21780881586E+02  0.43400741524E+02  0.00000000000E+00 0. -1.
         11    1    3    3    0    0  0.31604432278E+01 -0.99713009123E+01 -0.11402506708E+01  0.10522139285E+02  0.51100000000E-03 0. -1.
        -11    1    3    3    0    0 -0.17747516926E+01 -0.12727783769E+02  0.68982966920E+01  0.14585359809E+02  0.51100000000E-03 0.  1.
         12    1    3    3    0    0  0.87776667199E+01 -0.13438481799E+02  0.16022835564E+02  0.22679759382E+02  0.00000000000E+00 0. -1.
</event>
<event>
 7    1  0.2339217E-009  0.4778727E+02  0.7816164E-02  0.1312668E+00
        -11   -1    0    0    0    0  0.00000000000E+00  0.00000000000E+00  0.45593999997E+02  0.45594000000E+02  0.51100000000E-03 0.  1.
         11   -1    0    0    0    0 -0.00000000000E+00 -0.00000000000E+00 -0.45593999997E+02  0.45594000000E+02  0.51100000000E-03 0. -1.
    9900012    2    1    2    0    0 -0.25924275708E+02 -0.23326217408E+02  0.25834921096E+02  0.47787266854E+02  0.19999980896E+02 0.  0.
         12    1    1    2    0    0  0.25924275708E+02  0.23326217408E+02 -0.25834921096E+02  0.43400733146E+02  0.00000000000E+00 0. -1.
         11    1    3    3    0    0  0.24580258895E+01  0.89191425521E-01  0.31879531988E+00  0.24802171479E+01  0.51100000000E-03 0. -1.
        -11    1    3    3    0    0 -0.36006045565E+01 -0.43157536044E+01  0.13692390156E+01  0.57848853134E+01  0.51100000000E-03 0.  1.
        -12    1    3    3    0    0 -0.24781697041E+02 -0.19099655229E+02  0.24146886760E+02  0.39522164393E+02  0.00000000000E+00 0.  1.
</event>
<event>
 7    1  0.2339217E-009  0.4778727E+02  0.7816164E-02  0.1312668E+00
        -11   -1    0    0    0    0  0.00000000000E+00  0.00000000000E+00  0.45593999997E+02  0.45594000000E+02  0.51100000000E-03 0. -1.
         11   -1    0    0    0    0 -0.00000000000E+00 -0.00000000000E+00 -0.45593999997E+02  0.45594000000E+02  0.51100000000E-03 0.  1.
    9900012    2    1    2    0    0 -0.35933534019E+02 -0.24165345824E+02 -0.29052490068E+01  0.47787271000E+02  0.19999999797E+02 0.  0.
         12    1    1    2    0    0  0.35933534019E+02  0.24165345824E+02  0.29052490068E+01  0.43400729000E+02  0.00000000000E+00 0. -1.
         11    1    3    3    0    0 -0.24108143389E+01 -0.36862919780E+01  0.31297017312E+01  0.54033144931E+01  0.51100000000E-03 0. -1.
        -11    1    3    3    0    0 -0.20382573969E+02 -0.20243477621E+02 -0.29012499610E+01  0.28873256820E+02  0.51100000000E-03 0.  1.
        -12    1    3    3    0    0 -0.13140145711E+02 -0.23557622569E+00 -0.31337007769E+01  0.13510699687E+02  0.00000000000E+00 0.  1.
</event>
<event>
 7    1  0.2339217E-009  0.4778726E+02  0.7816164E-02  0.1312668E+00
        -11   -1    0    0    0    0  0.00000000000E+00  0.00000000000E+00  0.45593999997E+02  0.45594000000E+02  0.51100000000E-03 0.  1.
         11   -1    0    0    0    0 -0.00000000000E+00 -0.00000000000E+00 -0.45593999997E+02  0.45594000000E+02  0.51100000000E-03 0. -1.
    9900012    2    1    2    0    0  0.23454433445E+02 -0.35975965987E+02  0.62644547560E+01  0.47787263021E+02  0.19999963418E+02 0.  0.
         12    1    1    2    0    0 -0.23454433445E+02  0.35975965987E+02 -0.62644547560E+01  0.43400736979E+02  0.00000000000E+00 0. -1.
         11    1    3    3    0    0 -0.11929164050E+01 -0.79078544990E+00 -0.24981997550E+01  0.28791306768E+01  0.51100000000E-03 0. -1.
        -11    1    3    3    0    0  0.66090049399E+00 -0.51711021742E+01 -0.90038077905E+00  0.52903471500E+01  0.51100000000E-03 0.  1.
        -12    1    3    3    0    0  0.23986449356E+02 -0.30014078363E+02  0.96630352900E+01  0.39617785194E+02  0.00000000000E+00 0.  1.
</event>
<event>
 7    1  0.2339217E-009  0.4778733E+02  0.7816164E-02  0.1312668E+00
        -11   -1    0    0    0    0  0.00000000000E+00  0.00000000000E+00  0.45593999997E+02  0.45594000000E+02  0.51100000000E-03 0.  1.
         11   -1    0    0    0    0 -0.00000000000E+00 -0.00000000000E+00 -0.45593999997E+02  0.45594000000E+02  0.51100000000E-03 0. -1.
    9900012    2    1    2    0    0  0.17844397591E+02 -0.27690434385E+02  0.28256606342E+02  0.47787326229E+02  0.20000251608E+02 0.  0.
         12    1    1    2    0    0 -0.17844397591E+02  0.27690434385E+02 -0.28256606342E+02  0.43400673771E+02  0.00000000000E+00 0. -1.
         11    1    3    3    0    0 -0.40072305245E+00  0.12262529961E+01 -0.36827638318E+00  0.13416046850E+01  0.51100000000E-03 0. -1.
        -11    1    3    3    0    0  0.10938411875E+02 -0.60518645490E+01  0.11196441216E+02  0.16781961000E+02  0.51100000000E-03 0.  1.
        -12    1    3    3    0    0  0.73067087688E+01 -0.22864822832E+02  0.17428441509E+02  0.29663760544E+02  0.00000000000E+00 0.  1.
</event>
<event>
 7    1  0.2339217E-009  0.4778727E+02  0.7816164E-02  0.1312668E+00
        -11   -1    0    0    0    0  0.00000000000E+00  0.00000000000E+00  0.45593999997E+02  0.45594000000E+02  0.51100000000E-03 0.  1.
         11   -1    0    0    0    0 -0.00000000000E+00 -0.00000000000E+00 -0.45593999997E+02  0.45594000000E+02  0.51100000000E-03 0. -1.
    9900012    2    1    2    0    0  0.75446604756E+01 -0.28519252233E+02  0.31833215157E+02  0.47787271471E+02  0.20000001945E+02 0.  0.
         12    1    1    2    0    0 -0.75446604756E+01  0.28519252233E+02 -0.31833215157E+02  0.43400728529E+02  0.00000000000E+00 0. -1.
         11    1    3    3    0    0 -0.21291045868E+01 -0.36946657377E+01  0.36849503655E+01  0.56358229844E+01  0.51100000000E-03 0. -1.
        -11    1    3    3    0    0 -0.32614028462E+01  0.89465049062E-01  0.23006844565E+01  0.39922301724E+01  0.51100000000E-03 0.  1.
        -12    1    3    3    0    0  0.12935167909E+02 -0.24914051544E+02  0.25847580335E+02  0.38159218314E+02  0.00000000000E+00 0.  1.
</event>
<event>
 7    1  0.2339217E-009  0.4778727E+02  0.7816164E-02  0.1312668E+00
        -11   -1    0    0    0    0  0.00000000000E+00  0.00000000000E+00  0.45593999997E+02  0.45594000000E+02  0.51100000000E-03 0. -1.
         11   -1    0    0    0    0 -0.00000000000E+00 -0.00000000000E+00 -0.45593999997E+02  0.45594000000E+02  0.51100000000E-03 0.  1.
    9900012    2    1    2    0    0 -0.27480593060E+02 -0.23563299596E+02  0.23941831637E+02  0.47787269765E+02  0.19999994168E+02 0.  0.
         12    1    1    2    0    0  0.27480593060E+02  0.23563299596E+02 -0.23941831637E+02  0.43400730235E+02  0.00000000000E+00 0. -1.
         11    1    3    3    0    0 -0.14547628377E+01 -0.49960685574E+01  0.44318843427E+01  0.68351031471E+01  0.51100000000E-03 0. -1.
        -11    1    3    3    0    0 -0.14128230659E+02 -0.19125208901E+02  0.15504235650E+02  0.28385944416E+02  0.51100000000E-03 0.  1.
         12    1    3    3    0    0 -0.11897599563E+02  0.55797786155E+00  0.40057116442E+01  0.12566222202E+02  0.00000000000E+00 0. -1.
</event>
<event>
 7    1  0.2339217E-009  0.4778731E+02  0.7816164E-02  0.1312668E+00
        -11   -1    0    0    0    0  0.00000000000E+00  0.00000000000E+00  0.45593999997E+02  0.45594000000E+02  0.51100000000E-03 0.  1.
         11   -1    0    0    0    0 -0.00000000000E+00 -0.00000000000E+00 -0.45593999997E+02  0.45594000000E+02  0.51100000000E-03 0. -1.
    9900012    2    1    2    0    0  0.76575228446E+00 -0.34512329421E+02  0.26304613930E+02  0.47787309077E+02  0.20000173404E+02 0.  0.
         12    1    1    2    0    0 -0.76575228446E+00  0.34512329421E+02 -0.26304613930E+02  0.43400690923E+02  0.00000000000E+00 0. -1.
         11    1    3    3    0    0 -0.27259886291E+01 -0.42056545791E+01  0.16797331352E+01  0.52858346655E+01  0.51100000000E-03 0. -1.
        -11    1    3    3    0    0 -0.40828833980E+01 -0.26923397947E+01  0.24930442808E+00  0.48970178038E+01  0.51100000000E-03 0.  1.
        -12    1    3    3    0    0  0.75746243115E+01 -0.27614335047E+02  0.24375576366E+02  0.37604456608E+02  0.00000000000E+00 0.  1.
</event>
<event>
 7    1  0.2339217E-009  0.4778727E+02  0.7816164E-02  0.1312668E+00
        -11   -1    0    0    0    0  0.00000000000E+00  0.00000000000E+00  0.45593999997E+02  0.45594000000E+02  0.51100000000E-03 0.  1.
         11   -1    0    0    0    0 -0.00000000000E+00 -0.00000000000E+00 -0.45593999997E+02  0.45594000000E+02  0.51100000000E-03 0. -1.
    9900012    2    1    2    0    0  0.19363030641E+02  0.34044450078E+02  0.18699512415E+02  0.47787270728E+02  0.19999998558E+02 0.  0.
         12    1    1    2    0    0 -0.19363030641E+02 -0.34044450078E+02 -0.18699512415E+02  0.43400729272E+02  0.00000000000E+00 0. -1.
         11    1    3    3    0    0 -0.23678721149E+00  0.11864677236E+01  0.22969471367E+01  0.25961009712E+01  0.51100000000E-03 0. -1.
        -11    1    3    3    0    0  0.13291815177E+02  0.29422032389E+02  0.64595980456E+01  0.32924986678E+02  0.51100000000E-03 0.  1.
        -12    1    3    3    0    0  0.63080026759E+01  0.34359499660E+01  0.99429672329E+01  0.12266183079E+02  0.00000000000E+00 0.  1.
</event>
<event>
 7    1  0.2339217E-009  0.4778727E+02  0.7816164E-02  0.1312668E+00
        -11   -1    0    0    0    0  0.00000000000E+00  0.00000000000E+00  0.45593999997E+02  0.45594000000E+02  0.51100000000E-03 0.  1.
         11   -1    0    0    0    0 -0.00000000000E+00 -0.00000000000E+00 -0.45593999997E+02  0.45594000000E+02  0.51100000000E-03 0. -1.
    9900012    2    1    2    0    0  0.12866623348E+02  0.22041252520E+02  0.35103507690E+02  0.47787273495E+02  0.20000011172E+02 0.  0.
         12    1    1    2    0    0 -0.12866623348E+02 -0.22041252520E+02 -0.35103507690E+02  0.43400726505E+02  0.00000000000E+00 0. -1.
         11    1    3    3    0    0  0.19221674397E+01  0.63613497965E+01 -0.77301742407E+00  0.66902208557E+01  0.51100000000E-03 0. -1.
        -11    1    3    3    0    0  0.22281806458E+01  0.85619516503E+00  0.79498800175E+01  0.83005091232E+01  0.51100000000E-03 0.  1.
        -12    1    3    3    0    0  0.87162752621E+01  0.14823707559E+02  0.27926645097E+02  0.32796543516E+02  0.00000000000E+00 0.  1.
</event>
<event>
 7    1  0.2339217E-009  0.4778728E+02  0.7816164E-02  0.1312668E+00
        -11   -1    0    0    0    0  0.00000000000E+00  0.00000000000E+00  0.45593999997E+02  0.45594000000E+02  0.51100000000E-03 0. -1.
         11   -1    0    0    0    0 -0.00000000000E+00 -0.00000000000E+00 -0.45593999997E+02  0.45594000000E+02  0.51100000000E-03 0.  1.
    9900012    2    1    2    0    0 -0.40882710513E+02 -0.14567606837E+02 -0.10528867955E+00  0.47787282568E+02  0.20000052542E+02 0.  0.
         12    1    1    2    0    0  0.40882710513E+02  0.14567606837E+02  0.10528867955E+00  0.43400717432E+02  0.00000000000E+00 0. -1.
         11    1    3    3    0    0 -0.25913335631E+02 -0.87692365696E+01 -0.52500410515E+01  0.27856119702E+02  0.51100000000E-03 0. -1.
        -11    1    3    3    0    0 -0.15499283518E+02 -0.73358113323E+01  0.32828324094E+01  0.17459063731E+02  0.51100000000E-03 0.  1.
         12    1    3    3    0    0  0.52990863534E+00  0.15374410651E+01  0.18619199625E+01  0.24720991358E+01  0.00000000000E+00 0. -1.
</event>
<event>
 7    1  0.2339217E-009  0.4778724E+02  0.7816164E-02  0.1312668E+00
        -11   -1    0    0    0    0  0.00000000000E+00  0.00000000000E+00  0.45593999997E+02  0.45594000000E+02  0.51100000000E-03 0.  1.
         11   -1    0    0    0    0 -0.00000000000E+00 -0.00000000000E+00 -0.45593999997E+02  0.45594000000E+02  0.51100000000E-03 0. -1.
    9900012    2    1    2    0    0 -0.27532907345E+02 -0.61673369284E+01  0.32977706899E+02  0.47787237518E+02  0.19999847141E+02 0.  0.
         12    1    1    2    0    0  0.27532907345E+02  0.61673369284E+01 -0.32977706899E+02  0.43400762482E+02  0.00000000000E+00 0. -1.
         11    1    3    3    0    0 -0.14082260189E+01 -0.36066419513E+01  0.58903316693E+01  0.70488987878E+01  0.51100000000E-03 0.  1.
        -11    1    3    3    0    0 -0.10947716089E+02  0.43638966645E+01  0.18604852352E+02  0.22023546784E+02  0.51100000000E-03 0. -1.
         12    1    3    3    0    0 -0.15176965238E+02 -0.69245916415E+01  0.84825228774E+01  0.18714791946E+02  0.00000000000E+00 0. -1.
</event>
<event>
 7    1  0.2339217E-009  0.4778730E+02  0.7816164E-02  0.1312668E+00
        -11   -1    0    0    0    0  0.00000000000E+00  0.00000000000E+00  0.45593999997E+02  0.45594000000E+02  0.51100000000E-03 0.  1.
         11   -1    0    0    0    0 -0.00000000000E+00 -0.00000000000E+00 -0.45593999997E+02  0.45594000000E+02  0.51100000000E-03 0. -1.
    9900012    2    1    2    0    0  0.37407108545E+02 -0.12004512757E+02  0.18445078856E+02  0.47787296893E+02  0.20000117853E+02 0.  0.
         12    1    1    2    0    0 -0.37407108545E+02  0.12004512757E+02 -0.18445078856E+02  0.43400703107E+02  0.00000000000E+00 0. -1.
         11    1    3    3    0    0  0.13945813871E+00  0.12620293726E+01  0.31036160285E+01  0.33532967992E+01  0.51100000000E-03 0. -1.
        -11    1    3    3    0    0  0.50918983295E+01  0.13519940943E+01 -0.12157757182E+01  0.54067945667E+01  0.51100000000E-03 0.  1.
        -12    1    3    3    0    0  0.32175752076E+02 -0.14618536224E+02  0.16557238545E+02  0.39027205527E+02  0.00000000000E+00 0.  1.
</event>
<event>
 7    1  0.2339217E-009  0.4778727E+02  0.7816164E-02  0.1312668E+00
        -11   -1    0    0    0    0  0.00000000000E+00  0.00000000000E+00  0.45593999997E+02  0.45594000000E+02  0.51100000000E-03 0. -1.
         11   -1    0    0    0    0 -0.00000000000E+00 -0.00000000000E+00 -0.45593999997E+02  0.45594000000E+02  0.51100000000E-03 0.  1.
    9900012    2    1    2    0    0 -0.11952250019E+01 -0.26595043956E+02 -0.34276787249E+02  0.47787273394E+02  0.20000010711E+02 0.  0.
         12    1    1    2    0    0  0.11952250019E+01  0.26595043956E+02  0.34276787249E+02  0.43400726606E+02  0.00000000000E+00 0. -1.
         11    1    3    3    0    0  0.54331374043E+01 -0.18517811981E+02 -0.14967268240E+02  0.24422273880E+02  0.51100000000E-03 0. -1.
        -11    1    3    3    0    0 -0.35832197005E+01 -0.78926883259E+01 -0.85265709785E+01  0.12158799503E+02  0.51100000000E-03 0.  1.
         12    1    3    3    0    0 -0.30451427057E+01 -0.18454364872E+00 -0.10782948031E+02  0.11206200011E+02  0.00000000000E+00 0. -1.
</event>
<event>
 7    1  0.2339217E-009  0.4778727E+02  0.7816164E-02  0.1312668E+00
        -11   -1    0    0    0    0  0.00000000000E+00  0.00000000000E+00  0.45593999997E+02  0.45594000000E+02  0.51100000000E-03 0.  1.
         11   -1    0    0    0    0 -0.00000000000E+00 -0.00000000000E+00 -0.45593999997E+02  0.45594000000E+02  0.51100000000E-03 0. -1.
    9900012    2    1    2    0    0 -0.21835425271E+02  0.10939309847E+02  0.35877133653E+02  0.47787274017E+02  0.20000013552E+02 0.  0.
         12    1    1    2    0    0  0.21835425271E+02 -0.10939309847E+02 -0.35877133653E+02  0.43400725983E+02  0.00000000000E+00 0. -1.
         11    1    3    3    0    0 -0.82379777125E+01 -0.36879140710E-01  0.11218044496E+02  0.13917979718E+02  0.51100000000E-03 0. -1.
        -11    1    3    3    0    0 -0.54553980822E+01 -0.35709508447E+01  0.76759982380E+01  0.10071445149E+02  0.51100000000E-03 0.  1.
        -12    1    3    3    0    0 -0.81420494763E+01  0.14547139832E+02  0.16983090919E+02  0.23797849150E+02  0.00000000000E+00 0.  1.
</event>
<event>
 7    1  0.2339217E-009  0.4778728E+02  0.7816164E-02  0.1312668E+00
        -11   -1    0    0    0    0  0.00000000000E+00  0.00000000000E+00  0.45593999997E+02  0.45594000000E+02  0.51100000000E-03 0.  1.
         11   -1    0    0    0    0 -0.00000000000E+00 -0.00000000000E+00 -0.45593999997E+02  0.45594000000E+02  0.51100000000E-03 0. -1.
    9900012    2    1    2    0    0 -0.16705574765E+02 -0.41103758532E+01  0.39845344845E+02  0.47787275079E+02  0.20000018396E+02 0.  0.
         12    1    1    2    0    0  0.16705574765E+02  0.41103758532E+01 -0.39845344845E+02  0.43400724921E+02  0.00000000000E+00 0. -1.
         11    1    3    3    0    0 -0.53556321710E+01  0.25901864494E+01  0.27778997100E+01  0.65657131261E+01  0.51100000000E-03 0. -1.
        -11    1    3    3    0    0 -0.54298690288E+01  0.23397345278E+01  0.64344582841E+01  0.87384260025E+01  0.51100000000E-03 0.  1.
        -12    1    3    3    0    0 -0.59200735649E+01 -0.90402968303E+01  0.30632986851E+02  0.32483135951E+02  0.00000000000E+00 0.  1.
</event>
<event>
 7    1  0.2339217E-009  0.4778727E+02  0.7816164E-02  0.1312668E+00
        -11   -1    0    0    0    0  0.00000000000E+00  0.00000000000E+00  0.45593999997E+02  0.45594000000E+02  0.51100000000E-03 0. -1.
         11   -1    0    0    0    0 -0.00000000000E+00 -0.00000000000E+00 -0.45593999997E+02  0.45594000000E+02  0.51100000000E-03 0.  1.
    9900012    2    1    2    0    0 -0.13806159660E+02  0.40825892957E+02 -0.51244206388E+01  0.47787271122E+02  0.20000000354E+02 0.  0.
         12    1    1    2    0    0  0.13806159660E+02 -0.40825892957E+02  0.51244206388E+01  0.43400728878E+02  0.00000000000E+00 0. -1.
         11    1    3    3    0    0  0.18603607225E+00  0.73279973976E+01  0.22462869176E+01  0.76668090139E+01  0.51100000000E-03 0. -1.
        -11    1    3    3    0    0 -0.81513363653E+01  0.32254752872E+02 -0.47777305285E+01  0.33610118665E+02  0.51100000000E-03 0.  1.
         12    1    3    3    0    0 -0.58408593669E+01  0.12431426867E+01 -0.25929770279E+01  0.65103434434E+01  0.00000000000E+00 0. -1.
</event>
<event>
 7    1  0.2339217E-009  0.4778727E+02  0.7816164E-02  0.1312668E+00
        -11   -1    0    0    0    0  0.00000000000E+00  0.00000000000E+00  0.45593999997E+02  0.45594000000E+02  0.51100000000E-03 0.  1.
         11   -1    0    0    0    0 -0.00000000000E+00 -0.00000000000E+00 -0.45593999997E+02  0.45594000000E+02  0.51100000000E-03 0. -1.
    9900012    2    1    2    0    0  0.23183529437E+02  0.35669472516E+02  0.85927820335E+01  0.47787271783E+02  0.20000003366E+02 0.  0.
         12    1    1    2    0    0 -0.23183529437E+02 -0.35669472516E+02 -0.85927820335E+01  0.43400728217E+02  0.00000000000E+00 0. -1.
         11    1    3    3    0    0  0.60362639856E+01  0.88660640523E+01  0.58068122776E+01  0.12196829251E+02  0.51100000000E-03 0. -1.
        -11    1    3    3    0    0  0.37059267692E+01  0.13755097417E+01  0.54197685947E+01  0.67081899309E+01  0.51100000000E-03 0.  1.
         12    1    3    3    0    0  0.13441338682E+02  0.25427898722E+02 -0.26337988388E+01  0.28882252601E+02  0.00000000000E+00 0. -1.
</event>
<event>
 7    1  0.2339217E-009  0.4778727E+02  0.7816164E-02  0.1312668E+00
        -11   -1    0    0    0    0  0.00000000000E+00  0.00000000000E+00  0.45593999997E+02  0.45594000000E+02  0.51100000000E-03 0.  1.
         11   -1    0    0    0    0 -0.00000000000E+00 -0.00000000000E+00 -0.45593999997E+02  0.45594000000E+02  0.51100000000E-03 0. -1.
    9900012    2    1    2    0    0 -0.11814698816E+02  0.13024362564E+02  0.39678736621E+02  0.47787271110E+02  0.20000000300E+02 0.  0.
         12    1    1    2    0    0  0.11814698816E+02 -0.13024362564E+02 -0.39678736621E+02  0.43400728890E+02  0.00000000000E+00 0. -1.
         11    1    3    3    0    0 -0.46460630737E+01 -0.24402737634E+01  0.73343660500E+01  0.90185233681E+01  0.51100000000E-03 0. -1.
        -11    1    3    3    0    0 -0.45365564242E+01  0.23492333414E+01  0.19735497560E+02  0.20386002691E+02  0.51100000000E-03 0.  1.
        -12    1    3    3    0    0 -0.26320793180E+01  0.13115402986E+02  0.12608873011E+02  0.18382745051E+02  0.00000000000E+00 0.  1.
</event>
<event>
 7    1  0.2339217E-009  0.4778727E+02  0.7816164E-02  0.1312668E+00
        -11   -1    0    0    0    0  0.00000000000E+00  0.00000000000E+00  0.45593999997E+02  0.45594000000E+02  0.51100000000E-03 0.  1.
         11   -1    0    0    0    0 -0.00000000000E+00 -0.00000000000E+00 -0.45593999997E+02  0.45594000000E+02  0.51100000000E-03 0. -1.
    9900012    2    1    2    0    0  0.18418570236E+02  0.35356768180E+02 -0.17154560786E+02  0.47787265658E+02  0.19999975440E+02 0.  0.
         12    1    1    2    0    0 -0.18418570236E+02 -0.35356768180E+02  0.17154560786E+02  0.43400734342E+02  0.00000000000E+00 0. -1.
         11    1    3    3    0    0  0.34797132264E+01  0.12725702130E+01  0.16137938899E+01  0.40413079647E+01  0.51100000000E-03 0. -1.
        -11    1    3    3    0    0  0.22768107735E+01  0.76107835583E+00  0.14093908344E+01  0.27837906436E+01  0.51100000000E-03 0.  1.
         12    1    3    3    0    0  0.12662046236E+02  0.33323119611E+02 -0.20177745511E+02  0.40962167050E+02  0.00000000000E+00 0. -1.
</event>
<event>
 7    1  0.2339217E-009  0.4778727E+02  0.7816164E-02  0.1312668E+00
        -11   -1    0    0    0    0  0.00000000000E+00  0.00000000000E+00  0.45593999997E+02  0.45594000000E+02  0.51100000000E-03 0.  1.
         11   -1    0    0    0    0 -0.00000000000E+00 -0.00000000000E+00 -0.45593999997E+02  0.45594000000E+02  0.51100000000E-03 0. -1.
    9900012    2    1    2    0    0 -0.26246141263E+02  0.21063253086E+02  0.27406255135E+02  0.47787269795E+02  0.19999994305E+02 0.  0.
         12    1    1    2    0    0  0.26246141263E+02 -0.21063253086E+02 -0.27406255135E+02  0.43400730205E+02  0.00000000000E+00 0. -1.
         11    1    3    3    0    0 -0.85238109764E+01 -0.29905882796E+00  0.10428268996E+02  0.13471955473E+02  0.51100000000E-03 0. -1.
        -11    1    3    3    0    0 -0.41020683093E+01  0.64591744409E+01  0.10734552393E+02  0.13182507888E+02  0.51100000000E-03 0.  1.
         12    1    3    3    0    0 -0.13620261978E+02  0.14903137473E+02  0.62434337464E+01  0.21132806435E+02  0.00000000000E+00 0. -1.
</event>
<event>
 7    1  0.2339217E-009  0.4778729E+02  0.7816164E-02  0.1312668E+00
        -11   -1    0    0    0    0  0.00000000000E+00  0.00000000000E+00  0.45593999997E+02  0.45594000000E+02  0.51100000000E-03 0.  1.
         11   -1    0    0    0    0 -0.00000000000E+00 -0.00000000000E+00 -0.45593999997E+02  0.45594000000E+02  0.51100000000E-03 0. -1.
    9900012    2    1    2    0    0 -0.23025282407E+02  0.32438395563E+02  0.17355366763E+02  0.47787286963E+02  0.20000072581E+02 0.  0.
         12    1    1    2    0    0  0.23025282407E+02 -0.32438395563E+02 -0.17355366763E+02  0.43400713037E+02  0.00000000000E+00 0. -1.
         11    1    3    3    0    0 -0.50964457564E+01  0.17181854444E+02  0.66038481347E+01  0.19099756332E+02  0.51100000000E-03 0. -1.
        -11    1    3    3    0    0 -0.69968692532E+01  0.10846213741E+02  0.26469781093E+00  0.12909941792E+02  0.51100000000E-03 0.  1.
         12    1    3    3    0    0 -0.10931967397E+02  0.44103273775E+01  0.10486820817E+02  0.15777588840E+02  0.00000000000E+00 0. -1.
</event>
<event>
 7    1  0.2410322E-009  0.4778727E+02  0.7816164E-02  0.1312668E+00
        -11   -1    0    0    0    0  0.00000000000E+00  0.00000000000E+00  0.45593999997E+02  0.45594000000E+02  0.51100000000E-03 0.  1.
         11   -1    0    0    0    0 -0.00000000000E+00 -0.00000000000E+00 -0.45593999997E+02  0.45594000000E+02  0.51100000000E-03 0. -1.
    9900012    2    1    2    0    0  0.19002606194E+02  0.38779944506E+02  0.43174171804E+01  0.47787271559E+02  0.20000002348E+02 0.  0.
         12    1    1    2    0    0 -0.19002606194E+02 -0.38779944506E+02 -0.43174171804E+01  0.43400728441E+02  0.00000000000E+00 0. -1.
         11    1    3    3    0    0  0.69562955263E+01  0.30231612990E+01 -0.14470642227E+00  0.75862040507E+01  0.51100000000E-03 0. -1.
        -11    1    3    3    0    0 -0.56710467923E+00  0.55306386202E+01 -0.34018520015E+01  0.65178346531E+01  0.51100000000E-03 0.  1.
        -12    1    3    3    0    0  0.12613415347E+02  0.30226144587E+02  0.78639756042E+01  0.33683232856E+02  0.00000000000E+00 0.  1.
</event>
<event>
 7    1  0.2339217E-009  0.4778726E+02  0.7816164E-02  0.1312668E+00
        -11   -1    0    0    0    0  0.00000000000E+00  0.00000000000E+00  0.45593999997E+02  0.45594000000E+02  0.51100000000E-03 0.  1.
         11   -1    0    0    0    0 -0.00000000000E+00 -0.00000000000E+00 -0.45593999997E+02  0.45594000000E+02  0.51100000000E-03 0. -1.
    9900012    2    1    2    0    0  0.21190630559E+02  0.36491712078E+02  0.10145735684E+02  0.47787264679E+02  0.19999970977E+02 0.  0.
         12    1    1    2    0    0 -0.21190630559E+02 -0.36491712078E+02 -0.10145735684E+02  0.43400735321E+02  0.00000000000E+00 0. -1.
         11    1    3    3    0    0  0.62045980066E+01  0.51862937749E+01  0.13238187123E+01  0.81943380323E+01  0.51100000000E-03 0. -1.
        -11    1    3    3    0    0  0.95399339411E+01  0.61144047232E+01  0.78816677382E+01  0.13802788534E+02  0.51100000000E-03 0.  1.
         12    1    3    3    0    0  0.54460986113E+01  0.25191013579E+02  0.94024923373E+00  0.25790138113E+02  0.00000000000E+00 0. -1.
</event>
<event>
 7    1  0.2339217E-009  0.4778727E+02  0.7816164E-02  0.1312668E+00
        -11   -1    0    0    0    0  0.00000000000E+00  0.00000000000E+00  0.45593999997E+02  0.45594000000E+02  0.51100000000E-03 0.  1.
         11   -1    0    0    0    0 -0.00000000000E+00 -0.00000000000E+00 -0.45593999997E+02  0.45594000000E+02  0.51100000000E-03 0. -1.
    9900012    2    1    2    0    0  0.30017144560E+02 -0.25851833407E+02  0.17727869533E+02  0.47787267101E+02  0.19999982020E+02 0.  0.
         12    1    1    2    0    0 -0.30017144560E+02  0.25851833407E+02 -0.17727869533E+02  0.43400732899E+02  0.00000000000E+00 0. -1.
         11    1    3    3    0    0  0.86620204200E+00  0.10072431884E+01 -0.13980256287E+01  0.19285540536E+01  0.51100000000E-03 0. -1.
        -11    1    3    3    0    0  0.77143009607E+01 -0.15673533979E+02  0.89030403005E+01  0.19606994506E+02  0.51100000000E-03 0.  1.
         12    1    3    3    0    0  0.21436641557E+02 -0.11185542616E+02  0.10222854861E+02  0.26251718541E+02  0.00000000000E+00 0. -1.
</event>
<event>
 7    1  0.2339217E-009  0.4778727E+02  0.7816164E-02  0.1312668E+00
        -11   -1    0    0    0    0  0.00000000000E+00  0.00000000000E+00  0.45593999997E+02  0.45594000000E+02  0.51100000000E-03 0.  1.
         11   -1    0    0    0    0 -0.00000000000E+00 -0.00000000000E+00 -0.45593999997E+02  0.45594000000E+02  0.51100000000E-03 0. -1.
    9900012    2    1    2    0    0  0.43363759897E+02 -0.75251405785E+00  0.16251792712E+01  0.47787272386E+02  0.20000006116E+02 0.  0.
         12    1    1    2    0    0 -0.43363759897E+02  0.75251405785E+00 -0.16251792712E+01  0.43400727614E+02  0.00000000000E+00 0. -1.
         11    1    3    3    0    0  0.25434411144E+02  0.29831998462E+01 -0.44813181480E+01  0.25997903073E+02  0.51100000000E-03 0.  1.
        -11    1    3    3    0    0  0.10769176789E+02 -0.22274893144E+01 -0.16566664973E+01  0.11121214929E+02  0.51100000000E-03 0. -1.
        -12    1    3    3    0    0  0.71601719634E+01 -0.15082245897E+01  0.77631639166E+01  0.10668154384E+02  0.00000000000E+00 0.  1.
</event>
<event>
 7    1  0.2339217E-009  0.4778726E+02  0.7816164E-02  0.1312668E+00
        -11   -1    0    0    0    0  0.00000000000E+00  0.00000000000E+00  0.45593999997E+02  0.45594000000E+02  0.51100000000E-03 0.  1.
         11   -1    0    0    0    0 -0.00000000000E+00 -0.00000000000E+00 -0.45593999997E+02  0.45594000000E+02  0.51100000000E-03 0. -1.
    9900012    2    1    2    0    0 -0.61025506963E+01  0.39646719126E+02  0.16568658144E+02  0.47787263887E+02  0.19999967365E+02 0.  0.
         12    1    1    2    0    0  0.61025506963E+01 -0.39646719126E+02 -0.16568658144E+02  0.43400736113E+02  0.00000000000E+00 0. -1.
         11    1    3    3    0    0 -0.12207461041E+01  0.13092449052E+02 -0.18044342242E+00  0.13150475403E+02  0.51100000000E-03 0. -1.
        -11    1    3    3    0    0  0.25138471878E+01  0.20334896315E+02  0.96631156692E+01  0.22653989506E+02  0.51100000000E-03 0.  1.
        -12    1    3    3    0    0 -0.73956517801E+01  0.62193737590E+01  0.70859858973E+01  0.11982798978E+02  0.00000000000E+00 0.  1.
</event>
<event>
 7    1  0.2339217E-009  0.4778726E+02  0.7816164E-02  0.1312668E+00
        -11   -1    0    0    0    0  0.00000000000E+00  0.00000000000E+00  0.45593999997E+02  0.45594000000E+02  0.51100000000E-03 0.  1.
         11   -1    0    0    0    0 -0.00000000000E+00 -0.00000000000E+00 -0.45593999997E+02  0.45594000000E+02  0.51100000000E-03 0. -1.
    9900012    2    1    2    0    0 -0.29974309628E+02 -0.29844195711E+02  0.97205285901E+01  0.47787263470E+02  0.19999965464E+02 0.  0.
         12    1    1    2    0    0  0.29974309628E+02  0.29844195711E+02 -0.97205285901E+01  0.43400736530E+02  0.00000000000E+00 0. -1.
         11    1    3    3    0    0 -0.14933937205E+02 -0.24359468325E+01  0.12475773147E+01  0.15182646898E+02  0.51100000000E-03 0. -1.
        -11    1    3    3    0    0 -0.19099934660E+01 -0.14917579943E+01  0.85053259844E+00  0.25684281021E+01  0.51100000000E-03 0.  1.
        -12    1    3    3    0    0 -0.13130378957E+02 -0.25916490884E+02  0.76224186769E+01  0.30036188470E+02  0.00000000000E+00 0.  1.
</event>
<event>
 7    1  0.2339217E-009  0.4778727E+02  0.7816164E-02  0.1312668E+00
        -11   -1    0    0    0    0  0.00000000000E+00  0.00000000000E+00  0.45593999997E+02  0.45594000000E+02  0.51100000000E-03 0.  1.
         11   -1    0    0    0    0 -0.00000000000E+00 -0.00000000000E+00 -0.45593999997E+02  0.45594000000E+02  0.51100000000E-03 0. -1.
    9900012    2    1    2    0    0  0.41103649233E+02 -0.12571101675E+02  0.60067040353E+01  0.47787273382E+02  0.20000010658E+02 0.  0.
         12    1    1    2    0    0 -0.41103649233E+02  0.12571101675E+02 -0.60067040353E+01  0.43400726618E+02  0.00000000000E+00 0. -1.
         11    1    3    3    0    0  0.62885671275E+01 -0.52152894244E+01 -0.16670819931E+01  0.83381342596E+01  0.51100000000E-03 0.  1.
        -11    1    3    3    0    0  0.90382027932E+01 -0.66777716478E+01 -0.28583785102E+01  0.11595346993E+02  0.51100000000E-03 0. -1.
        -12    1    3    3    0    0  0.25776879312E+02 -0.67804060233E+00  0.10532164539E+02  0.27853792130E+02  0.00000000000E+00 0.  1.
</event>
<event>
 7    1  0.2339217E-009  0.4778727E+02  0.7816164E-02  0.1312668E+00
        -11   -1    0    0    0    0  0.00000000000E+00  0.00000000000E+00  0.45593999997E+02  0.45594000000E+02  0.51100000000E-03 0.  1.
         11   -1    0    0    0    0 -0.00000000000E+00 -0.00000000000E+00 -0.45593999997E+02  0.45594000000E+02  0.51100000000E-03 0. -1.
    9900012    2    1    2    0    0 -0.17059750373E+02  0.26368071502E+02  0.29955185482E+02  0.47787269421E+02  0.19999992600E+02 0.  0.
         12    1    1    2    0    0  0.17059750373E+02 -0.26368071502E+02 -0.29955185482E+02  0.43400730579E+02  0.00000000000E+00 0. -1.
         11    1    3    3    0    0 -0.41012629080E+00  0.10284163585E+02  0.12978124697E+02  0.16563935074E+02  0.51100000000E-03 0. -1.
        -11    1    3    3    0    0 -0.13955676762E+02  0.16205236963E+02  0.18365912438E+02  0.28190022328E+02  0.51100000000E-03 0.  1.
         12    1    3    3    0    0 -0.26939473197E+01 -0.12132904645E+00 -0.13888516522E+01  0.30333120200E+01  0.00000000000E+00 0. -1.
</event>
<event>
 7    1  0.2339217E-009  0.4778727E+02  0.7816164E-02  0.1312668E+00
        -11   -1    0    0    0    0  0.00000000000E+00  0.00000000000E+00  0.45593999997E+02  0.45594000000E+02  0.51100000000E-03 0.  1.
         11   -1    0    0    0    0 -0.00000000000E+00 -0.00000000000E+00 -0.45593999997E+02  0.45594000000E+02  0.51100000000E-03 0. -1.
    9900012    2    1    2    0    0  0.28355775402E+02 -0.76867069651E+01  0.31945081805E+02  0.47787265972E+02  0.19999976872E+02 0.  0.
         12    1    1    2    0    0 -0.28355775402E+02  0.76867069651E+01 -0.31945081805E+02  0.43400734028E+02  0.00000000000E+00 0. -1.
         11    1    3    3    0    0  0.26094412728E+01  0.32805448866E+01  0.60512868287E+01  0.73613335106E+01  0.51100000000E-03 0. -1.
        -11    1    3    3    0    0  0.59560508627E+01  0.28555387051E+01  0.80170500305E+01  0.10387575975E+02  0.51100000000E-03 0.  1.
         12    1    3    3    0    0  0.19790283267E+02 -0.13822790557E+02  0.17876744946E+02  0.30038356487E+02  0.00000000000E+00 0. -1.
</event>
<event>
 7    1  0.2339217E-009  0.4778727E+02  0.7816164E-02  0.1312668E+00
        -11   -1    0    0    0    0  0.00000000000E+00  0.00000000000E+00  0.45593999997E+02  0.45594000000E+02  0.51100000000E-03 0.  1.
         11   -1    0    0    0    0 -0.00000000000E+00 -0.00000000000E+00 -0.45593999997E+02  0.45594000000E+02  0.51100000000E-03 0. -1.
    9900012    2    1    2    0    0 -0.60320307449E+01  0.30312443967E+02  0.30469553849E+02  0.47787269984E+02  0.19999995165E+02 0.  0.
         12    1    1    2    0    0  0.60320307449E+01 -0.30312443967E+02 -0.30469553849E+02  0.43400730016E+02  0.00000000000E+00 0. -1.
         11    1    3    3    0    0 -0.37185867315E+01  0.49538197323E+01  0.13308047665E+01  0.63355551302E+01  0.51100000000E-03 0. -1.
        -11    1    3    3    0    0 -0.56110886353E+00  0.15897798373E+02  0.71316341443E+01  0.17433159269E+02  0.51100000000E-03 0.  1.
        -12    1    3    3    0    0 -0.17523351499E+01  0.94608258615E+01  0.22007114938E+02  0.24018555585E+02  0.00000000000E+00 0.  1.
</event>
<event>
 7    1  0.2339217E-009  0.4778727E+02  0.7816164E-02  0.1312668E+00
        -11   -1    0    0    0    0  0.00000000000E+00  0.00000000000E+00  0.45593999997E+02  0.45594000000E+02  0.51100000000E-03 0. -1.
         11   -1    0    0    0    0 -0.00000000000E+00 -0.00000000000E+00 -0.45593999997E+02  0.45594000000E+02  0.51100000000E-03 0.  1.
    9900012    2    1    2    0    0 -0.52712689356E+01  0.14988211880E+02 -0.40387999363E+02  0.47787271157E+02  0.20000000513E+02 0.  0.
         12    1    1    2    0    0  0.52712689356E+01 -0.14988211880E+02  0.40387999363E+02  0.43400728843E+02  0.00000000000E+00 0. -1.
         11    1    3    3    0    0 -0.36255394083E+01  0.56985342312E+00 -0.63630555090E+01  0.73455935496E+01  0.51100000000E-03 0. -1.
        -11    1    3    3    0    0 -0.28237714960E+01 -0.93601816967E+00  0.12782719023E+00  0.29776090286E+01  0.51100000000E-03 0.  1.
        -12    1    3    3    0    0  0.11780419687E+01  0.15354376627E+02 -0.34152771044E+02  0.37464068579E+02  0.00000000000E+00 0.  1.
</event>
<event>
 7    1  0.2339217E-009  0.4778726E+02  0.7816164E-02  0.1312668E+00
        -11   -1    0    0    0    0  0.00000000000E+00  0.00000000000E+00  0.45593999997E+02  0.45594000000E+02  0.51100000000E-03 0. -1.
         11   -1    0    0    0    0 -0.00000000000E+00 -0.00000000000E+00 -0.45593999997E+02  0.45594000000E+02  0.51100000000E-03 0.  1.
    9900012    2    1    2    0    0 -0.42200202993E+02 -0.86266079985E+01 -0.53243162995E+01  0.47787264496E+02  0.19999970145E+02 0.  0.
         12    1    1    2    0    0  0.42200202993E+02  0.86266079985E+01  0.53243162995E+01  0.43400735504E+02  0.00000000000E+00 0. -1.
         11    1    3    3    0    0 -0.31042948441E+02 -0.12559081140E+02 -0.76208784826E+00  0.33495909379E+02  0.51100000000E-03 0. -1.
        -11    1    3    3    0    0 -0.77468973948E+01  0.23643902311E+01  0.35230951625E+00  0.81073351150E+01  0.51100000000E-03 0.  1.
         12    1    3    3    0    0 -0.34103571574E+01  0.15680829107E+01 -0.49145379675E+01  0.61840200024E+01  0.00000000000E+00 0. -1.
</event>
<event>
 7    1  0.2339217E-009  0.4778727E+02  0.7816164E-02  0.1312668E+00
        -11   -1    0    0    0    0  0.00000000000E+00  0.00000000000E+00  0.45593999997E+02  0.45594000000E+02  0.51100000000E-03 0.  1.
         11   -1    0    0    0    0 -0.00000000000E+00 -0.00000000000E+00 -0.45593999997E+02  0.45594000000E+02  0.51100000000E-03 0. -1.
    9900012    2    1    2    0    0  0.15001985236E+02  0.18524746615E+02  0.36268414341E+02  0.47787266400E+02  0.19999978825E+02 0.  0.
         12    1    1    2    0    0 -0.15001985236E+02 -0.18524746615E+02 -0.36268414341E+02  0.43400733600E+02  0.00000000000E+00 0. -1.
         11    1    3    3    0    0  0.61972592514E+01  0.28985270417E+01  0.74668347516E+01  0.10127245564E+02  0.51100000000E-03 0. -1.
        -11    1    3    3    0    0  0.77010656692E+00  0.12541984816E+02  0.73758799108E+01  0.14570451331E+02  0.51100000000E-03 0.  1.
        -12    1    3    3    0    0  0.80346194175E+01  0.30842347570E+01  0.21425699679E+02  0.23089569506E+02  0.00000000000E+00 0.  1.
</event>
<event>
 7    1  0.2339217E-009  0.4778727E+02  0.7816164E-02  0.1312668E+00
        -11   -1    0    0    0    0  0.00000000000E+00  0.00000000000E+00  0.45593999997E+02  0.45594000000E+02  0.51100000000E-03 0. -1.
         11   -1    0    0    0    0 -0.00000000000E+00 -0.00000000000E+00 -0.45593999997E+02  0.45594000000E+02  0.51100000000E-03 0.  1.
    9900012    2    1    2    0    0  0.13153580254E+02  0.11855453993E+02 -0.39623919214E+02  0.47787269168E+02  0.19999991446E+02 0.  0.
         12    1    1    2    0    0 -0.13153580254E+02 -0.11855453993E+02  0.39623919214E+02  0.43400730832E+02  0.00000000000E+00 0. -1.
         11    1    3    3    0    0  0.55216432687E+01  0.48036917467E+01 -0.77036913105E+01  0.10625952139E+02  0.51100000000E-03 0. -1.
        -11    1    3    3    0    0  0.21649780506E+01  0.11656531871E+02 -0.20812248542E+02  0.23952276611E+02  0.51100000000E-03 0.  1.
         12    1    3    3    0    0  0.54669589346E+01 -0.46047696246E+01 -0.11107979361E+02  0.13209040418E+02  0.00000000000E+00 0. -1.
</event>
<event>
 7    1  0.2339217E-009  0.4778727E+02  0.7816164E-02  0.1312668E+00
        -11   -1    0    0    0    0  0.00000000000E+00  0.00000000000E+00  0.45593999997E+02  0.45594000000E+02  0.51100000000E-03 0.  1.
         11   -1    0    0    0    0 -0.00000000000E+00 -0.00000000000E+00 -0.45593999997E+02  0.45594000000E+02  0.51100000000E-03 0. -1.
    9900012    2    1    2    0    0 -0.31800573458E+02 -0.19078079609E+02  0.22547145621E+02  0.47787269943E+02  0.19999994980E+02 0.  0.
         12    1    1    2    0    0  0.31800573458E+02  0.19078079609E+02 -0.22547145621E+02  0.43400730057E+02  0.00000000000E+00 0. -1.
         11    1    3    3    0    0 -0.13745548501E+02 -0.94679119029E+00  0.14733045870E+02  0.20171741572E+02  0.51100000000E-03 0. -1.
        -11    1    3    3    0    0 -0.78056850693E+00  0.38162717570E+00 -0.45248302838E+00  0.97962627942E+00  0.51100000000E-03 0.  1.
        -12    1    3    3    0    0 -0.17274456449E+02 -0.18512915594E+02  0.82665827792E+01  0.26635902092E+02  0.00000000000E+00 0.  1.
</event>
<event>
 7    1  0.2339217E-009  0.4778727E+02  0.7816164E-02  0.1312668E+00
        -11   -1    0    0    0    0  0.00000000000E+00  0.00000000000E+00  0.45593999997E+02  0.45594000000E+02  0.51100000000E-03 0.  1.
         11   -1    0    0    0    0 -0.00000000000E+00 -0.00000000000E+00 -0.45593999997E+02  0.45594000000E+02  0.51100000000E-03 0. -1.
    9900012    2    1    2    0    0  0.29357013091E+02 -0.19848112494E+02 -0.25056764255E+02  0.47787271641E+02  0.20000002718E+02 0.  0.
         12    1    1    2    0    0 -0.29357013091E+02  0.19848112494E+02  0.25056764255E+02  0.43400728359E+02  0.00000000000E+00 0. -1.
         11    1    3    3    0    0  0.12204755932E+02 -0.10032739947E+02 -0.42415959304E+00  0.15804804644E+02  0.51100000000E-03 0. -1.
        -11    1    3    3    0    0  0.40339914952E+01 -0.14208255731E+01 -0.26137098055E+01  0.50123160217E+01  0.51100000000E-03 0.  1.
        -12    1    3    3    0    0  0.13118265663E+02 -0.83945469743E+01 -0.22018894857E+02  0.26970150975E+02  0.00000000000E+00 0.  1.
</event>
<event>
 7    1  0.2339217E-009  0.4778727E+02  0.7816164E-02  0.1312668E+00
        -11   -1    0    0    0    0  0.00000000000E+00  0.00000000000E+00  0.45593999997E+02  0.45594000000E+02  0.51100000000E-03 0.  1.
         11   -1    0    0    0    0 -0.00000000000E+00 -0.00000000000E+00 -0.45593999997E+02  0.45594000000E+02  0.51100000000E-03 0. -1.
    9900012    2    1    2    0    0  0.41819231196E+02 -0.10135912610E+02  0.56602538272E+01  0.47787270794E+02  0.19999998858E+02 0.  0.
         12    1    1    2    0    0 -0.41819231196E+02  0.10135912610E+02 -0.56602538272E+01  0.43400729206E+02  0.00000000000E+00 0. -1.
         11    1    3    3    0    0  0.34072867819E+01 -0.18985552722E+01  0.14506530837E+01  0.41615513893E+01  0.51100000000E-03 0. -1.
        -11    1    3    3    0    0  0.39933630488E+02 -0.95056706332E+01  0.52574622021E+01  0.41384701609E+02  0.51100000000E-03 0.  1.
         12    1    3    3    0    0 -0.15216860747E+01  0.12683132952E+01 -0.10478614586E+01  0.22410177958E+01  0.00000000000E+00 0. -1.
</event>
<event>
 7    1  0.2339217E-009  0.4778727E+02  0.7816164E-02  0.1312668E+00
        -11   -1    0    0    0    0  0.00000000000E+00  0.00000000000E+00  0.45593999997E+02  0.45594000000E+02  0.51100000000E-03 0.  1.
         11   -1    0    0    0    0 -0.00000000000E+00 -0.00000000000E+00 -0.45593999997E+02  0.45594000000E+02  0.51100000000E-03 0. -1.
    9900012    2    1    2    0    0 -0.27218350058E+02 -0.80093160586E+01  0.32842590920E+02  0.47787268417E+02  0.19999988019E+02 0.  0.
         12    1    1    2    0    0  0.27218350058E+02  0.80093160586E+01 -0.32842590920E+02  0.43400731583E+02  0.00000000000E+00 0. -1.
         11    1    3    3    0    0 -0.16098706728E+01  0.24630302699E+01 -0.66723044761E+00  0.30171838567E+01  0.51100000000E-03 0. -1.
        -11    1    3    3    0    0 -0.13409095771E+02 -0.33883638106E+01  0.90331771416E+01  0.16519175168E+02  0.51100000000E-03 0.  1.
        -12    1    3    3    0    0 -0.12199383614E+02 -0.70839825180E+01  0.24476644226E+02  0.28250909392E+02  0.00000000000E+00 0.  1.
</event>
<event>
 7    1  0.2339217E-009  0.4778727E+02  0.7816164E-02  0.1312668E+00
        -11   -1    0    0    0    0  0.00000000000E+00  0.00000000000E+00  0.45593999997E+02  0.45594000000E+02  0.51100000000E-03 0.  1.
         11   -1    0    0    0    0 -0.00000000000E+00 -0.00000000000E+00 -0.45593999997E+02  0.45594000000E+02  0.51100000000E-03 0. -1.
    9900012    2    1    2    0    0  0.30471531143E+02  0.30195083981E+02 -0.65852584859E+01  0.47787274935E+02  0.20000017740E+02 0.  0.
         12    1    1    2    0    0 -0.30471531143E+02 -0.30195083981E+02  0.65852584859E+01  0.43400725065E+02  0.00000000000E+00 0. -1.
         11    1    3    3    0    0  0.34539258732E+01  0.40244130963E+01  0.38735056821E+01  0.65673092844E+01  0.51100000000E-03 0. -1.
        -11    1    3    3    0    0  0.16425495972E+02  0.10872352537E+02  0.35032559456E+00  0.19700956725E+02  0.51100000000E-03 0.  1.
         12    1    3    3    0    0  0.10592109298E+02  0.15298318347E+02 -0.10809089763E+02  0.21519008925E+02  0.00000000000E+00 0. -1.
</event>
