<event>
 7    1  0.5031164E-009  0.4778727E+02  0.7816164E-02  0.1312668E+00
        -11   -1    0    0    0    0  0.00000000000E+00  0.00000000000E+00  0.45593999997E+02  0.45594000000E+02  0.51100000000E-03 0.  1.
         11   -1    0    0    0    0 -0.00000000000E+00 -0.00000000000E+00 -0.45593999997E+02  0.45594000000E+02  0.51100000000E-03 0. -1.
    9900012    2    1    2    0    0 -0.98777759306E+01 -0.29709837878E+02  0.30056255936E+02  0.47787269074E+02  0.19999991014E+02 0.  0.
         12    1    1    2    0    0  0.98777759306E+01  0.29709837878E+02 -0.30056255936E+02  0.43400730926E+02  0.00000000000E+00 0. -1.
         11    1    3    3    0    0  0.32615441352E+01 -0.33947951817E+01  0.15510588906E+00  0.47102401817E+01  0.51100000000E-03 0. -1.
        -11    1    3    3    0    0 -0.47612919730E+01 -0.18397607399E+02  0.22155536816E+02  0.29189204702E+02  0.51100000000E-03 0.  1.
         12    1    3    3    0    0 -0.83780280928E+01 -0.79174352974E+01  0.77456132302E+01  0.13887824190E+02  0.00000000000E+00 0. -1.
</event>
<event>
 7    1  0.5031164E-009  0.4778727E+02  0.7816164E-02  0.1312668E+00
        -11   -1    0    0    0    0  0.00000000000E+00  0.00000000000E+00  0.45593999997E+02  0.45594000000E+02  0.51100000000E-03 0. -1.
         11   -1    0    0    0    0 -0.00000000000E+00 -0.00000000000E+00 -0.45593999997E+02  0.45594000000E+02  0.51100000000E-03 0.  1.
    9900012    2    1    2    0    0  0.20448236708E+02 -0.31420016555E+02 -0.21869504829E+02  0.47787273436E+02  0.20000010903E+02 0.  0.
         12    1    1    2    0    0 -0.20448236708E+02  0.31420016555E+02  0.21869504829E+02  0.43400726564E+02  0.00000000000E+00 0. -1.
         11    1    3    3    0    0  0.16365655196E+01 -0.30622297699E+01 -0.16770853042E+00  0.34761651681E+01  0.51100000000E-03 0. -1.
        -11    1    3    3    0    0  0.14106675159E+02 -0.61311022223E+01 -0.12416856875E+02  0.19767828242E+02  0.51100000000E-03 0.  1.
        -12    1    3    3    0    0  0.47049960303E+01 -0.22226684563E+02 -0.92849394236E+01  0.24543280026E+02  0.00000000000E+00 0.  1.
</event>
<event>
 7    1  0.5031164E-009  0.4778727E+02  0.7816164E-02  0.1312668E+00
        -11   -1    0    0    0    0  0.00000000000E+00  0.00000000000E+00  0.45593999997E+02  0.45594000000E+02  0.51100000000E-03 0.  1.
         11   -1    0    0    0    0 -0.00000000000E+00 -0.00000000000E+00 -0.45593999997E+02  0.45594000000E+02  0.51100000000E-03 0. -1.
    9900012    2    1    2    0    0  0.16355588583E+02 -0.96942561116E+01  0.39014606564E+02  0.47787269536E+02  0.19999993124E+02 0.  0.
         12    1    1    2    0    0 -0.16355588583E+02  0.96942561116E+01 -0.39014606564E+02  0.43400730464E+02  0.00000000000E+00 0. -1.
         11    1    3    3    0    0  0.75570811058E+00 -0.59468113887E+01  0.16843775860E+02  0.17878714885E+02  0.51100000000E-03 0. -1.
        -11    1    3    3    0    0  0.73992407287E+01 -0.43043703812E+01  0.19450030884E+02  0.21250413393E+02  0.51100000000E-03 0.  1.
         12    1    3    3    0    0  0.82006397438E+01  0.55692565820E+00  0.27207998201E+01  0.86581412588E+01  0.00000000000E+00 0. -1.
</event>
<event>
 7    1  0.5031164E-009  0.4778727E+02  0.7816164E-02  0.1312668E+00
        -11   -1    0    0    0    0  0.00000000000E+00  0.00000000000E+00  0.45593999997E+02  0.45594000000E+02  0.51100000000E-03 0.  1.
         11   -1    0    0    0    0 -0.00000000000E+00 -0.00000000000E+00 -0.45593999997E+02  0.45594000000E+02  0.51100000000E-03 0. -1.
    9900012    2    1    2    0    0  0.23384588679E+02  0.26449782719E+02  0.25242683513E+02  0.47787273457E+02  0.20000011000E+02 0.  0.
         12    1    1    2    0    0 -0.23384588679E+02 -0.26449782719E+02 -0.25242683513E+02  0.43400726543E+02  0.00000000000E+00 0. -1.
         11    1    3    3    0    0 -0.13115896370E+01  0.33795671615E+01  0.83601138037E+01  0.91122579335E+01  0.51100000000E-03 0. -1.
        -11    1    3    3    0    0  0.44714363805E+01  0.92050728477E+01  0.58343721304E+01  0.11779940910E+02  0.51100000000E-03 0.  1.
         12    1    3    3    0    0  0.20224741935E+02  0.13865142710E+02  0.11048197578E+02  0.26895074613E+02  0.00000000000E+00 0. -1.
</event>
<event>
 7    1  0.5031164E-009  0.4778732E+02  0.7816164E-02  0.1312668E+00
        -11   -1    0    0    0    0  0.00000000000E+00  0.00000000000E+00  0.45593999997E+02  0.45594000000E+02  0.51100000000E-03 0.  1.
         11   -1    0    0    0    0 -0.00000000000E+00 -0.00000000000E+00 -0.45593999997E+02  0.45594000000E+02  0.51100000000E-03 0. -1.
    9900012    2    1    2    0    0  0.35392979352E+02  0.24209292833E+02  0.66982008621E+01  0.47787323258E+02  0.20000238062E+02 0.  0.
         12    1    1    2    0    0 -0.35392979352E+02 -0.24209292833E+02 -0.66982008621E+01  0.43400676742E+02  0.00000000000E+00 0. -1.
         11    1    3    3    0    0 -0.48242133161E+00 -0.21625348274E+01 -0.41236759375E+00  0.22537378984E+01  0.51100000000E-03 0. -1.
        -11    1    3    3    0    0  0.31454700377E+02  0.20196626081E+02  0.58994503226E+01  0.37843168409E+02  0.51100000000E-03 0.  1.
         12    1    3    3    0    0  0.44207003067E+01  0.61752015794E+01  0.12111181332E+01  0.76904169510E+01  0.00000000000E+00 0. -1.
</event>
<event>
 7    1  0.5031164E-009  0.4778726E+02  0.7816164E-02  0.1312668E+00
        -11   -1    0    0    0    0  0.00000000000E+00  0.00000000000E+00  0.45593999997E+02  0.45594000000E+02  0.51100000000E-03 0.  1.
         11   -1    0    0    0    0 -0.00000000000E+00 -0.00000000000E+00 -0.45593999997E+02  0.45594000000E+02  0.51100000000E-03 0. -1.
    9900012    2    1    2    0    0 -0.33986962326E+02  0.16021421361E+02  0.21721527198E+02  0.47787259287E+02  0.19999946395E+02 0.  0.
         12    1    1    2    0    0  0.33986962326E+02 -0.16021421361E+02 -0.21721527198E+02  0.43400740713E+02  0.00000000000E+00 0. -1.
         11    1    3    3    0    0  0.93910168602E+00  0.37953121803E-01  0.69074893168E+00  0.11663990586E+01  0.51100000000E-03 0. -1.
        -11    1    3    3    0    0 -0.73526682017E+01  0.39485794402E+01  0.13057561324E+02  0.15496867983E+02  0.51100000000E-03 0.  1.
        -12    1    3    3    0    0 -0.27573395810E+02  0.12034888799E+02  0.79732169418E+01  0.31123992246E+02  0.00000000000E+00 0.  1.
</event>
<event>
 7    1  0.5031164E-009  0.4778727E+02  0.7816164E-02  0.1312668E+00
        -11   -1    0    0    0    0  0.00000000000E+00  0.00000000000E+00  0.45593999997E+02  0.45594000000E+02  0.51100000000E-03 0.  1.
         11   -1    0    0    0    0 -0.00000000000E+00 -0.00000000000E+00 -0.45593999997E+02  0.45594000000E+02  0.51100000000E-03 0. -1.
    9900012    2    1    2    0    0  0.33811384952E+02  0.14253673409E+02  0.23178574516E+02  0.47787271036E+02  0.19999999962E+02 0.  0.
         12    1    1    2    0    0 -0.33811384952E+02 -0.14253673409E+02 -0.23178574516E+02  0.43400728964E+02  0.00000000000E+00 0. -1.
         11    1    3    3    0    0  0.77867320541E+01 -0.17938138554E+01 -0.14990008776E+01  0.81300656899E+01  0.51100000000E-03 0. -1.
        -11    1    3    3    0    0  0.17473668015E+02  0.79718131253E+01  0.13945662349E+02  0.23735213861E+02  0.51100000000E-03 0.  1.
         12    1    3    3    0    0  0.85509848828E+01  0.80756741389E+01  0.10731913045E+02  0.15921991485E+02  0.00000000000E+00 0. -1.
</event>
<event>
 7    1  0.5031164E-009  0.4778727E+02  0.7816164E-02  0.1312668E+00
        -11   -1    0    0    0    0  0.00000000000E+00  0.00000000000E+00  0.45593999997E+02  0.45594000000E+02  0.51100000000E-03 0. -1.
         11   -1    0    0    0    0 -0.00000000000E+00 -0.00000000000E+00 -0.45593999997E+02  0.45594000000E+02  0.51100000000E-03 0.  1.
    9900012    2    1    2    0    0  0.33765029514E+02  0.25864268667E+02 -0.86363067670E+01  0.47787269518E+02  0.19999993042E+02 0.  0.
         12    1    1    2    0    0 -0.33765029514E+02 -0.25864268667E+02  0.86363067670E+01  0.43400730482E+02  0.00000000000E+00 0. -1.
         11    1    3    3    0    0  0.11401242969E+02  0.27883038912E+01 -0.80634349305E+01  0.14240153193E+02  0.51100000000E-03 0.  1.
        -11    1    3    3    0    0  0.37852186033E+01  0.10322837391E+02  0.24609718515E+00  0.10997700476E+02  0.51100000000E-03 0. -1.
         12    1    3    3    0    0  0.18578567941E+02  0.12753127385E+02 -0.81896902169E+00  0.22549415848E+02  0.00000000000E+00 0. -1.
</event>
<event>
 7    1  0.5031164E-009  0.4778727E+02  0.7816164E-02  0.1312668E+00
        -11   -1    0    0    0    0  0.00000000000E+00  0.00000000000E+00  0.45593999997E+02  0.45594000000E+02  0.51100000000E-03 0. -1.
         11   -1    0    0    0    0 -0.00000000000E+00 -0.00000000000E+00 -0.45593999997E+02  0.45594000000E+02  0.51100000000E-03 0.  1.
    9900012    2    1    2    0    0  0.30204523456E+02  0.26847319253E+02 -0.15828191318E+02  0.47787269261E+02  0.19999991868E+02 0.  0.
         12    1    1    2    0    0 -0.30204523456E+02 -0.26847319253E+02  0.15828191318E+02  0.43400730739E+02  0.00000000000E+00 0. -1.
         11    1    3    3    0    0  0.14627231681E+02  0.28854309059E+01 -0.34799393508E+01  0.15309852916E+02  0.51100000000E-03 0. -1.
        -11    1    3    3    0    0  0.14148298350E+02  0.24348215845E+02 -0.10375446862E+02  0.30010995633E+02  0.51100000000E-03 0.  1.
        -12    1    3    3    0    0  0.14289934259E+01 -0.38632749796E+00 -0.19728051054E+01  0.24664207124E+01  0.00000000000E+00 0.  1.
</event>
<event>
 7    1  0.5031164E-009  0.4778728E+02  0.7816164E-02  0.1312668E+00
        -11   -1    0    0    0    0  0.00000000000E+00  0.00000000000E+00  0.45593999997E+02  0.45594000000E+02  0.51100000000E-03 0. -1.
         11   -1    0    0    0    0 -0.00000000000E+00 -0.00000000000E+00 -0.45593999997E+02  0.45594000000E+02  0.51100000000E-03 0.  1.
    9900012    2    1    2    0    0  0.32543509120E+02  0.18128745855E+02 -0.22268620744E+02  0.47787275559E+02  0.20000020584E+02 0.  0.
         12    1    1    2    0    0 -0.32543509120E+02 -0.18128745855E+02  0.22268620744E+02  0.43400724441E+02  0.00000000000E+00 0. -1.
         11    1    3    3    0    0  0.15768458106E+02 -0.78876135032E-01 -0.44869497693E+01  0.16394609205E+02  0.51100000000E-03 0. -1.
        -11    1    3    3    0    0  0.14099251159E+02  0.10702352978E+02 -0.14023208435E+02  0.22582728303E+02  0.51100000000E-03 0.  1.
         12    1    3    3    0    0  0.26757998554E+01  0.75052690127E+01 -0.37584625395E+01  0.88099380520E+01  0.00000000000E+00 0. -1.
</event>
<event>
 7    1  0.5031164E-009  0.4778727E+02  0.7816164E-02  0.1312668E+00
        -11   -1    0    0    0    0  0.00000000000E+00  0.00000000000E+00  0.45593999997E+02  0.45594000000E+02  0.51100000000E-03 0. -1.
         11   -1    0    0    0    0 -0.00000000000E+00 -0.00000000000E+00 -0.45593999997E+02  0.45594000000E+02  0.51100000000E-03 0.  1.
    9900012    2    1    2    0    0 -0.40488967648E+02  0.14624952907E+01 -0.15560457096E+02  0.47787271680E+02  0.20000002899E+02 0.  0.
         12    1    1    2    0    0  0.40488967648E+02 -0.14624952907E+01  0.15560457096E+02  0.43400728320E+02  0.00000000000E+00 0. -1.
         11    1    3    3    0    0 -0.13916186340E+01  0.40136480231E+01  0.18852198295E+01  0.46475829140E+01  0.51100000000E-03 0. -1.
        -11    1    3    3    0    0 -0.27563685444E+02 -0.37784139755E+01 -0.11483340395E+02  0.30098177259E+02  0.51100000000E-03 0.  1.
         12    1    3    3    0    0 -0.11533663570E+02  0.12272612431E+01 -0.59623365298E+01  0.13041511507E+02  0.00000000000E+00 0. -1.
</event>
<event>
 7    1  0.5031164E-009  0.4778728E+02  0.7816164E-02  0.1312668E+00
        -11   -1    0    0    0    0  0.00000000000E+00  0.00000000000E+00  0.45593999997E+02  0.45594000000E+02  0.51100000000E-03 0.  1.
         11   -1    0    0    0    0 -0.00000000000E+00 -0.00000000000E+00 -0.45593999997E+02  0.45594000000E+02  0.51100000000E-03 0. -1.
    9900012    2    1    2    0    0  0.55091536730E+01  0.34072409824E+02  0.26312408749E+02  0.47787277200E+02  0.20000028065E+02 0.  0.
         12    1    1    2    0    0 -0.55091536730E+01 -0.34072409824E+02 -0.26312408749E+02  0.43400722800E+02  0.00000000000E+00 0. -1.
         11    1    3    3    0    0  0.16209355876E+01  0.74147897884E+01  0.14411049668E+02  0.16287568651E+02  0.51100000000E-03 0. -1.
        -11    1    3    3    0    0  0.34306868797E+01  0.27544336644E+02  0.10287376470E+02  0.29602199387E+02  0.51100000000E-03 0.  1.
        -12    1    3    3    0    0  0.45753120565E+00 -0.88671660897E+00  0.16139826110E+01  0.18975091614E+01  0.00000000000E+00 0.  1.
</event>
<event>
 7    1  0.5031164E-009  0.4778727E+02  0.7816164E-02  0.1312668E+00
        -11   -1    0    0    0    0  0.00000000000E+00  0.00000000000E+00  0.45593999997E+02  0.45594000000E+02  0.51100000000E-03 0. -1.
         11   -1    0    0    0    0 -0.00000000000E+00 -0.00000000000E+00 -0.45593999997E+02  0.45594000000E+02  0.51100000000E-03 0.  1.
    9900012    2    1    2    0    0  0.17671815361E+02 -0.36201322206E+02  0.16149134291E+02  0.47787270445E+02  0.19999997265E+02 0.  0.
         12    1    1    2    0    0 -0.17671815361E+02  0.36201322206E+02 -0.16149134291E+02  0.43400729555E+02  0.00000000000E+00 0. -1.
         11    1    3    3    0    0  0.18482649018E+01 -0.46196562019E+01  0.54760764646E+01  0.73989675143E+01  0.51100000000E-03 0. -1.
        -11    1    3    3    0    0  0.14205644222E+01  0.14084509907E+01  0.29624625861E+01  0.35746219808E+01  0.51100000000E-03 0.  1.
        -12    1    3    3    0    0  0.14402986037E+02 -0.32990116994E+02  0.77105952399E+01  0.36813680950E+02  0.00000000000E+00 0.  1.
</event>
<event>
 7    1  0.5031164E-009  0.4778727E+02  0.7816164E-02  0.1312668E+00
        -11   -1    0    0    0    0  0.00000000000E+00  0.00000000000E+00  0.45593999997E+02  0.45594000000E+02  0.51100000000E-03 0.  1.
         11   -1    0    0    0    0 -0.00000000000E+00 -0.00000000000E+00 -0.45593999997E+02  0.45594000000E+02  0.51100000000E-03 0. -1.
    9900012    2    1    2    0    0  0.43242163364E+02  0.37084094510E+00 -0.36879531904E+01  0.47787271733E+02  0.20000003139E+02 0.  0.
         12    1    1    2    0    0 -0.43242163364E+02 -0.37084094510E+00  0.36879531904E+01  0.43400728267E+02  0.00000000000E+00 0. -1.
         11    1    3    3    0    0  0.30847999079E+02  0.52274528030E+01  0.35508125128E+01  0.31488626196E+02  0.51100000000E-03 0. -1.
        -11    1    3    3    0    0  0.19842884568E+01  0.31665734924E+00  0.80272471855E+00  0.21638021609E+01  0.51100000000E-03 0.  1.
         12    1    3    3    0    0  0.10409875828E+02 -0.51732692072E+01 -0.80414904218E+01  0.14134843375E+02  0.00000000000E+00 0. -1.
</event>
<event>
 7    1  0.5031164E-009  0.4778727E+02  0.7816164E-02  0.1312668E+00
        -11   -1    0    0    0    0  0.00000000000E+00  0.00000000000E+00  0.45593999997E+02  0.45594000000E+02  0.51100000000E-03 0.  1.
         11   -1    0    0    0    0 -0.00000000000E+00 -0.00000000000E+00 -0.45593999997E+02  0.45594000000E+02  0.51100000000E-03 0. -1.
    9900012    2    1    2    0    0 -0.16732120029E+02  0.32597651774E+01  0.39912821498E+02  0.47787271555E+02  0.20000002327E+02 0.  0.
         12    1    1    2    0    0  0.16732120029E+02 -0.32597651774E+01 -0.39912821498E+02  0.43400728445E+02  0.00000000000E+00 0. -1.
         11    1    3    3    0    0 -0.12096782460E+02  0.96759559796E+01  0.25112727822E+02  0.29506022588E+02  0.51100000000E-03 0. -1.
        -11    1    3    3    0    0 -0.58002630378E+01 -0.51136851386E+01  0.14601426399E+02  0.16522544603E+02  0.51100000000E-03 0.  1.
         12    1    3    3    0    0  0.11649254697E+01 -0.13025056636E+01  0.19866727655E+00  0.17587043641E+01  0.00000000000E+00 0. -1.
</event>
<event>
 7    1  0.5031164E-009  0.4778727E+02  0.7816164E-02  0.1312668E+00
        -11   -1    0    0    0    0  0.00000000000E+00  0.00000000000E+00  0.45593999997E+02  0.45594000000E+02  0.51100000000E-03 0.  1.
         11   -1    0    0    0    0 -0.00000000000E+00 -0.00000000000E+00 -0.45593999997E+02  0.45594000000E+02  0.51100000000E-03 0. -1.
    9900012    2    1    2    0    0  0.36835199323E+02 -0.21022212757E+02 -0.92118321539E+01  0.47787272010E+02  0.20000004404E+02 0.  0.
         12    1    1    2    0    0 -0.36835199323E+02  0.21022212757E+02  0.92118321539E+01  0.43400727990E+02  0.00000000000E+00 0. -1.
         11    1    3    3    0    0  0.15386673881E+02 -0.15437340918E+02 -0.46596012377E+01  0.22288407563E+02  0.51100000000E-03 0. -1.
        -11    1    3    3    0    0  0.53267991379E+01  0.12678338581E+01  0.32004313619E+01  0.63423144759E+01  0.51100000000E-03 0.  1.
         12    1    3    3    0    0  0.16121726305E+02 -0.68527056965E+01 -0.77526622781E+01  0.19156549971E+02  0.00000000000E+00 0. -1.
</event>
<event>
 7    1  0.5031164E-009  0.4778726E+02  0.7816164E-02  0.1312668E+00
        -11   -1    0    0    0    0  0.00000000000E+00  0.00000000000E+00  0.45593999997E+02  0.45594000000E+02  0.51100000000E-03 0.  1.
         11   -1    0    0    0    0 -0.00000000000E+00 -0.00000000000E+00 -0.45593999997E+02  0.45594000000E+02  0.51100000000E-03 0. -1.
    9900012    2    1    2    0    0 -0.16693113709E+02  0.39949967928E+02 -0.29939777430E+01  0.47787263998E+02  0.19999967873E+02 0.  0.
         12    1    1    2    0    0  0.16693113709E+02 -0.39949967928E+02  0.29939777430E+01  0.43400736002E+02  0.00000000000E+00 0. -1.
         11    1    3    3    0    0 -0.76856026045E+01  0.13123492468E+02 -0.72280801458E+01  0.16838636667E+02  0.51100000000E-03 0. -1.
        -11    1    3    3    0    0 -0.51708579804E+01  0.68463213368E+01  0.60865058006E+01  0.10519289007E+02  0.51100000000E-03 0.  1.
        -12    1    3    3    0    0 -0.38366531243E+01  0.19980154124E+02 -0.18524033978E+01  0.20429338324E+02  0.00000000000E+00 0.  1.
</event>
<event>
 7    1  0.5031164E-009  0.4778726E+02  0.7816164E-02  0.1312668E+00
        -11   -1    0    0    0    0  0.00000000000E+00  0.00000000000E+00  0.45593999997E+02  0.45594000000E+02  0.51100000000E-03 0.  1.
         11   -1    0    0    0    0 -0.00000000000E+00 -0.00000000000E+00 -0.45593999997E+02  0.45594000000E+02  0.51100000000E-03 0. -1.
    9900012    2    1    2    0    0  0.12495032028E+02  0.17055491320E+02  0.37902615699E+02  0.47787263989E+02  0.19999967831E+02 0.  0.
         12    1    1    2    0    0 -0.12495032028E+02 -0.17055491320E+02 -0.37902615699E+02  0.43400736011E+02  0.00000000000E+00 0. -1.
         11    1    3    3    0    0  0.76383876432E+00  0.13347125110E+02  0.22920908439E+02  0.26534830738E+02  0.51100000000E-03 0.  1.
        -11    1    3    3    0    0  0.41061748456E+01 -0.74490663538E+00  0.38273923233E+00  0.41907096463E+01  0.51100000000E-03 0. -1.
         12    1    3    3    0    0  0.76250184177E+01  0.44532728450E+01  0.14598968027E+02  0.17061723604E+02  0.00000000000E+00 0. -1.
</event>
<event>
 7    1  0.5031164E-009  0.4778727E+02  0.7816164E-02  0.1312668E+00
        -11   -1    0    0    0    0  0.00000000000E+00  0.00000000000E+00  0.45593999997E+02  0.45594000000E+02  0.51100000000E-03 0. -1.
         11   -1    0    0    0    0 -0.00000000000E+00 -0.00000000000E+00 -0.45593999997E+02  0.45594000000E+02  0.51100000000E-03 0.  1.
    9900012    2    1    2    0    0  0.22473440809E+02 -0.36973581960E+02  0.33943842188E+01  0.47787272483E+02  0.20000006561E+02 0.  0.
         12    1    1    2    0    0 -0.22473440809E+02  0.36973581960E+02 -0.33943842188E+01  0.43400727517E+02  0.00000000000E+00 0. -1.
         11    1    3    3    0    0  0.11755131118E+02 -0.26117768001E+02  0.88984058577E+01  0.29991707854E+02  0.51100000000E-03 0. -1.
        -11    1    3    3    0    0  0.67734515860E+01 -0.77685124987E+01  0.62478812400E-01  0.10306955743E+02  0.51100000000E-03 0.  1.
         12    1    3    3    0    0  0.39448581044E+01 -0.30873014607E+01 -0.55665004513E+01  0.74886088860E+01  0.00000000000E+00 0. -1.
</event>
<event>
 7    1  0.5031164E-009  0.4778727E+02  0.7816164E-02  0.1312668E+00
        -11   -1    0    0    0    0  0.00000000000E+00  0.00000000000E+00  0.45593999997E+02  0.45594000000E+02  0.51100000000E-03 0.  1.
         11   -1    0    0    0    0 -0.00000000000E+00 -0.00000000000E+00 -0.45593999997E+02  0.45594000000E+02  0.51100000000E-03 0. -1.
    9900012    2    1    2    0    0 -0.29352429038E+02  0.10304637064E+02  0.30263386491E+02  0.47787271926E+02  0.20000004020E+02 0.  0.
         12    1    1    2    0    0  0.29352429038E+02 -0.10304637064E+02 -0.30263386491E+02  0.43400728074E+02  0.00000000000E+00 0. -1.
         11    1    3    3    0    0 -0.14893828186E+02  0.53955277330E+01  0.33404952123E+01  0.16189402277E+02  0.51100000000E-03 0. -1.
        -11    1    3    3    0    0 -0.11866953446E+02  0.30160866946E+01  0.25049114022E+02  0.27881525722E+02  0.51100000000E-03 0.  1.
        -12    1    3    3    0    0 -0.25916474056E+01  0.18930226366E+01  0.18737772569E+01  0.37163439273E+01  0.00000000000E+00 0.  1.
</event>
<event>
 7    1  0.5031164E-009  0.4778727E+02  0.7816164E-02  0.1312668E+00
        -11   -1    0    0    0    0  0.00000000000E+00  0.00000000000E+00  0.45593999997E+02  0.45594000000E+02  0.51100000000E-03 0.  1.
         11   -1    0    0    0    0 -0.00000000000E+00 -0.00000000000E+00 -0.45593999997E+02  0.45594000000E+02  0.51100000000E-03 0. -1.
    9900012    2    1    2    0    0 -0.65976246739E+01 -0.38383402664E+02 -0.19152250005E+02  0.47787274986E+02  0.20000017973E+02 0.  0.
         12    1    1    2    0    0  0.65976246739E+01  0.38383402664E+02  0.19152250005E+02  0.43400725014E+02  0.00000000000E+00 0. -1.
         11    1    3    3    0    0 -0.27634208714E+00 -0.78534183835E+01  0.32998299298E+01  0.85229937863E+01  0.51100000000E-03 0. -1.
        -11    1    3    3    0    0 -0.50969177521E+01 -0.23368022029E+02 -0.12631575681E+02  0.27048100277E+02  0.51100000000E-03 0.  1.
         12    1    3    3    0    0 -0.12243648347E+01 -0.71619622515E+01 -0.98205042547E+01  0.12216180924E+02  0.00000000000E+00 0. -1.
</event>
<event>
 7    1  0.5031164E-009  0.4778727E+02  0.7816164E-02  0.1312668E+00
        -11   -1    0    0    0    0  0.00000000000E+00  0.00000000000E+00  0.45593999997E+02  0.45594000000E+02  0.51100000000E-03 0.  1.
         11   -1    0    0    0    0 -0.00000000000E+00 -0.00000000000E+00 -0.45593999997E+02  0.45594000000E+02  0.51100000000E-03 0. -1.
    9900012    2    1    2    0    0  0.17295915291E+02 -0.24788126910E+02  0.31145198006E+02  0.47787270971E+02  0.19999999665E+02 0.  0.
         12    1    1    2    0    0 -0.17295915291E+02  0.24788126910E+02 -0.31145198006E+02  0.43400729029E+02  0.00000000000E+00 0. -1.
         11    1    3    3    0    0 -0.18887442022E+00 -0.14221297705E+02  0.75643129703E+01  0.16108997887E+02  0.51100000000E-03 0. -1.
        -11    1    3    3    0    0  0.91425229368E+01 -0.86480038934E+01  0.13595452156E+02  0.18525928224E+02  0.51100000000E-03 0.  1.
         12    1    3    3    0    0  0.83422667742E+01 -0.19188253115E+01  0.99854328793E+01  0.13152344859E+02  0.00000000000E+00 0. -1.
</event>
<event>
 7    1  0.5031164E-009  0.4778729E+02  0.7816164E-02  0.1312668E+00
        -11   -1    0    0    0    0  0.00000000000E+00  0.00000000000E+00  0.45593999997E+02  0.45594000000E+02  0.51100000000E-03 0.  1.
         11   -1    0    0    0    0 -0.00000000000E+00 -0.00000000000E+00 -0.45593999997E+02  0.45594000000E+02  0.51100000000E-03 0. -1.
    9900012    2    1    2    0    0  0.16215119929E+02 -0.27684248790E+02  0.29227960139E+02  0.47787292641E+02  0.20000098467E+02 0.  0.
         12    1    1    2    0    0 -0.16215119929E+02  0.27684248790E+02 -0.29227960139E+02  0.43400707359E+02  0.00000000000E+00 0. -1.
         11    1    3    3    0    0  0.17090345584E+02 -0.21243360905E+02  0.24155934253E+02  0.36426219330E+02  0.51100000000E-03 0.  1.
        -11    1    3    3    0    0 -0.43308061653E+01 -0.42880094309E+01  0.30060883023E+01  0.67955481062E+01  0.51100000000E-03 0. -1.
         12    1    3    3    0    0  0.34555805100E+01 -0.21528784540E+01  0.20659375829E+01  0.45655252048E+01  0.00000000000E+00 0. -1.
</event>
<event>
 7    1  0.5031164E-009  0.4778727E+02  0.7816164E-02  0.1312668E+00
        -11   -1    0    0    0    0  0.00000000000E+00  0.00000000000E+00  0.45593999997E+02  0.45594000000E+02  0.51100000000E-03 0.  1.
         11   -1    0    0    0    0 -0.00000000000E+00 -0.00000000000E+00 -0.45593999997E+02  0.45594000000E+02  0.51100000000E-03 0. -1.
    9900012    2    1    2    0    0  0.24173825719E+02 -0.35161679931E+02  0.79313260381E+01  0.47787268230E+02  0.19999987167E+02 0.  0.
         12    1    1    2    0    0 -0.24173825719E+02  0.35161679931E+02 -0.79313260381E+01  0.43400731770E+02  0.00000000000E+00 0. -1.
         11    1    3    3    0    0 -0.14752027417E+01 -0.52835822448E+01  0.46356353908E+01  0.71820317602E+01  0.51100000000E-03 0. -1.
        -11    1    3    3    0    0  0.71000772075E+01 -0.13446061535E+02  0.43080626794E+01  0.15804020738E+02  0.51100000000E-03 0.  1.
         12    1    3    3    0    0  0.18548951253E+02 -0.16432036151E+02 -0.10123720321E+01  0.24801215732E+02  0.00000000000E+00 0. -1.
</event>
<event>
 7    1  0.5031164E-009  0.4778727E+02  0.7816164E-02  0.1312668E+00
        -11   -1    0    0    0    0  0.00000000000E+00  0.00000000000E+00  0.45593999997E+02  0.45594000000E+02  0.51100000000E-03 0.  1.
         11   -1    0    0    0    0 -0.00000000000E+00 -0.00000000000E+00 -0.45593999997E+02  0.45594000000E+02  0.51100000000E-03 0. -1.
    9900012    2    1    2    0    0 -0.26012881145E+01 -0.19270473146E+02  0.38800842881E+02  0.47787271396E+02  0.20000001602E+02 0.  0.
         12    1    1    2    0    0  0.26012881145E+01  0.19270473146E+02 -0.38800842881E+02  0.43400728604E+02  0.00000000000E+00 0. -1.
         11    1    3    3    0    0  0.21626787242E+01 -0.13007529870E+02  0.33303155987E+02  0.35818615433E+02  0.51100000000E-03 0. -1.
        -11    1    3    3    0    0 -0.31760941245E+01 -0.43048012042E+01  0.71681945827E+01  0.89443781859E+01  0.51100000000E-03 0.  1.
         12    1    3    3    0    0 -0.15878727142E+01 -0.19581420720E+01 -0.16705076894E+01  0.30242777768E+01  0.00000000000E+00 0. -1.
</event>
<event>
 7    1  0.5031164E-009  0.4778727E+02  0.7816164E-02  0.1312668E+00
        -11   -1    0    0    0    0  0.00000000000E+00  0.00000000000E+00  0.45593999997E+02  0.45594000000E+02  0.51100000000E-03 0.  1.
         11   -1    0    0    0    0 -0.00000000000E+00 -0.00000000000E+00 -0.45593999997E+02  0.45594000000E+02  0.51100000000E-03 0. -1.
    9900012    2    1    2    0    0 -0.29030992118E+02  0.17585168905E+02  0.27047856592E+02  0.47787271723E+02  0.20000003093E+02 0.  0.
         12    1    1    2    0    0  0.29030992118E+02 -0.17585168905E+02 -0.27047856592E+02  0.43400728277E+02  0.00000000000E+00 0. -1.
         11    1    3    3    0    0 -0.30364361172E+01 -0.13908562000E+01  0.37017835991E+01  0.49857424060E+01  0.51100000000E-03 0. -1.
        -11    1    3    3    0    0 -0.21269066572E+02  0.61594022001E+01  0.13121766554E+02  0.25738923561E+02  0.51100000000E-03 0.  1.
        -12    1    3    3    0    0 -0.47254894284E+01  0.12816622905E+02  0.10224306439E+02  0.17062605755E+02  0.00000000000E+00 0.  1.
</event>
<event>
 7    1  0.5031164E-009  0.4778727E+02  0.7816164E-02  0.1312668E+00
        -11   -1    0    0    0    0  0.00000000000E+00  0.00000000000E+00  0.45593999997E+02  0.45594000000E+02  0.51100000000E-03 0.  1.
         11   -1    0    0    0    0 -0.00000000000E+00 -0.00000000000E+00 -0.45593999997E+02  0.45594000000E+02  0.51100000000E-03 0. -1.
    9900012    2    1    2    0    0 -0.11401794633E+01 -0.42955378543E+02  0.60958114041E+01  0.47787268765E+02  0.19999989609E+02 0.  0.
         12    1    1    2    0    0  0.11401794633E+01  0.42955378543E+02 -0.60958114041E+01  0.43400731235E+02  0.00000000000E+00 0. -1.
         11    1    3    3    0    0 -0.51610004479E+01 -0.32587717765E+02 -0.13988708648E+01  0.33023508516E+02  0.51100000000E-03 0. -1.
        -11    1    3    3    0    0  0.51131037232E+01 -0.85437940981E+01  0.41208201995E+01  0.10775964303E+02  0.51100000000E-03 0.  1.
         12    1    3    3    0    0 -0.10922827386E+01 -0.18238666802E+01  0.33738620695E+01  0.39877959466E+01  0.00000000000E+00 0. -1.
</event>
<event>
 7    1  0.5031164E-009  0.4778728E+02  0.7816164E-02  0.1312668E+00
        -11   -1    0    0    0    0  0.00000000000E+00  0.00000000000E+00  0.45593999997E+02  0.45594000000E+02  0.51100000000E-03 0.  1.
         11   -1    0    0    0    0 -0.00000000000E+00 -0.00000000000E+00 -0.45593999997E+02  0.45594000000E+02  0.51100000000E-03 0. -1.
    9900012    2    1    2    0    0  0.40762167607E+02 -0.12274644642E+02  0.84499407695E+01  0.47787277562E+02  0.20000029715E+02 0.  0.
         12    1    1    2    0    0 -0.40762167607E+02  0.12274644642E+02 -0.84499407695E+01  0.43400722438E+02  0.00000000000E+00 0. -1.
         11    1    3    3    0    0  0.14885955266E+02 -0.29868299439E+01  0.10090707613E+02  0.18230063020E+02  0.51100000000E-03 0. -1.
        -11    1    3    3    0    0  0.15460174127E+02 -0.10969131097E+02 -0.80544676599E+00  0.18973338289E+02  0.51100000000E-03 0.  1.
         12    1    3    3    0    0  0.10416038214E+02  0.16813163991E+01 -0.83532007786E+00  0.10583876253E+02  0.00000000000E+00 0. -1.
</event>
<event>
 7    1  0.5031164E-009  0.4778727E+02  0.7816164E-02  0.1312668E+00
        -11   -1    0    0    0    0  0.00000000000E+00  0.00000000000E+00  0.45593999997E+02  0.45594000000E+02  0.51100000000E-03 0.  1.
         11   -1    0    0    0    0 -0.00000000000E+00 -0.00000000000E+00 -0.45593999997E+02  0.45594000000E+02  0.51100000000E-03 0. -1.
    9900012    2    1    2    0    0 -0.22388752608E+02 -0.19911424586E+02  0.31399083089E+02  0.47787268541E+02  0.19999988584E+02 0.  0.
         12    1    1    2    0    0  0.22388752608E+02  0.19911424586E+02 -0.31399083089E+02  0.43400731459E+02  0.00000000000E+00 0. -1.
         11    1    3    3    0    0 -0.20020538402E+02 -0.19998698483E+02  0.18265622533E+02  0.33680897638E+02  0.51100000000E-03 0. -1.
        -11    1    3    3    0    0 -0.19928971363E+01 -0.20057181178E+01  0.93282159616E+01  0.97473153971E+01  0.51100000000E-03 0.  1.
         12    1    3    3    0    0 -0.37531706906E+00  0.20929920147E+01  0.38052445940E+01  0.43590555050E+01  0.00000000000E+00 0. -1.
</event>
<event>
 7    1  0.5031164E-009  0.4778727E+02  0.7816164E-02  0.1312668E+00
        -11   -1    0    0    0    0  0.00000000000E+00  0.00000000000E+00  0.45593999997E+02  0.45594000000E+02  0.51100000000E-03 0. -1.
         11   -1    0    0    0    0 -0.00000000000E+00 -0.00000000000E+00 -0.45593999997E+02  0.45594000000E+02  0.51100000000E-03 0.  1.
    9900012    2    1    2    0    0  0.10774619072E+02 -0.21057934616E+02 -0.36388106538E+02  0.47787270469E+02  0.19999997376E+02 0.  0.
         12    1    1    2    0    0 -0.10774619072E+02  0.21057934616E+02  0.36388106538E+02  0.43400729531E+02  0.00000000000E+00 0. -1.
         11    1    3    3    0    0  0.99236565586E+01 -0.54279006850E+01 -0.24211674226E+02  0.26723514634E+02  0.51100000000E-03 0. -1.
        -11    1    3    3    0    0  0.15920316518E+01 -0.10754602007E+02 -0.41369416230E+01  0.11632296221E+02  0.51100000000E-03 0.  1.
         12    1    3    3    0    0 -0.74106913854E+00 -0.48754319236E+01 -0.80394906890E+01  0.94314596139E+01  0.00000000000E+00 0. -1.
</event>
<event>
 7    1  0.5031164E-009  0.4778727E+02  0.7816164E-02  0.1312668E+00
        -11   -1    0    0    0    0  0.00000000000E+00  0.00000000000E+00  0.45593999997E+02  0.45594000000E+02  0.51100000000E-03 0.  1.
         11   -1    0    0    0    0 -0.00000000000E+00 -0.00000000000E+00 -0.45593999997E+02  0.45594000000E+02  0.51100000000E-03 0. -1.
    9900012    2    1    2    0    0 -0.32985042470E+02 -0.20657761643E+02  0.19205915892E+02  0.47787270190E+02  0.19999996103E+02 0.  0.
         12    1    1    2    0    0  0.32985042470E+02  0.20657761643E+02 -0.19205915892E+02  0.43400729810E+02  0.00000000000E+00 0. -1.
         11    1    3    3    0    0 -0.24334734692E+02 -0.86241606899E+01  0.87254200715E+01  0.27252310284E+02  0.51100000000E-03 0. -1.
        -11    1    3    3    0    0 -0.10211359664E+02 -0.73909585399E+01  0.62837752128E+01  0.14084884292E+02  0.51100000000E-03 0.  1.
         12    1    3    3    0    0  0.15610518862E+01 -0.46426424129E+01  0.41967206080E+01  0.64500756140E+01  0.00000000000E+00 0. -1.
</event>
<event>
 7    1  0.5031164E-009  0.4778727E+02  0.7816164E-02  0.1312668E+00
        -11   -1    0    0    0    0  0.00000000000E+00  0.00000000000E+00  0.45593999997E+02  0.45594000000E+02  0.51100000000E-03 0. -1.
         11   -1    0    0    0    0 -0.00000000000E+00 -0.00000000000E+00 -0.45593999997E+02  0.45594000000E+02  0.51100000000E-03 0.  1.
    9900012    2    1    2    0    0  0.18970583614E+02 -0.36649606735E+02 -0.13436757701E+02  0.47787272194E+02  0.20000005244E+02 0.  0.
         12    1    1    2    0    0 -0.18970583614E+02  0.36649606735E+02  0.13436757701E+02  0.43400727806E+02  0.00000000000E+00 0. -1.
         11    1    3    3    0    0  0.81294926172E+01 -0.72251067811E+01 -0.10907849083E+01  0.10930719564E+02  0.51100000000E-03 0. -1.
        -11    1    3    3    0    0 -0.99438145999E+00  0.94231885956E+00 -0.24302833735E+01  0.27898094662E+01  0.51100000000E-03 0.  1.
        -12    1    3    3    0    0  0.11835472457E+02 -0.30366818814E+02 -0.99156894196E+01  0.34066743164E+02  0.00000000000E+00 0.  1.
</event>
<event>
 7    1  0.5031164E-009  0.4778727E+02  0.7816164E-02  0.1312668E+00
        -11   -1    0    0    0    0  0.00000000000E+00  0.00000000000E+00  0.45593999997E+02  0.45594000000E+02  0.51100000000E-03 0.  1.
         11   -1    0    0    0    0 -0.00000000000E+00 -0.00000000000E+00 -0.45593999997E+02  0.45594000000E+02  0.51100000000E-03 0. -1.
    9900012    2    1    2    0    0  0.16478154154E+02 -0.28278365705E+02 -0.28503113874E+02  0.47787273833E+02  0.20000012716E+02 0.  0.
         12    1    1    2    0    0 -0.16478154154E+02  0.28278365705E+02  0.28503113874E+02  0.43400726167E+02  0.00000000000E+00 0. -1.
         11    1    3    3    0    0  0.42942330427E+01  0.61459449340E+00 -0.75832586857E+01  0.87363594461E+01  0.51100000000E-03 0. -1.
        -11    1    3    3    0    0 -0.42239395969E+00 -0.11047917040E+02 -0.58414716869E+01  0.12504306430E+02  0.51100000000E-03 0.  1.
        -12    1    3    3    0    0  0.12606315072E+02 -0.17845043158E+02 -0.15078383502E+02  0.26546607957E+02  0.00000000000E+00 0.  1.
</event>
<event>
 7    1  0.5031164E-009  0.4778727E+02  0.7816164E-02  0.1312668E+00
        -11   -1    0    0    0    0  0.00000000000E+00  0.00000000000E+00  0.45593999997E+02  0.45594000000E+02  0.51100000000E-03 0.  1.
         11   -1    0    0    0    0 -0.00000000000E+00 -0.00000000000E+00 -0.45593999997E+02  0.45594000000E+02  0.51100000000E-03 0. -1.
    9900012    2    1    2    0    0  0.22759240705E+02 -0.78110192982E+00  0.36946317991E+02  0.47787267624E+02  0.19999984405E+02 0.  0.
         12    1    1    2    0    0 -0.22759240705E+02  0.78110192982E+00 -0.36946317991E+02  0.43400732376E+02  0.00000000000E+00 0. -1.
         11    1    3    3    0    0  0.81485045104E+01  0.82309167408E+01  0.10159492321E+02  0.15406537594E+02  0.51100000000E-03 0. -1.
        -11    1    3    3    0    0  0.13648154870E+02 -0.60735435536E+01  0.23673731896E+02  0.27992957057E+02  0.51100000000E-03 0.  1.
        -12    1    3    3    0    0  0.96258132523E+00 -0.29384751171E+01  0.31130937734E+01  0.43877729731E+01  0.00000000000E+00 0.  1.
</event>
<event>
 7    1  0.5031164E-009  0.4778727E+02  0.7816164E-02  0.1312668E+00
        -11   -1    0    0    0    0  0.00000000000E+00  0.00000000000E+00  0.45593999997E+02  0.45594000000E+02  0.51100000000E-03 0.  1.
         11   -1    0    0    0    0 -0.00000000000E+00 -0.00000000000E+00 -0.45593999997E+02  0.45594000000E+02  0.51100000000E-03 0. -1.
    9900012    2    1    2    0    0 -0.40271384045E+01 -0.12055523690E+01  0.43196669501E+02  0.47787268944E+02  0.19999990423E+02 0.  0.
         12    1    1    2    0    0  0.40271384045E+01  0.12055523690E+01 -0.43196669501E+02  0.43400731056E+02  0.00000000000E+00 0. -1.
         11    1    3    3    0    0 -0.40344603511E+00 -0.51459904320E+01  0.27988277847E+01  0.58717479049E+01  0.51100000000E-03 0. -1.
        -11    1    3    3    0    0 -0.60255779845E+01  0.35568470143E+00  0.15267092139E+02  0.16417009603E+02  0.51100000000E-03 0.  1.
         12    1    3    3    0    0  0.24018856151E+01  0.35847533615E+01  0.25130749577E+02  0.25498511436E+02  0.00000000000E+00 0. -1.
</event>
<event>
 7    1  0.5031164E-009  0.4778727E+02  0.7816164E-02  0.1312668E+00
        -11   -1    0    0    0    0  0.00000000000E+00  0.00000000000E+00  0.45593999997E+02  0.45594000000E+02  0.51100000000E-03 0.  1.
         11   -1    0    0    0    0 -0.00000000000E+00 -0.00000000000E+00 -0.45593999997E+02  0.45594000000E+02  0.51100000000E-03 0. -1.
    9900012    2    1    2    0    0  0.40133354155E+02 -0.29667183999E+01  0.16252264338E+02  0.47787266942E+02  0.19999981297E+02 0.  0.
         12    1    1    2    0    0 -0.40133354155E+02  0.29667183999E+01 -0.16252264338E+02  0.43400733058E+02  0.00000000000E+00 0. -1.
         11    1    3    3    0    0  0.12812914785E+02  0.74678934333E+01  0.11635065062E+01  0.14875952584E+02  0.51100000000E-03 0. -1.
        -11    1    3    3    0    0  0.14493292688E+02 -0.52987843335E+01  0.79703899908E+01  0.17368355283E+02  0.51100000000E-03 0.  1.
         12    1    3    3    0    0  0.12827146682E+02 -0.51358274997E+01  0.71183678414E+01  0.15542959076E+02  0.00000000000E+00 0. -1.
</event>
<event>
 7    1  0.5031164E-009  0.4778731E+02  0.7816164E-02  0.1312668E+00
        -11   -1    0    0    0    0  0.00000000000E+00  0.00000000000E+00  0.45593999997E+02  0.45594000000E+02  0.51100000000E-03 0.  1.
         11   -1    0    0    0    0 -0.00000000000E+00 -0.00000000000E+00 -0.45593999997E+02  0.45594000000E+02  0.51100000000E-03 0. -1.
    9900012    2    1    2    0    0  0.25550735439E+02  0.14943146293E+02  0.31740860322E+02  0.47787309722E+02  0.20000176347E+02 0.  0.
         12    1    1    2    0    0 -0.25550735439E+02 -0.14943146293E+02 -0.31740860322E+02  0.43400690278E+02  0.00000000000E+00 0. -1.
         11    1    3    3    0    0  0.56522680132E+00  0.25587153037E+01  0.33408743179E+01  0.42459329730E+01  0.51100000000E-03 0. -1.
        -11    1    3    3    0    0  0.24832960916E+02  0.14426861747E+02  0.29537986152E+02  0.41198336300E+02  0.51100000000E-03 0.  1.
        -12    1    3    3    0    0  0.15254772152E+00 -0.20424307579E+01 -0.11380001480E+01  0.23430404488E+01  0.00000000000E+00 0.  1.
</event>
<event>
 7    1  0.5031164E-009  0.4778727E+02  0.7816164E-02  0.1312668E+00
        -11   -1    0    0    0    0  0.00000000000E+00  0.00000000000E+00  0.45593999997E+02  0.45594000000E+02  0.51100000000E-03 0.  1.
         11   -1    0    0    0    0 -0.00000000000E+00 -0.00000000000E+00 -0.45593999997E+02  0.45594000000E+02  0.51100000000E-03 0. -1.
    9900012    2    1    2    0    0 -0.57103963119E+01  0.25123082967E+02  0.34926285179E+02  0.47787270511E+02  0.19999997567E+02 0.  0.
         12    1    1    2    0    0  0.57103963119E+01 -0.25123082967E+02 -0.34926285179E+02  0.43400729489E+02  0.00000000000E+00 0. -1.
         11    1    3    3    0    0 -0.70717718167E+01  0.24671295099E+01  0.54819060117E+01  0.92815935285E+01  0.51100000000E-03 0. -1.
        -11    1    3    3    0    0  0.18636949967E+01  0.12190201771E+02  0.23292033647E+02  0.26355136310E+02  0.51100000000E-03 0.  1.
         12    1    3    3    0    0 -0.50231949193E+00  0.10465751686E+02  0.61523455203E+01  0.12150540672E+02  0.00000000000E+00 0. -1.
</event>
<event>
 7    1  0.5031164E-009  0.4778729E+02  0.7816164E-02  0.1312668E+00
        -11   -1    0    0    0    0  0.00000000000E+00  0.00000000000E+00  0.45593999997E+02  0.45594000000E+02  0.51100000000E-03 0.  1.
         11   -1    0    0    0    0 -0.00000000000E+00 -0.00000000000E+00 -0.45593999997E+02  0.45594000000E+02  0.51100000000E-03 0. -1.
    9900012    2    1    2    0    0  0.87735664703E-02 -0.37972877802E+02  0.21016230298E+02  0.47787291924E+02  0.20000095197E+02 0.  0.
         12    1    1    2    0    0 -0.87735664703E-02  0.37972877802E+02 -0.21016230298E+02  0.43400708076E+02  0.00000000000E+00 0. -1.
         11    1    3    3    0    0 -0.65496748715E+01 -0.17186558097E+02  0.42418363880E+01  0.18875094605E+02  0.51100000000E-03 0. -1.
        -11    1    3    3    0    0  0.70666043355E+01 -0.12952017633E+02  0.68746876692E+01  0.16277376583E+02  0.51100000000E-03 0.  1.
         12    1    3    3    0    0 -0.50815589749E+00 -0.78343020717E+01  0.98997062410E+01  0.12634820736E+02  0.00000000000E+00 0. -1.
</event>
<event>
 7    1  0.5031164E-009  0.4778727E+02  0.7816164E-02  0.1312668E+00
        -11   -1    0    0    0    0  0.00000000000E+00  0.00000000000E+00  0.45593999997E+02  0.45594000000E+02  0.51100000000E-03 0.  1.
         11   -1    0    0    0    0 -0.00000000000E+00 -0.00000000000E+00 -0.45593999997E+02  0.45594000000E+02  0.51100000000E-03 0. -1.
    9900012    2    1    2    0    0  0.11875933592E+02 -0.31401747288E+02  0.27504830257E+02  0.47787271678E+02  0.20000002887E+02 0.  0.
         12    1    1    2    0    0 -0.11875933592E+02  0.31401747288E+02 -0.27504830257E+02  0.43400728322E+02  0.00000000000E+00 0. -1.
         11    1    3    3    0    0 -0.19883741432E+01 -0.78663852934E+00  0.43668175510E+00  0.21824580467E+01  0.51100000000E-03 0. -1.
        -11    1    3    3    0    0  0.14878105856E+02 -0.19968571125E+02  0.23738572806E+02  0.34403803653E+02  0.51100000000E-03 0.  1.
        -12    1    3    3    0    0 -0.10137981207E+01 -0.10646537634E+02  0.33295756957E+01  0.11201009978E+02  0.00000000000E+00 0.  1.
</event>
<event>
 7    1  0.5031164E-009  0.4778727E+02  0.7816164E-02  0.1312668E+00
        -11   -1    0    0    0    0  0.00000000000E+00  0.00000000000E+00  0.45593999997E+02  0.45594000000E+02  0.51100000000E-03 0. -1.
         11   -1    0    0    0    0 -0.00000000000E+00 -0.00000000000E+00 -0.45593999997E+02  0.45594000000E+02  0.51100000000E-03 0.  1.
    9900012    2    1    2    0    0  0.28623669677E+02 -0.11907314183E+02 -0.30373091697E+02  0.47787270789E+02  0.19999998835E+02 0.  0.
         12    1    1    2    0    0 -0.28623669677E+02  0.11907314183E+02  0.30373091697E+02  0.43400729211E+02  0.00000000000E+00 0. -1.
         11    1    3    3    0    0  0.86509340363E+00 -0.66959559824E+01 -0.12092465578E+02  0.13849618663E+02  0.51100000000E-03 0. -1.
        -11    1    3    3    0    0  0.23362136821E+02 -0.26982558187E+01 -0.14662211009E+02  0.27713723193E+02  0.51100000000E-03 0.  1.
         12    1    3    3    0    0  0.43964394519E+01 -0.25131023823E+01 -0.36184151104E+01  0.62239289319E+01  0.00000000000E+00 0. -1.
</event>
<event>
 7    1  0.5031164E-009  0.4778727E+02  0.7816164E-02  0.1312668E+00
        -11   -1    0    0    0    0  0.00000000000E+00  0.00000000000E+00  0.45593999997E+02  0.45594000000E+02  0.51100000000E-03 0. -1.
         11   -1    0    0    0    0 -0.00000000000E+00 -0.00000000000E+00 -0.45593999997E+02  0.45594000000E+02  0.51100000000E-03 0.  1.
    9900012    2    1    2    0    0  0.35012296587E+02 -0.21604031228E+02  0.13821298929E+02  0.47787269802E+02  0.19999994336E+02 0.  0.
         12    1    1    2    0    0 -0.35012296587E+02  0.21604031228E+02 -0.13821298929E+02  0.43400730198E+02  0.00000000000E+00 0. -1.
         11    1    3    3    0    0  0.13968985233E+02 -0.66290536216E+01  0.77627399461E+01  0.17301359255E+02  0.51100000000E-03 0. -1.
        -11    1    3    3    0    0  0.19042827737E+02 -0.13015039498E+02 -0.79808023224E+00  0.23079373338E+02  0.51100000000E-03 0.  1.
        -12    1    3    3    0    0  0.20004836174E+01 -0.19599381079E+01  0.68566392154E+01  0.74065372085E+01  0.00000000000E+00 0.  1.
</event>
<event>
 7    1  0.5031164E-009  0.4778727E+02  0.7816164E-02  0.1312668E+00
        -11   -1    0    0    0    0  0.00000000000E+00  0.00000000000E+00  0.45593999997E+02  0.45594000000E+02  0.51100000000E-03 0.  1.
         11   -1    0    0    0    0 -0.00000000000E+00 -0.00000000000E+00 -0.45593999997E+02  0.45594000000E+02  0.51100000000E-03 0. -1.
    9900012    2    1    2    0    0  0.33711062491E+02 -0.14289504744E+02 -0.23302307228E+02  0.47787271869E+02  0.20000003761E+02 0.  0.
         12    1    1    2    0    0 -0.33711062491E+02  0.14289504744E+02  0.23302307228E+02  0.43400728131E+02  0.00000000000E+00 0. -1.
         11    1    3    3    0    0  0.35408020309E+01 -0.24663933430E+01 -0.47172970385E+01  0.63932203743E+01  0.51100000000E-03 0. -1.
        -11    1    3    3    0    0  0.67390436465E+01  0.14210248675E+01 -0.11757810267E+02  0.13626449408E+02  0.51100000000E-03 0.  1.
        -12    1    3    3    0    0  0.23431216814E+02 -0.13244136269E+02 -0.68271999235E+01  0.27767602087E+02  0.00000000000E+00 0.  1.
</event>
<event>
 7    1  0.5031164E-009  0.4778729E+02  0.7816164E-02  0.1312668E+00
        -11   -1    0    0    0    0  0.00000000000E+00  0.00000000000E+00  0.45593999997E+02  0.45594000000E+02  0.51100000000E-03 0.  1.
         11   -1    0    0    0    0 -0.00000000000E+00 -0.00000000000E+00 -0.45593999997E+02  0.45594000000E+02  0.51100000000E-03 0. -1.
    9900012    2    1    2    0    0 -0.12657370799E+02  0.38559340395E+02  0.15381472478E+02  0.47787291908E+02  0.20000095127E+02 0.  0.
         12    1    1    2    0    0  0.12657370799E+02 -0.38559340395E+02 -0.15381472478E+02  0.43400708092E+02  0.00000000000E+00 0. -1.
         11    1    3    3    0    0 -0.10791111293E+01  0.16162995003E+02 -0.13175257829E+01  0.16252469435E+02  0.51100000000E-03 0. -1.
        -11    1    3    3    0    0 -0.26960965485E+01  0.81524565184E+01  0.11679961159E+01  0.86657774649E+01  0.51100000000E-03 0.  1.
         12    1    3    3    0    0 -0.88821631208E+01  0.14243888874E+02  0.15531002145E+02  0.22869045009E+02  0.00000000000E+00 0. -1.
</event>
<event>
 7    1  0.5031164E-009  0.4778727E+02  0.7816164E-02  0.1312668E+00
        -11   -1    0    0    0    0  0.00000000000E+00  0.00000000000E+00  0.45593999997E+02  0.45594000000E+02  0.51100000000E-03 0.  1.
         11   -1    0    0    0    0 -0.00000000000E+00 -0.00000000000E+00 -0.45593999997E+02  0.45594000000E+02  0.51100000000E-03 0. -1.
    9900012    2    1    2    0    0 -0.25065293043E+02  0.17703845861E+02  0.30690854024E+02  0.47787267353E+02  0.19999983168E+02 0.  0.
         12    1    1    2    0    0  0.25065293043E+02 -0.17703845861E+02 -0.30690854024E+02  0.43400732647E+02  0.00000000000E+00 0. -1.
         11    1    3    3    0    0 -0.29455312292E+01 -0.31368187823E+01  0.17483886909E+01  0.46446366457E+01  0.51100000000E-03 0. -1.
        -11    1    3    3    0    0 -0.53771482998E+01  0.11002859487E+02  0.82552654945E+01  0.14769091014E+02  0.51100000000E-03 0.  1.
         12    1    3    3    0    0 -0.16742613514E+02  0.98378051566E+01  0.20687199839E+02  0.28373539693E+02  0.00000000000E+00 0. -1.
</event>
<event>
 7    1  0.5031164E-009  0.4778727E+02  0.7816164E-02  0.1312668E+00
        -11   -1    0    0    0    0  0.00000000000E+00  0.00000000000E+00  0.45593999997E+02  0.45594000000E+02  0.51100000000E-03 0.  1.
         11   -1    0    0    0    0 -0.00000000000E+00 -0.00000000000E+00 -0.45593999997E+02  0.45594000000E+02  0.51100000000E-03 0. -1.
    9900012    2    1    2    0    0  0.27581277600E+02 -0.32334442526E+02  0.87966067022E+01  0.47787270317E+02  0.19999996685E+02 0.  0.
         12    1    1    2    0    0 -0.27581277600E+02  0.32334442526E+02 -0.87966067022E+01  0.43400729683E+02  0.00000000000E+00 0. -1.
         11    1    3    3    0    0  0.43668007681E+01  0.22173110213E+00  0.19733495671E+01  0.47971056279E+01  0.51100000000E-03 0. -1.
        -11    1    3    3    0    0  0.23273304119E+02 -0.22540432390E+02  0.45233284681E+01  0.32713579407E+02  0.51100000000E-03 0.  1.
        -12    1    3    3    0    0 -0.58827286612E-01 -0.10015741238E+02  0.22999286669E+01  0.10276585282E+02  0.00000000000E+00 0.  1.
</event>
<event>
 7    1  0.5722694E-009  0.4778728E+02  0.7816164E-02  0.1312668E+00
        -11   -1    0    0    0    0  0.00000000000E+00  0.00000000000E+00  0.45593999997E+02  0.45594000000E+02  0.51100000000E-03 0. -1.
         11   -1    0    0    0    0 -0.00000000000E+00 -0.00000000000E+00 -0.45593999997E+02  0.45594000000E+02  0.51100000000E-03 0.  1.
    9900012    2    1    2    0    0  0.20614689635E+02 -0.18301221616E+02 -0.33521962999E+02  0.47787284053E+02  0.20000059311E+02 0.  0.
         12    1    1    2    0    0 -0.20614689635E+02  0.18301221616E+02  0.33521962999E+02  0.43400715947E+02  0.00000000000E+00 0. -1.
         11    1    3    3    0    0 -0.14062144373E+01 -0.83402080371E+01 -0.83121724772E+01  0.11858698103E+02  0.51100000000E-03 0. -1.
        -11    1    3    3    0    0  0.16373372051E+02 -0.94777413297E+01 -0.23151484829E+02  0.29898263212E+02  0.51100000000E-03 0.  1.
        -12    1    3    3    0    0  0.56475320214E+01 -0.48327224921E+00 -0.20583056929E+01  0.60303227380E+01  0.00000000000E+00 0.  1.
</event>
<event>
 7    1  0.5031164E-009  0.4778727E+02  0.7816164E-02  0.1312668E+00
        -11   -1    0    0    0    0  0.00000000000E+00  0.00000000000E+00  0.45593999997E+02  0.45594000000E+02  0.51100000000E-03 0.  1.
         11   -1    0    0    0    0 -0.00000000000E+00 -0.00000000000E+00 -0.45593999997E+02  0.45594000000E+02  0.51100000000E-03 0. -1.
    9900012    2    1    2    0    0  0.31029599930E+02 -0.18913390816E+02  0.23729124283E+02  0.47787265407E+02  0.19999974296E+02 0.  0.
         12    1    1    2    0    0 -0.31029599930E+02  0.18913390816E+02 -0.23729124283E+02  0.43400734593E+02  0.00000000000E+00 0. -1.
         11    1    3    3    0    0  0.31138892292E+02 -0.20956904727E+02  0.19054596193E+02  0.42093943807E+02  0.51100000000E-03 0.  1.
        -11    1    3    3    0    0 -0.16533813272E+00 -0.59145119278E+00  0.85132660535E+00  0.10497182773E+01  0.51100000000E-03 0. -1.
        -12    1    3    3    0    0  0.56045771163E-01  0.26349651036E+01  0.38232014852E+01  0.46436033231E+01  0.00000000000E+00 0.  1.
</event>
<event>
 7    1  0.5031164E-009  0.4778727E+02  0.7816164E-02  0.1312668E+00
        -11   -1    0    0    0    0  0.00000000000E+00  0.00000000000E+00  0.45593999997E+02  0.45594000000E+02  0.51100000000E-03 0.  1.
         11   -1    0    0    0    0 -0.00000000000E+00 -0.00000000000E+00 -0.45593999997E+02  0.45594000000E+02  0.51100000000E-03 0. -1.
    9900012    2    1    2    0    0 -0.30512645569E+02 -0.12668270397E+02  0.28144572419E+02  0.47787267620E+02  0.19999984388E+02 0.  0.
         12    1    1    2    0    0  0.30512645569E+02  0.12668270397E+02 -0.28144572419E+02  0.43400732380E+02  0.00000000000E+00 0. -1.
         11    1    3    3    0    0 -0.13573613859E+02  0.98318488362E+00  0.51577219637E+01  0.14553753531E+02  0.51100000000E-03 0. -1.
        -11    1    3    3    0    0 -0.14820487782E+02 -0.74755740669E+01  0.20171673926E+02  0.26123313246E+02  0.51100000000E-03 0.  1.
         12    1    3    3    0    0 -0.21185439274E+01 -0.61758812142E+01  0.28151765291E+01  0.71102008435E+01  0.00000000000E+00 0. -1.
</event>
<event>
 7    1  0.5031164E-009  0.4778728E+02  0.7816164E-02  0.1312668E+00
        -11   -1    0    0    0    0  0.00000000000E+00  0.00000000000E+00  0.45593999997E+02  0.45594000000E+02  0.51100000000E-03 0.  1.
         11   -1    0    0    0    0 -0.00000000000E+00 -0.00000000000E+00 -0.45593999997E+02  0.45594000000E+02  0.51100000000E-03 0. -1.
    9900012    2    1    2    0    0  0.42123146589E+02 -0.10276365593E+02 -0.19130040061E+01  0.47787277049E+02  0.20000027376E+02 0.  0.
         12    1    1    2    0    0 -0.42123146589E+02  0.10276365593E+02  0.19130040061E+01  0.43400722951E+02  0.00000000000E+00 0. -1.
         11    1    3    3    0    0  0.15646988614E+02 -0.22553339702E+01  0.86059149273E+01  0.17999348766E+02  0.51100000000E-03 0.  1.
        -11    1    3    3    0    0  0.14063983640E+02 -0.28545944581E+01 -0.65112623967E+01  0.15758835096E+02  0.51100000000E-03 0. -1.
        -12    1    3    3    0    0  0.12412174336E+02 -0.51664371645E+01 -0.40076565367E+01  0.14029093187E+02  0.00000000000E+00 0.  1.
</event>
<event>
 7    1  0.5031164E-009  0.4778727E+02  0.7816164E-02  0.1312668E+00
        -11   -1    0    0    0    0  0.00000000000E+00  0.00000000000E+00  0.45593999997E+02  0.45594000000E+02  0.51100000000E-03 0.  1.
         11   -1    0    0    0    0 -0.00000000000E+00 -0.00000000000E+00 -0.45593999997E+02  0.45594000000E+02  0.51100000000E-03 0. -1.
    9900012    2    1    2    0    0 -0.28807816705E+02 -0.12315651078E+02  0.30034275030E+02  0.47787271420E+02  0.20000001710E+02 0.  0.
         12    1    1    2    0    0  0.28807816705E+02  0.12315651078E+02 -0.30034275030E+02  0.43400728580E+02  0.00000000000E+00 0. -1.
         11    1    3    3    0    0 -0.20318734981E+01 -0.22921574423E+01 -0.12296601207E+01  0.33006908256E+01  0.51100000000E-03 0. -1.
        -11    1    3    3    0    0 -0.19377184195E+02 -0.23704304462E+00  0.18949133591E+02  0.27103525985E+02  0.51100000000E-03 0.  1.
        -12    1    3    3    0    0 -0.73987590121E+01 -0.97864505908E+01  0.12314801560E+02  0.17383054609E+02  0.00000000000E+00 0.  1.
</event>
<event>
 7    1  0.5031164E-009  0.4778727E+02  0.7816164E-02  0.1312668E+00
        -11   -1    0    0    0    0  0.00000000000E+00  0.00000000000E+00  0.45593999997E+02  0.45594000000E+02  0.51100000000E-03 0.  1.
         11   -1    0    0    0    0 -0.00000000000E+00 -0.00000000000E+00 -0.45593999997E+02  0.45594000000E+02  0.51100000000E-03 0. -1.
    9900012    2    1    2    0    0 -0.24802440269E+01  0.34294442579E+02  0.26483260607E+02  0.47787268501E+02  0.19999988405E+02 0.  0.
         12    1    1    2    0    0  0.24802440269E+01 -0.34294442579E+02 -0.26483260607E+02  0.43400731499E+02  0.00000000000E+00 0. -1.
         11    1    3    3    0    0 -0.12457791383E+01  0.90441755938E+01  0.14812507615E+02  0.17399984481E+02  0.51100000000E-03 0. -1.
        -11    1    3    3    0    0  0.41098781186E+01  0.20438592131E+02  0.82016776518E+01  0.22403005669E+02  0.51100000000E-03 0.  1.
         12    1    3    3    0    0 -0.53443430071E+01  0.48116748540E+01  0.34690753412E+01  0.79842783519E+01  0.00000000000E+00 0. -1.
</event>
<event>
 7    1  0.5031164E-009  0.4778727E+02  0.7816164E-02  0.1312668E+00
        -11   -1    0    0    0    0  0.00000000000E+00  0.00000000000E+00  0.45593999997E+02  0.45594000000E+02  0.51100000000E-03 0.  1.
         11   -1    0    0    0    0 -0.00000000000E+00 -0.00000000000E+00 -0.45593999997E+02  0.45594000000E+02  0.51100000000E-03 0. -1.
    9900012    2    1    2    0    0 -0.30096847133E+02  0.27669342801E+02  0.14567446165E+02  0.47787271594E+02  0.20000002508E+02 0.  0.
         12    1    1    2    0    0  0.30096847133E+02 -0.27669342801E+02 -0.14567446165E+02  0.43400728406E+02  0.00000000000E+00 0. -1.
         11    1    3    3    0    0 -0.64844406794E+01  0.20258820544E+01  0.54344839059E+01  0.86997577327E+01  0.51100000000E-03 0. -1.
        -11    1    3    3    0    0 -0.10825631783E+02  0.14468694380E+02 -0.28635783662E+01  0.18295832910E+02  0.51100000000E-03 0.  1.
        -12    1    3    3    0    0 -0.12786774671E+02  0.11174766366E+02  0.11996540625E+02  0.20791680951E+02  0.00000000000E+00 0.  1.
</event>
<event>
 7    1  0.5031164E-009  0.4778727E+02  0.7816164E-02  0.1312668E+00
        -11   -1    0    0    0    0  0.00000000000E+00  0.00000000000E+00  0.45593999997E+02  0.45594000000E+02  0.51100000000E-03 0.  1.
         11   -1    0    0    0    0 -0.00000000000E+00 -0.00000000000E+00 -0.45593999997E+02  0.45594000000E+02  0.51100000000E-03 0. -1.
    9900012    2    1    2    0    0 -0.33065911568E+02 -0.27166544320E+02  0.72282512979E+01  0.47787271263E+02  0.20000000995E+02 0.  0.
         12    1    1    2    0    0  0.33065911568E+02  0.27166544320E+02 -0.72282512979E+01  0.43400728737E+02  0.00000000000E+00 0. -1.
         11    1    3    3    0    0  0.16751048908E+00  0.75174840753E+00 -0.24901540032E+01  0.26065403609E+01  0.51100000000E-03 0. -1.
        -11    1    3    3    0    0 -0.26919856174E+02 -0.21319603493E+02  0.44209746698E+01  0.34622957222E+02  0.51100000000E-03 0.  1.
         12    1    3    3    0    0 -0.63135658832E+01 -0.65986892347E+01  0.52974306314E+01  0.10557773680E+02  0.00000000000E+00 0. -1.
</event>
<event>
 7    1  0.5031164E-009  0.4778727E+02  0.7816164E-02  0.1312668E+00
        -11   -1    0    0    0    0  0.00000000000E+00  0.00000000000E+00  0.45593999997E+02  0.45594000000E+02  0.51100000000E-03 0.  1.
         11   -1    0    0    0    0 -0.00000000000E+00 -0.00000000000E+00 -0.45593999997E+02  0.45594000000E+02  0.51100000000E-03 0. -1.
    9900012    2    1    2    0    0  0.46270290355E+01  0.85744392695E+01  0.42292939341E+02  0.47787272765E+02  0.20000007843E+02 0.  0.
         12    1    1    2    0    0 -0.46270290355E+01 -0.85744392695E+01 -0.42292939341E+02  0.43400727235E+02  0.00000000000E+00 0. -1.
         11    1    3    3    0    0  0.91037170627E+00  0.90421925264E+01  0.55303362151E+01  0.10638357074E+02  0.51100000000E-03 0. -1.
        -11    1    3    3    0    0  0.75688561779E+00 -0.18993059255E+01  0.12947798821E+02  0.13108231514E+02  0.51100000000E-03 0.  1.
         12    1    3    3    0    0  0.29597717115E+01  0.14315526686E+01  0.23814804304E+02  0.24040684177E+02  0.00000000000E+00 0. -1.
</event>
<event>
 7    1  0.5031164E-009  0.4778727E+02  0.7816164E-02  0.1312668E+00
        -11   -1    0    0    0    0  0.00000000000E+00  0.00000000000E+00  0.45593999997E+02  0.45594000000E+02  0.51100000000E-03 0. -1.
         11   -1    0    0    0    0 -0.00000000000E+00 -0.00000000000E+00 -0.45593999997E+02  0.45594000000E+02  0.51100000000E-03 0.  1.
    9900012    2    1    2    0    0 -0.10668745998E+02 -0.20202316038E+02 -0.36900780971E+02  0.47787270159E+02  0.19999995963E+02 0.  0.
         12    1    1    2    0    0  0.10668745998E+02  0.20202316038E+02  0.36900780971E+02  0.43400729841E+02  0.00000000000E+00 0. -1.
         11    1    3    3    0    0 -0.93394968238E+00 -0.10539738207E+02 -0.34580849169E+01  0.11131787594E+02  0.51100000000E-03 0. -1.
        -11    1    3    3    0    0 -0.64213537562E+01 -0.93545380831E+01 -0.28702685864E+02  0.30863981319E+02  0.51100000000E-03 0.  1.
         12    1    3    3    0    0 -0.33134425590E+01 -0.30803974774E+00 -0.47400101906E+01  0.57915012462E+01  0.00000000000E+00 0. -1.
</event>
<event>
 7    1  0.5031164E-009  0.4778728E+02  0.7816164E-02  0.1312668E+00
        -11   -1    0    0    0    0  0.00000000000E+00  0.00000000000E+00  0.45593999997E+02  0.45594000000E+02  0.51100000000E-03 0. -1.
         11   -1    0    0    0    0 -0.00000000000E+00 -0.00000000000E+00 -0.45593999997E+02  0.45594000000E+02  0.51100000000E-03 0.  1.
    9900012    2    1    2    0    0  0.25195539743E+02 -0.65856808383E+01 -0.34719392627E+02  0.47787278354E+02  0.20000033326E+02 0.  0.
         12    1    1    2    0    0 -0.25195539743E+02  0.65856808383E+01  0.34719392627E+02  0.43400721646E+02  0.00000000000E+00 0. -1.
         11    1    3    3    0    0  0.22019218512E+02 -0.60412132919E+00 -0.25475084411E+02  0.33677750407E+02  0.51100000000E-03 0. -1.
        -11    1    3    3    0    0 -0.18685283298E+01 -0.31880211169E+01 -0.63810858314E+00  0.37499412777E+01  0.51100000000E-03 0.  1.
        -12    1    3    3    0    0  0.50448495608E+01 -0.27935383922E+01 -0.86061996326E+01  0.10359586669E+02  0.00000000000E+00 0.  1.
</event>
<event>
 7    1  0.5031164E-009  0.4778727E+02  0.7816164E-02  0.1312668E+00
        -11   -1    0    0    0    0  0.00000000000E+00  0.00000000000E+00  0.45593999997E+02  0.45594000000E+02  0.51100000000E-03 0.  1.
         11   -1    0    0    0    0 -0.00000000000E+00 -0.00000000000E+00 -0.45593999997E+02  0.45594000000E+02  0.51100000000E-03 0. -1.
    9900012    2    1    2    0    0  0.29672913846E+02  0.30004502689E+02  0.10142567141E+02  0.47787266528E+02  0.19999979408E+02 0.  0.
         12    1    1    2    0    0 -0.29672913846E+02 -0.30004502689E+02 -0.10142567141E+02  0.43400733472E+02  0.00000000000E+00 0. -1.
         11    1    3    3    0    0  0.13664614162E+02  0.12924542019E+02 -0.40437802263E+01  0.19238441345E+02  0.51100000000E-03 0. -1.
        -11    1    3    3    0    0  0.58523605645E+01  0.51791463611E+01  0.93229125408E+01  0.12165129663E+02  0.51100000000E-03 0.  1.
        -12    1    3    3    0    0  0.10155939119E+02  0.11900814309E+02  0.48634348262E+01  0.16383695521E+02  0.00000000000E+00 0.  1.
</event>
<event>
 7    1  0.5276589E-009  0.4778726E+02  0.7816164E-02  0.1312668E+00
        -11   -1    0    0    0    0  0.00000000000E+00  0.00000000000E+00  0.45593999997E+02  0.45594000000E+02  0.51100000000E-03 0. -1.
         11   -1    0    0    0    0 -0.00000000000E+00 -0.00000000000E+00 -0.45593999997E+02  0.45594000000E+02  0.51100000000E-03 0.  1.
    9900012    2    1    2    0    0 -0.25216380419E+02  0.34124245137E+02 -0.91265612650E+01  0.47787261894E+02  0.19999958278E+02 0.  0.
         12    1    1    2    0    0  0.25216380419E+02 -0.34124245137E+02  0.91265612650E+01  0.43400738106E+02  0.00000000000E+00 0. -1.
         11    1    3    3    0    0 -0.23598057193E+01  0.46278296903E+00  0.26247405000E+01  0.35597912948E+01  0.51100000000E-03 0. -1.
        -11    1    3    3    0    0 -0.21092663410E+02  0.32252844301E+02 -0.72807407039E+01  0.39219326877E+02  0.51100000000E-03 0.  1.
        -12    1    3    3    0    0 -0.17639112901E+01  0.14086178672E+01 -0.44705610612E+01  0.50081437217E+01  0.00000000000E+00 0.  1.
</event>
<event>
 7    1  0.5031164E-009  0.4778727E+02  0.7816164E-02  0.1312668E+00
        -11   -1    0    0    0    0  0.00000000000E+00  0.00000000000E+00  0.45593999997E+02  0.45594000000E+02  0.51100000000E-03 0.  1.
         11   -1    0    0    0    0 -0.00000000000E+00 -0.00000000000E+00 -0.45593999997E+02  0.45594000000E+02  0.51100000000E-03 0. -1.
    9900012    2    1    2    0    0 -0.96933427461E+01 -0.38960693820E+02 -0.16484146980E+02  0.47787266617E+02  0.19999979812E+02 0.  0.
         12    1    1    2    0    0  0.96933427461E+01  0.38960693820E+02  0.16484146980E+02  0.43400733383E+02  0.00000000000E+00 0. -1.
         11    1    3    3    0    0  0.54625276321E+01 -0.54431911190E+01 -0.96758948199E+00  0.77719860625E+01  0.51100000000E-03 0. -1.
        -11    1    3    3    0    0 -0.12012974116E+02 -0.23943526954E+02 -0.11853241788E+02  0.29293401497E+02  0.51100000000E-03 0.  1.
         12    1    3    3    0    0 -0.31428962623E+01 -0.95739757474E+01 -0.36633157099E+01  0.10721879057E+02  0.00000000000E+00 0. -1.
</event>
<event>
 7    1  0.5031164E-009  0.4778727E+02  0.7816164E-02  0.1312668E+00
        -11   -1    0    0    0    0  0.00000000000E+00  0.00000000000E+00  0.45593999997E+02  0.45594000000E+02  0.51100000000E-03 0. -1.
         11   -1    0    0    0    0 -0.00000000000E+00 -0.00000000000E+00 -0.45593999997E+02  0.45594000000E+02  0.51100000000E-03 0.  1.
    9900012    2    1    2    0    0  0.65050479568E+01 -0.35444995680E+02 -0.24185944779E+02  0.47787270829E+02  0.19999999019E+02 0.  0.
         12    1    1    2    0    0 -0.65050479568E+01  0.35444995680E+02  0.24185944779E+02  0.43400729171E+02  0.00000000000E+00 0. -1.
         11    1    3    3    0    0  0.22858575915E+01  0.10222757835E+01  0.64897236536E+00  0.25867659535E+01  0.51100000000E-03 0. -1.
        -11    1    3    3    0    0  0.22146116933E+01 -0.24142346848E+01 -0.42229703911E+01  0.53447650323E+01  0.51100000000E-03 0.  1.
         12    1    3    3    0    0  0.20045786720E+01 -0.34053036779E+02 -0.20611946753E+02  0.39855739844E+02  0.00000000000E+00 0. -1.
</event>
<event>
 7    1  0.5031164E-009  0.4778727E+02  0.7816164E-02  0.1312668E+00
        -11   -1    0    0    0    0  0.00000000000E+00  0.00000000000E+00  0.45593999997E+02  0.45594000000E+02  0.51100000000E-03 0. -1.
         11   -1    0    0    0    0 -0.00000000000E+00 -0.00000000000E+00 -0.45593999997E+02  0.45594000000E+02  0.51100000000E-03 0.  1.
    9900012    2    1    2    0    0 -0.33977327867E+02  0.26190673809E+02 -0.65736758063E+01  0.47787269394E+02  0.19999992475E+02 0.  0.
         12    1    1    2    0    0  0.33977327867E+02 -0.26190673809E+02  0.65736758063E+01  0.43400730606E+02  0.00000000000E+00 0. -1.
         11    1    3    3    0    0 -0.32415198022E+01 -0.21209704809E+01  0.24562367441E+01  0.45868361223E+01  0.51100000000E-03 0. -1.
        -11    1    3    3    0    0 -0.12961404813E+02  0.12580135905E+02 -0.70215309078E+01  0.19379363526E+02  0.51100000000E-03 0.  1.
         12    1    3    3    0    0 -0.17774403252E+02  0.15731508384E+02 -0.20083816426E+01  0.23821069746E+02  0.00000000000E+00 0. -1.
</event>
<event>
 7    1  0.5031164E-009  0.4778726E+02  0.7816164E-02  0.1312668E+00
        -11   -1    0    0    0    0  0.00000000000E+00  0.00000000000E+00  0.45593999997E+02  0.45594000000E+02  0.51100000000E-03 0.  1.
         11   -1    0    0    0    0 -0.00000000000E+00 -0.00000000000E+00 -0.45593999997E+02  0.45594000000E+02  0.51100000000E-03 0. -1.
    9900012    2    1    2    0    0  0.29592145123E+02  0.16106196909E+02  0.27359085082E+02  0.47787260740E+02  0.19999953017E+02 0.  0.
         12    1    1    2    0    0 -0.29592145123E+02 -0.16106196909E+02 -0.27359085082E+02  0.43400739260E+02  0.00000000000E+00 0. -1.
         11    1    3    3    0    0 -0.14244422963E+00  0.33190408757E+00  0.12795666917E+01  0.13295645384E+01  0.51100000000E-03 0. -1.
        -11    1    3    3    0    0  0.25022938259E+02  0.17720253564E+02  0.14731393836E+02  0.34017183747E+02  0.51100000000E-03 0.  1.
        -12    1    3    3    0    0  0.47116510936E+01 -0.19459607426E+01  0.11348124554E+02  0.12440512454E+02  0.00000000000E+00 0.  1.
</event>
<event>
 7    1  0.5031164E-009  0.4778727E+02  0.7816164E-02  0.1312668E+00
        -11   -1    0    0    0    0  0.00000000000E+00  0.00000000000E+00  0.45593999997E+02  0.45594000000E+02  0.51100000000E-03 0.  1.
         11   -1    0    0    0    0 -0.00000000000E+00 -0.00000000000E+00 -0.45593999997E+02  0.45594000000E+02  0.51100000000E-03 0. -1.
    9900012    2    1    2    0    0 -0.15906732368E+02  0.27518032636E+02  0.29552609881E+02  0.47787274136E+02  0.20000014093E+02 0.  0.
         12    1    1    2    0    0  0.15906732368E+02 -0.27518032636E+02 -0.29552609881E+02  0.43400725864E+02  0.00000000000E+00 0. -1.
         11    1    3    3    0    0 -0.68387110726E+01  0.40489383526E+01  0.60701971008E+00  0.79705924565E+01  0.51100000000E-03 0. -1.
        -11    1    3    3    0    0 -0.23857665678E+01  0.18638319227E+02  0.17256940840E+02  0.25512366279E+02  0.51100000000E-03 0.  1.
         12    1    3    3    0    0 -0.66822547273E+01  0.48307750564E+01  0.11688649331E+02  0.14304315400E+02  0.00000000000E+00 0. -1.
</event>
<event>
 7    1  0.5031164E-009  0.4778726E+02  0.7816164E-02  0.1312668E+00
        -11   -1    0    0    0    0  0.00000000000E+00  0.00000000000E+00  0.45593999997E+02  0.45594000000E+02  0.51100000000E-03 0. -1.
         11   -1    0    0    0    0 -0.00000000000E+00 -0.00000000000E+00 -0.45593999997E+02  0.45594000000E+02  0.51100000000E-03 0.  1.
    9900012    2    1    2    0    0 -0.33569164621E+02 -0.15475041153E+02 -0.22743321239E+02  0.47787258382E+02  0.19999942265E+02 0.  0.
         12    1    1    2    0    0  0.33569164621E+02  0.15475041153E+02  0.22743321239E+02  0.43400741618E+02  0.00000000000E+00 0. -1.
         11    1    3    3    0    0 -0.27419000757E+02 -0.88446553885E+01 -0.12772156130E+02  0.31514401532E+02  0.51100000000E-03 0.  1.
        -11    1    3    3    0    0 -0.62945990717E+01 -0.69275830922E+01 -0.11432001090E+02  0.14775115368E+02  0.51100000000E-03 0. -1.
         12    1    3    3    0    0  0.14443520742E+00  0.29719732811E+00  0.14608359811E+01  0.14977414812E+01  0.00000000000E+00 0. -1.
</event>
<event>
 7    1  0.5031164E-009  0.4778727E+02  0.7816164E-02  0.1312668E+00
        -11   -1    0    0    0    0  0.00000000000E+00  0.00000000000E+00  0.45593999997E+02  0.45594000000E+02  0.51100000000E-03 0.  1.
         11   -1    0    0    0    0 -0.00000000000E+00 -0.00000000000E+00 -0.45593999997E+02  0.45594000000E+02  0.51100000000E-03 0. -1.
    9900012    2    1    2    0    0 -0.39949661883E+02  0.16950379617E+02 -0.57658610562E+00  0.47787270683E+02  0.19999998353E+02 0.  0.
         12    1    1    2    0    0  0.39949661883E+02 -0.16950379617E+02  0.57658610562E+00  0.43400729317E+02  0.00000000000E+00 0. -1.
         11    1    3    3    0    0 -0.31351423557E+02  0.10736563133E+02 -0.76928484434E+01  0.34020074432E+02  0.51100000000E-03 0. -1.
        -11    1    3    3    0    0 -0.29648552427E+01  0.78341921296E+00  0.46368286645E+01  0.55591629405E+01  0.51100000000E-03 0.  1.
         12    1    3    3    0    0 -0.56333830833E+01  0.54303972713E+01  0.24794336733E+01  0.82080333106E+01  0.00000000000E+00 0. -1.
</event>
<event>
 7    1  0.5031164E-009  0.4778727E+02  0.7816164E-02  0.1312668E+00
        -11   -1    0    0    0    0  0.00000000000E+00  0.00000000000E+00  0.45593999997E+02  0.45594000000E+02  0.51100000000E-03 0. -1.
         11   -1    0    0    0    0 -0.00000000000E+00 -0.00000000000E+00 -0.45593999997E+02  0.45594000000E+02  0.51100000000E-03 0.  1.
    9900012    2    1    2    0    0 -0.23343843126E+02  0.27494882552E+02  0.24139590849E+02  0.47787269306E+02  0.19999992073E+02 0.  0.
         12    1    1    2    0    0  0.23343843126E+02 -0.27494882552E+02 -0.24139590849E+02  0.43400730694E+02  0.00000000000E+00 0. -1.
         11    1    3    3    0    0  0.31445851132E+01  0.50005426893E+01  0.56380598683E+01  0.81658779113E+01  0.51100000000E-03 0. -1.
        -11    1    3    3    0    0 -0.23092539673E+02  0.18988924267E+02  0.14125268206E+02  0.33066113099E+02  0.51100000000E-03 0.  1.
         12    1    3    3    0    0 -0.33958885664E+01  0.35054155957E+01  0.43762627754E+01  0.65552782956E+01  0.00000000000E+00 0. -1.
</event>
<event>
 7    1  0.5031164E-009  0.4778727E+02  0.7816164E-02  0.1312668E+00
        -11   -1    0    0    0    0  0.00000000000E+00  0.00000000000E+00  0.45593999997E+02  0.45594000000E+02  0.51100000000E-03 0.  1.
         11   -1    0    0    0    0 -0.00000000000E+00 -0.00000000000E+00 -0.45593999997E+02  0.45594000000E+02  0.51100000000E-03 0. -1.
    9900012    2    1    2    0    0 -0.32781942366E+02  0.27738274980E+02 -0.62893390060E+01  0.47787269254E+02  0.19999991835E+02 0.  0.
         12    1    1    2    0    0  0.32781942366E+02 -0.27738274980E+02  0.62893390060E+01  0.43400730746E+02  0.00000000000E+00 0. -1.
         11    1    3    3    0    0 -0.15513793783E+02  0.28354449970E+01  0.33692502216E+00  0.15774380007E+02  0.51100000000E-03 0. -1.
        -11    1    3    3    0    0 -0.11448596629E+02  0.21793200530E+02 -0.41469196963E+01  0.24964192303E+02  0.51100000000E-03 0.  1.
        -12    1    3    3    0    0 -0.58195519540E+01  0.31096294533E+01 -0.24793443319E+01  0.70486969433E+01  0.00000000000E+00 0.  1.
</event>
<event>
 7    1  0.5031164E-009  0.4778727E+02  0.7816164E-02  0.1312668E+00
        -11   -1    0    0    0    0  0.00000000000E+00  0.00000000000E+00  0.45593999997E+02  0.45594000000E+02  0.51100000000E-03 0. -1.
         11   -1    0    0    0    0 -0.00000000000E+00 -0.00000000000E+00 -0.45593999997E+02  0.45594000000E+02  0.51100000000E-03 0.  1.
    9900012    2    1    2    0    0 -0.14019715977E+02  0.39393203360E+02  0.11629543244E+02  0.47787272090E+02  0.20000004767E+02 0.  0.
         12    1    1    2    0    0  0.14019715977E+02 -0.39393203360E+02 -0.11629543244E+02  0.43400727910E+02  0.00000000000E+00 0. -1.
         11    1    3    3    0    0 -0.10387243732E+02  0.25887400375E+02  0.15905404227E+02  0.32109721494E+02  0.51100000000E-03 0. -1.
        -11    1    3    3    0    0 -0.24976028127E+00  0.49177016155E+01 -0.41607407045E+01  0.64465442563E+01  0.51100000000E-03 0.  1.
         12    1    3    3    0    0 -0.33827119639E+01  0.85881013694E+01 -0.11512027889E+00  0.92310063395E+01  0.00000000000E+00 0. -1.
</event>
<event>
 7    1  0.5031164E-009  0.4778727E+02  0.7816164E-02  0.1312668E+00
        -11   -1    0    0    0    0  0.00000000000E+00  0.00000000000E+00  0.45593999997E+02  0.45594000000E+02  0.51100000000E-03 0. -1.
         11   -1    0    0    0    0 -0.00000000000E+00 -0.00000000000E+00 -0.45593999997E+02  0.45594000000E+02  0.51100000000E-03 0.  1.
    9900012    2    1    2    0    0  0.31280073516E+01  0.28280653530E+02 -0.32772610284E+02  0.47787265226E+02  0.19999973470E+02 0.  0.
         12    1    1    2    0    0 -0.31280073516E+01 -0.28280653530E+02  0.32772610284E+02  0.43400734774E+02  0.00000000000E+00 0. -1.
         11    1    3    3    0    0  0.54819281595E+01  0.97403267709E+01 -0.25159428764E+02  0.27530389716E+02  0.51100000000E-03 0. -1.
        -11    1    3    3    0    0 -0.16737945736E+01  0.12630822670E+02 -0.60598302122E+01  0.14108891242E+02  0.51100000000E-03 0.  1.
         12    1    3    3    0    0 -0.68012623429E+00  0.59095040890E+01 -0.15533513085E+01  0.61479842680E+01  0.00000000000E+00 0. -1.
</event>
<event>
 7    1  0.5031164E-009  0.4778727E+02  0.7816164E-02  0.1312668E+00
        -11   -1    0    0    0    0  0.00000000000E+00  0.00000000000E+00  0.45593999997E+02  0.45594000000E+02  0.51100000000E-03 0. -1.
         11   -1    0    0    0    0 -0.00000000000E+00 -0.00000000000E+00 -0.45593999997E+02  0.45594000000E+02  0.51100000000E-03 0.  1.
    9900012    2    1    2    0    0  0.15420087236E+02 -0.34530943889E+02 -0.21294559182E+02  0.47787269281E+02  0.19999991958E+02 0.  0.
         12    1    1    2    0    0 -0.15420087236E+02  0.34530943889E+02  0.21294559182E+02  0.43400730719E+02  0.00000000000E+00 0. -1.
         11    1    3    3    0    0  0.78685842808E+01 -0.71446980428E+01  0.14594474865E+01  0.10728062077E+02  0.51100000000E-03 0. -1.
        -11    1    3    3    0    0  0.18873543388E+00 -0.64578747953E+01 -0.85485372805E+01  0.10715281510E+02  0.51100000000E-03 0.  1.
         12    1    3    3    0    0  0.73627675216E+01 -0.20928371051E+02 -0.14205469388E+02  0.26343925693E+02  0.00000000000E+00 0. -1.
</event>
<event>
 7    1  0.5031164E-009  0.4778727E+02  0.7816164E-02  0.1312668E+00
        -11   -1    0    0    0    0  0.00000000000E+00  0.00000000000E+00  0.45593999997E+02  0.45594000000E+02  0.51100000000E-03 0.  1.
         11   -1    0    0    0    0 -0.00000000000E+00 -0.00000000000E+00 -0.45593999997E+02  0.45594000000E+02  0.51100000000E-03 0. -1.
    9900012    2    1    2    0    0  0.10778940442E+02 -0.19074059754E+02  0.37464889492E+02  0.47787271236E+02  0.20000000876E+02 0.  0.
         12    1    1    2    0    0 -0.10778940442E+02  0.19074059754E+02 -0.37464889492E+02  0.43400728764E+02  0.00000000000E+00 0. -1.
         11    1    3    3    0    0  0.78620229521E+01 -0.11664162327E+02  0.31140252719E+02  0.34169861390E+02  0.51100000000E-03 0. -1.
        -11    1    3    3    0    0 -0.15326125032E+00 -0.14988155201E+01 -0.22819083837E+01  0.27344182392E+01  0.51100000000E-03 0.  1.
        -12    1    3    3    0    0  0.30701787403E+01 -0.59110819070E+01  0.86065451561E+01  0.10882991608E+02  0.00000000000E+00 0.  1.
</event>
<event>
 7    1  0.5031164E-009  0.4778727E+02  0.7816164E-02  0.1312668E+00
        -11   -1    0    0    0    0  0.00000000000E+00  0.00000000000E+00  0.45593999997E+02  0.45594000000E+02  0.51100000000E-03 0.  1.
         11   -1    0    0    0    0 -0.00000000000E+00 -0.00000000000E+00 -0.45593999997E+02  0.45594000000E+02  0.51100000000E-03 0. -1.
    9900012    2    1    2    0    0 -0.12230807581E+02 -0.20678173788E+01  0.41590321703E+02  0.47787269797E+02  0.19999994314E+02 0.  0.
         12    1    1    2    0    0  0.12230807581E+02  0.20678173788E+01 -0.41590321703E+02  0.43400730203E+02  0.00000000000E+00 0. -1.
         11    1    3    3    0    0 -0.65859934930E+01 -0.62538994854E+00  0.96325951100E+01  0.11685602753E+02  0.51100000000E-03 0.  1.
        -11    1    3    3    0    0 -0.67729375723E+01 -0.69512595191E+01  0.12370673934E+02  0.15723430481E+02  0.51100000000E-03 0. -1.
        -12    1    3    3    0    0  0.11281234845E+01  0.55088320888E+01  0.19587052659E+02  0.20378236564E+02  0.00000000000E+00 0.  1.
</event>
<event>
 7    1  0.5031164E-009  0.4778727E+02  0.7816164E-02  0.1312668E+00
        -11   -1    0    0    0    0  0.00000000000E+00  0.00000000000E+00  0.45593999997E+02  0.45594000000E+02  0.51100000000E-03 0.  1.
         11   -1    0    0    0    0 -0.00000000000E+00 -0.00000000000E+00 -0.45593999997E+02  0.45594000000E+02  0.51100000000E-03 0. -1.
    9900012    2    1    2    0    0 -0.35271303762E+02 -0.24989300203E+02 -0.38849859953E+01  0.47787272933E+02  0.20000008613E+02 0.  0.
         12    1    1    2    0    0  0.35271303762E+02  0.24989300203E+02  0.38849859953E+01  0.43400727067E+02  0.00000000000E+00 0. -1.
         11    1    3    3    0    0 -0.21176096658E+02 -0.11479980064E+02 -0.11057969200E+02  0.26504635350E+02  0.51100000000E-03 0. -1.
        -11    1    3    3    0    0 -0.34054475050E+01 -0.42197834052E+01  0.40816864565E+01  0.67870324359E+01  0.51100000000E-03 0.  1.
         12    1    3    3    0    0 -0.10689759599E+02 -0.92895367341E+01  0.30912967479E+01  0.14495605148E+02  0.00000000000E+00 0. -1.
</event>
<event>
 7    1  0.5031164E-009  0.4778728E+02  0.7816164E-02  0.1312668E+00
        -11   -1    0    0    0    0  0.00000000000E+00  0.00000000000E+00  0.45593999997E+02  0.45594000000E+02  0.51100000000E-03 0. -1.
         11   -1    0    0    0    0 -0.00000000000E+00 -0.00000000000E+00 -0.45593999997E+02  0.45594000000E+02  0.51100000000E-03 0.  1.
    9900012    2    1    2    0    0 -0.13550401062E+02 -0.33003551802E+02 -0.24713863885E+02  0.47787275713E+02  0.20000021286E+02 0.  0.
         12    1    1    2    0    0  0.13550401062E+02  0.33003551802E+02  0.24713863885E+02  0.43400724287E+02  0.00000000000E+00 0. -1.
         11    1    3    3    0    0 -0.89079302754E+01 -0.20612529943E+02 -0.94135785806E+01  0.24348369030E+02  0.51100000000E-03 0. -1.
        -11    1    3    3    0    0  0.54030531941E+00 -0.78359448991E+01 -0.14502533016E+02  0.16492950810E+02  0.51100000000E-03 0.  1.
        -12    1    3    3    0    0 -0.51827761059E+01 -0.45550769600E+01 -0.79775228879E+00  0.69459558730E+01  0.00000000000E+00 0.  1.
</event>
<event>
 7    1  0.5031164E-009  0.4778729E+02  0.7816164E-02  0.1312668E+00
        -11   -1    0    0    0    0  0.00000000000E+00  0.00000000000E+00  0.45593999997E+02  0.45594000000E+02  0.51100000000E-03 0.  1.
         11   -1    0    0    0    0 -0.00000000000E+00 -0.00000000000E+00 -0.45593999997E+02  0.45594000000E+02  0.51100000000E-03 0. -1.
    9900012    2    1    2    0    0 -0.29500020849E+02  0.15512850464E+02  0.27797882591E+02  0.47787285304E+02  0.20000065016E+02 0.  0.
         12    1    1    2    0    0  0.29500020849E+02 -0.15512850464E+02 -0.27797882591E+02  0.43400714696E+02  0.00000000000E+00 0. -1.
         11    1    3    3    0    0 -0.77685007186E+01 -0.22339433070E+01  0.38747098073E+01  0.89640104008E+01  0.51100000000E-03 0.  1.
        -11    1    3    3    0    0 -0.10169967594E+02  0.92524014236E+01  0.19404888989E+02  0.23782028718E+02  0.51100000000E-03 0. -1.
        -12    1    3    3    0    0 -0.11561552536E+02  0.84943923469E+01  0.45182837939E+01  0.15041246186E+02  0.00000000000E+00 0.  1.
</event>
<event>
 7    1  0.5031164E-009  0.4778727E+02  0.7816164E-02  0.1312668E+00
        -11   -1    0    0    0    0  0.00000000000E+00  0.00000000000E+00  0.45593999997E+02  0.45594000000E+02  0.51100000000E-03 0.  1.
         11   -1    0    0    0    0 -0.00000000000E+00 -0.00000000000E+00 -0.45593999997E+02  0.45594000000E+02  0.51100000000E-03 0. -1.
    9900012    2    1    2    0    0  0.30948422799E+02 -0.13649267171E+02  0.27194037723E+02  0.47787273558E+02  0.20000011460E+02 0.  0.
         12    1    1    2    0    0 -0.30948422799E+02  0.13649267171E+02 -0.27194037723E+02  0.43400726442E+02  0.00000000000E+00 0. -1.
         11    1    3    3    0    0  0.11994898634E+02 -0.64136153911E+01  0.44799199989E+01  0.14320675231E+02  0.51100000000E-03 0. -1.
        -11    1    3    3    0    0  0.14084586326E+02 -0.10475631957E+02  0.12008910517E+02  0.21268012811E+02  0.51100000000E-03 0.  1.
         12    1    3    3    0    0  0.48689378392E+01  0.32399801777E+01  0.10705207207E+02  0.12198585516E+02  0.00000000000E+00 0. -1.
</event>
<event>
 7    1  0.5031164E-009  0.4778728E+02  0.7816164E-02  0.1312668E+00
        -11   -1    0    0    0    0  0.00000000000E+00  0.00000000000E+00  0.45593999997E+02  0.45594000000E+02  0.51100000000E-03 0. -1.
         11   -1    0    0    0    0 -0.00000000000E+00 -0.00000000000E+00 -0.45593999997E+02  0.45594000000E+02  0.51100000000E-03 0.  1.
    9900012    2    1    2    0    0  0.93144716325E+01  0.42241227500E+02  0.35414452853E+01  0.47787279762E+02  0.20000039747E+02 0.  0.
         12    1    1    2    0    0 -0.93144716325E+01 -0.42241227500E+02 -0.35414452853E+01  0.43400720238E+02  0.00000000000E+00 0. -1.
         11    1    3    3    0    0 -0.13800059446E+01  0.18651620871E+02 -0.59075443315E+01  0.19613425448E+02  0.51100000000E-03 0. -1.
        -11    1    3    3    0    0  0.66801535703E+01  0.79508542227E+01  0.41078673006E+01  0.11167591890E+02  0.51100000000E-03 0.  1.
         12    1    3    3    0    0  0.40143240068E+01  0.15638752406E+02  0.53411223162E+01  0.17006262424E+02  0.00000000000E+00 0. -1.
</event>
<event>
 7    1  0.5031164E-009  0.4778727E+02  0.7816164E-02  0.1312668E+00
        -11   -1    0    0    0    0  0.00000000000E+00  0.00000000000E+00  0.45593999997E+02  0.45594000000E+02  0.51100000000E-03 0.  1.
         11   -1    0    0    0    0 -0.00000000000E+00 -0.00000000000E+00 -0.45593999997E+02  0.45594000000E+02  0.51100000000E-03 0. -1.
    9900012    2    1    2    0    0 -0.32842952845E+02  0.23488078654E+02  0.15914583517E+02  0.47787270064E+02  0.19999995532E+02 0.  0.
         12    1    1    2    0    0  0.32842952845E+02 -0.23488078654E+02 -0.15914583517E+02  0.43400729936E+02  0.00000000000E+00 0. -1.
         11    1    3    3    0    0 -0.11663713309E+02 -0.20138654860E+00  0.39390160619E+01  0.12312538832E+02  0.51100000000E-03 0. -1.
        -11    1    3    3    0    0 -0.14217305516E+02  0.15810164903E+02  0.12981922733E+02  0.24912314395E+02  0.51100000000E-03 0.  1.
         12    1    3    3    0    0 -0.69619340195E+01  0.78793002991E+01 -0.10063552779E+01  0.10562416837E+02  0.00000000000E+00 0. -1.
</event>
<event>
 7    1  0.5031164E-009  0.4778727E+02  0.7816164E-02  0.1312668E+00
        -11   -1    0    0    0    0  0.00000000000E+00  0.00000000000E+00  0.45593999997E+02  0.45594000000E+02  0.51100000000E-03 0. -1.
         11   -1    0    0    0    0 -0.00000000000E+00 -0.00000000000E+00 -0.45593999997E+02  0.45594000000E+02  0.51100000000E-03 0.  1.
    9900012    2    1    2    0    0 -0.96482690734E+01  0.36764416099E+02 -0.20950220308E+02  0.47787272838E+02  0.20000008178E+02 0.  0.
         12    1    1    2    0    0  0.96482690734E+01 -0.36764416099E+02  0.20950220308E+02  0.43400727162E+02  0.00000000000E+00 0. -1.
         11    1    3    3    0    0  0.13859545429E+00  0.79694775651E+01  0.13350855302E+01  0.80817222790E+01  0.51100000000E-03 0. -1.
        -11    1    3    3    0    0 -0.21553670651E+01  0.20780759344E+02 -0.18793484379E+02  0.28101256582E+02  0.51100000000E-03 0.  1.
        -12    1    3    3    0    0 -0.76314974627E+01  0.80141791899E+01 -0.34918214597E+01  0.11604293978E+02  0.00000000000E+00 0.  1.
</event>
<event>
 7    1  0.5031164E-009  0.4778727E+02  0.7816164E-02  0.1312668E+00
        -11   -1    0    0    0    0  0.00000000000E+00  0.00000000000E+00  0.45593999997E+02  0.45594000000E+02  0.51100000000E-03 0.  1.
         11   -1    0    0    0    0 -0.00000000000E+00 -0.00000000000E+00 -0.45593999997E+02  0.45594000000E+02  0.51100000000E-03 0. -1.
    9900012    2    1    2    0    0  0.36079970368E+02  0.15330979892E+01  0.24072983458E+02  0.47787272083E+02  0.20000004735E+02 0.  0.
         12    1    1    2    0    0 -0.36079970368E+02 -0.15330979892E+01 -0.24072983458E+02  0.43400727917E+02  0.00000000000E+00 0. -1.
         11    1    3    3    0    0  0.15278715863E+02  0.92831007021E+00  0.15800612757E+01  0.15388226405E+02  0.51100000000E-03 0. -1.
        -11    1    3    3    0    0  0.11141274314E+02  0.53785338975E+01  0.13970330977E+02  0.18660835139E+02  0.51100000000E-03 0.  1.
        -12    1    3    3    0    0  0.96599801905E+01 -0.47737459785E+01  0.85225912049E+01  0.13738210538E+02  0.00000000000E+00 0.  1.
</event>
<event>
 7    1  0.5031164E-009  0.4778732E+02  0.7816164E-02  0.1312668E+00
        -11   -1    0    0    0    0  0.00000000000E+00  0.00000000000E+00  0.45593999997E+02  0.45594000000E+02  0.51100000000E-03 0. -1.
         11   -1    0    0    0    0 -0.00000000000E+00 -0.00000000000E+00 -0.45593999997E+02  0.45594000000E+02  0.51100000000E-03 0.  1.
    9900012    2    1    2    0    0  0.12594274591E+02 -0.34155302246E+02 -0.23630887469E+02  0.47787317211E+02  0.20000210491E+02 0.  0.
         12    1    1    2    0    0 -0.12594274591E+02  0.34155302246E+02  0.23630887469E+02  0.43400682789E+02  0.00000000000E+00 0. -1.
         11    1    3    3    0    0  0.76482388330E+01 -0.32036536961E+02 -0.12623478102E+02  0.35273041510E+02  0.51100000000E-03 0. -1.
        -11    1    3    3    0    0  0.33052743668E+01 -0.43214436809E-01 -0.62816847267E+01  0.70983286338E+01  0.51100000000E-03 0.  1.
         12    1    3    3    0    0  0.16407613911E+01 -0.20755508481E+01 -0.47257246397E+01  0.54159470673E+01  0.00000000000E+00 0. -1.
</event>
<event>
 7    1  0.5031164E-009  0.4778727E+02  0.7816164E-02  0.1312668E+00
        -11   -1    0    0    0    0  0.00000000000E+00  0.00000000000E+00  0.45593999997E+02  0.45594000000E+02  0.51100000000E-03 0. -1.
         11   -1    0    0    0    0 -0.00000000000E+00 -0.00000000000E+00 -0.45593999997E+02  0.45594000000E+02  0.51100000000E-03 0.  1.
    9900012    2    1    2    0    0  0.37795096242E+02  0.20708121682E+02 -0.51310396416E+01  0.47787272225E+02  0.20000005384E+02 0.  0.
         12    1    1    2    0    0 -0.37795096242E+02 -0.20708121682E+02  0.51310396416E+01  0.43400727775E+02  0.00000000000E+00 0. -1.
         11    1    3    3    0    0  0.25810169164E+01 -0.13443956421E+01 -0.31655035760E+01  0.42999373386E+01  0.51100000000E-03 0. -1.
        -11    1    3    3    0    0  0.24179787040E+02  0.18598792054E+02  0.34869548718E+01  0.30704006607E+02  0.51100000000E-03 0.  1.
        -12    1    3    3    0    0  0.11034292286E+02  0.34537252701E+01 -0.54524909374E+01  0.12783328280E+02  0.00000000000E+00 0.  1.
</event>
<event>
 7    1  0.5031164E-009  0.4778727E+02  0.7816164E-02  0.1312668E+00
        -11   -1    0    0    0    0  0.00000000000E+00  0.00000000000E+00  0.45593999997E+02  0.45594000000E+02  0.51100000000E-03 0. -1.
         11   -1    0    0    0    0 -0.00000000000E+00 -0.00000000000E+00 -0.45593999997E+02  0.45594000000E+02  0.51100000000E-03 0.  1.
    9900012    2    1    2    0    0 -0.55285421923E+01 -0.42652836824E+02 -0.58132693432E+01  0.47787269956E+02  0.19999995036E+02 0.  0.
         12    1    1    2    0    0  0.55285421923E+01  0.42652836824E+02  0.58132693432E+01  0.43400730044E+02  0.00000000000E+00 0. -1.
         11    1    3    3    0    0 -0.22235512315E+00 -0.66446068465E-01 -0.27459256599E+01  0.27557149475E+01  0.51100000000E-03 0. -1.
        -11    1    3    3    0    0  0.18082171860E+01 -0.48280829661E+01 -0.41120927862E+01  0.65946449384E+01  0.51100000000E-03 0.  1.
        -12    1    3    3    0    0 -0.71144042552E+01 -0.37758307790E+02  0.10447491030E+01  0.38436910070E+02  0.00000000000E+00 0.  1.
</event>
<event>
 7    1  0.5031164E-009  0.4778727E+02  0.7816164E-02  0.1312668E+00
        -11   -1    0    0    0    0  0.00000000000E+00  0.00000000000E+00  0.45593999997E+02  0.45594000000E+02  0.51100000000E-03 0.  1.
         11   -1    0    0    0    0 -0.00000000000E+00 -0.00000000000E+00 -0.45593999997E+02  0.45594000000E+02  0.51100000000E-03 0. -1.
    9900012    2    1    2    0    0 -0.35355025806E+02  0.47369914025E+01  0.24722588733E+02  0.47787270387E+02  0.19999997002E+02 0.  0.
         12    1    1    2    0    0  0.35355025806E+02 -0.47369914025E+01 -0.24722588733E+02  0.43400729613E+02  0.00000000000E+00 0. -1.
         11    1    3    3    0    0 -0.74256703232E+01  0.43188649003E+01 -0.95665728821E+00  0.86434002108E+01  0.51100000000E-03 0. -1.
        -11    1    3    3    0    0 -0.26343100631E+02  0.25692832752E+01  0.21131525171E+02  0.33868887252E+02  0.51100000000E-03 0.  1.
         12    1    3    3    0    0 -0.15862548524E+01 -0.21511567731E+01  0.45477208500E+01  0.52749829240E+01  0.00000000000E+00 0. -1.
</event>
<event>
 7    1  0.5031164E-009  0.4778727E+02  0.7816164E-02  0.1312668E+00
        -11   -1    0    0    0    0  0.00000000000E+00  0.00000000000E+00  0.45593999997E+02  0.45594000000E+02  0.51100000000E-03 0.  1.
         11   -1    0    0    0    0 -0.00000000000E+00 -0.00000000000E+00 -0.45593999997E+02  0.45594000000E+02  0.51100000000E-03 0. -1.
    9900012    2    1    2    0    0  0.50351751588E+01  0.26046321110E+02  0.34349078079E+02  0.47787274233E+02  0.20000014538E+02 0.  0.
         12    1    1    2    0    0 -0.50351751588E+01 -0.26046321110E+02 -0.34349078079E+02  0.43400725767E+02  0.00000000000E+00 0. -1.
         11    1    3    3    0    0  0.28800147651E+01  0.50324270565E+00 -0.47580798811E+00  0.29621160968E+01  0.51100000000E-03 0. -1.
        -11    1    3    3    0    0 -0.18639619954E+01  0.23727121963E+02  0.28892055912E+02  0.37432627026E+02  0.51100000000E-03 0.  1.
        -12    1    3    3    0    0  0.40191223890E+01  0.18159564417E+01  0.59328301549E+01  0.73925311107E+01  0.00000000000E+00 0.  1.
</event>
<event>
 7    1  0.6089667E-009  0.4778727E+02  0.7816164E-02  0.1312668E+00
        -11   -1    0    0    0    0  0.00000000000E+00  0.00000000000E+00  0.45593999997E+02  0.45594000000E+02  0.51100000000E-03 0. -1.
         11   -1    0    0    0    0 -0.00000000000E+00 -0.00000000000E+00 -0.45593999997E+02  0.45594000000E+02  0.51100000000E-03 0.  1.
    9900012    2    1    2    0    0  0.29737833072E+02  0.21627067932E+02 -0.23055467822E+02  0.47787269826E+02  0.19999994444E+02 0.  0.
         12    1    1    2    0    0 -0.29737833072E+02 -0.21627067932E+02  0.23055467822E+02  0.43400730174E+02  0.00000000000E+00 0. -1.
         11    1    3    3    0    0  0.70163618459E+01  0.28250188407E+00  0.75257997264E+00  0.70622601017E+01  0.51100000000E-03 0. -1.
        -11    1    3    3    0    0  0.22223883476E+02  0.15318773386E+02 -0.19249432733E+02  0.33152774780E+02  0.51100000000E-03 0.  1.
        -12    1    3    3    0    0  0.49758775025E+00  0.60257926619E+01 -0.45586150620E+01  0.75722349447E+01  0.00000000000E+00 0.  1.
</event>
<event>
 7    1  0.5031164E-009  0.4778726E+02  0.7816164E-02  0.1312668E+00
        -11   -1    0    0    0    0  0.00000000000E+00  0.00000000000E+00  0.45593999997E+02  0.45594000000E+02  0.51100000000E-03 0.  1.
         11   -1    0    0    0    0 -0.00000000000E+00 -0.00000000000E+00 -0.45593999997E+02  0.45594000000E+02  0.51100000000E-03 0. -1.
    9900012    2    1    2    0    0  0.11389238464E+02 -0.25824516815E+02  0.32969743571E+02  0.47787257926E+02  0.19999940186E+02 0.  0.
         12    1    1    2    0    0 -0.11389238464E+02  0.25824516815E+02 -0.32969743571E+02  0.43400742074E+02  0.00000000000E+00 0. -1.
         11    1    3    3    0    0 -0.99684399041E+00 -0.64197750113E+00  0.35657319374E+01  0.37576957784E+01  0.51100000000E-03 0. -1.
        -11    1    3    3    0    0  0.14878997699E+02 -0.25415426091E+02  0.29270599705E+02  0.41522240586E+02  0.51100000000E-03 0.  1.
        -12    1    3    3    0    0 -0.24929152446E+01  0.23288677723E+00  0.13341192781E+00  0.25073215610E+01  0.00000000000E+00 0.  1.
</event>
<event>
 7    1  0.5031164E-009  0.4778728E+02  0.7816164E-02  0.1312668E+00
        -11   -1    0    0    0    0  0.00000000000E+00  0.00000000000E+00  0.45593999997E+02  0.45594000000E+02  0.51100000000E-03 0. -1.
         11   -1    0    0    0    0 -0.00000000000E+00 -0.00000000000E+00 -0.45593999997E+02  0.45594000000E+02  0.51100000000E-03 0.  1.
    9900012    2    1    2    0    0  0.13643792697E+02  0.61075948381E+01 -0.40745145112E+02  0.47787278300E+02  0.20000033083E+02 0.  0.
         12    1    1    2    0    0 -0.13643792697E+02 -0.61075948381E+01  0.40745145112E+02  0.43400721700E+02  0.00000000000E+00 0. -1.
         11    1    3    3    0    0  0.10508440981E+02  0.87913868244E+01 -0.16935713987E+02  0.21783806431E+02  0.51100000000E-03 0. -1.
        -11    1    3    3    0    0  0.45478246138E+01  0.24202537572E+01 -0.12204166386E+02  0.13246962460E+02  0.51100000000E-03 0.  1.
         12    1    3    3    0    0 -0.14124728980E+01 -0.51040457436E+01 -0.11605264739E+02  0.12756509409E+02  0.00000000000E+00 0. -1.
</event>
<event>
 7    1  0.5031164E-009  0.4778727E+02  0.7816164E-02  0.1312668E+00
        -11   -1    0    0    0    0  0.00000000000E+00  0.00000000000E+00  0.45593999997E+02  0.45594000000E+02  0.51100000000E-03 0. -1.
         11   -1    0    0    0    0 -0.00000000000E+00 -0.00000000000E+00 -0.45593999997E+02  0.45594000000E+02  0.51100000000E-03 0.  1.
    9900012    2    1    2    0    0  0.41197909521E+02  0.80309105250E+01 -0.11039020934E+02  0.47787271252E+02  0.20000000944E+02 0.  0.
         12    1    1    2    0    0 -0.41197909521E+02 -0.80309105250E+01  0.11039020934E+02  0.43400728748E+02  0.00000000000E+00 0. -1.
         11    1    3    3    0    0  0.26165933526E+01  0.53070042252E+00  0.39492338233E+01  0.47670380493E+01  0.51100000000E-03 0. -1.
        -11    1    3    3    0    0  0.28569154760E+02  0.86957350976E+01 -0.85739894621E+01  0.31069691150E+02  0.51100000000E-03 0.  1.
         12    1    3    3    0    0  0.10012161408E+02 -0.11955249951E+01 -0.64142652948E+01  0.11950542053E+02  0.00000000000E+00 0. -1.
</event>
<event>
 7    1  0.5031164E-009  0.4778727E+02  0.7816164E-02  0.1312668E+00
        -11   -1    0    0    0    0  0.00000000000E+00  0.00000000000E+00  0.45593999997E+02  0.45594000000E+02  0.51100000000E-03 0.  1.
         11   -1    0    0    0    0 -0.00000000000E+00 -0.00000000000E+00 -0.45593999997E+02  0.45594000000E+02  0.51100000000E-03 0. -1.
    9900012    2    1    2    0    0 -0.24989919158E+02 -0.71665402246E+01  0.34752953852E+02  0.47787272360E+02  0.20000005996E+02 0.  0.
         12    1    1    2    0    0  0.24989919158E+02  0.71665402246E+01 -0.34752953852E+02  0.43400727640E+02  0.00000000000E+00 0. -1.
         11    1    3    3    0    0 -0.20189447518E+02 -0.13800928359E+01  0.14916171799E+02  0.25139821573E+02  0.51100000000E-03 0. -1.
        -11    1    3    3    0    0 -0.27786646697E+01 -0.44733854385E+01  0.19517693822E+02  0.20215650547E+02  0.51100000000E-03 0.  1.
        -12    1    3    3    0    0 -0.20218069698E+01 -0.13130619502E+01  0.31908823065E+00  0.24318002400E+01  0.00000000000E+00 0.  1.
</event>
<event>
 7    1  0.5031164E-009  0.4778727E+02  0.7816164E-02  0.1312668E+00
        -11   -1    0    0    0    0  0.00000000000E+00  0.00000000000E+00  0.45593999997E+02  0.45594000000E+02  0.51100000000E-03 0.  1.
         11   -1    0    0    0    0 -0.00000000000E+00 -0.00000000000E+00 -0.45593999997E+02  0.45594000000E+02  0.51100000000E-03 0. -1.
    9900012    2    1    2    0    0  0.18657105403E+02 -0.12373079116E+02 -0.37181211812E+02  0.47787272119E+02  0.20000004900E+02 0.  0.
         12    1    1    2    0    0 -0.18657105403E+02  0.12373079116E+02  0.37181211812E+02  0.43400727881E+02  0.00000000000E+00 0. -1.
         11    1    3    3    0    0  0.12589336413E+01 -0.92219046927E+01 -0.58106069511E+01  0.10972310307E+02  0.51100000000E-03 0. -1.
        -11    1    3    3    0    0  0.55935619816E+01 -0.27826207763E+01 -0.52953204801E+01  0.81897089859E+01  0.51100000000E-03 0.  1.
         12    1    3    3    0    0  0.11804609780E+02 -0.36855364674E+00 -0.26075284380E+02  0.28625252826E+02  0.00000000000E+00 0. -1.
</event>
<event>
 7    1  0.5031164E-009  0.4778727E+02  0.7816164E-02  0.1312668E+00
        -11   -1    0    0    0    0  0.00000000000E+00  0.00000000000E+00  0.45593999997E+02  0.45594000000E+02  0.51100000000E-03 0.  1.
         11   -1    0    0    0    0 -0.00000000000E+00 -0.00000000000E+00 -0.45593999997E+02  0.45594000000E+02  0.51100000000E-03 0. -1.
    9900012    2    1    2    0    0  0.26394034818E+01 -0.11284703941E+02  0.41824782888E+02  0.47787268930E+02  0.19999990360E+02 0.  0.
         12    1    1    2    0    0 -0.26394034818E+01  0.11284703941E+02 -0.41824782888E+02  0.43400731070E+02  0.00000000000E+00 0. -1.
         11    1    3    3    0    0  0.61488614179E+01 -0.61721951254E+01  0.56601369327E+01  0.10389496608E+02  0.51100000000E-03 0. -1.
        -11    1    3    3    0    0 -0.24838974805E+01 -0.23346599658E+01  0.47649647979E+01  0.58587774864E+01  0.51100000000E-03 0.  1.
         12    1    3    3    0    0 -0.10255604557E+01 -0.27778488502E+01  0.31399681157E+02  0.31538994836E+02  0.00000000000E+00 0. -1.
</event>
<event>
 7    1  0.5031164E-009  0.4778727E+02  0.7816164E-02  0.1312668E+00
        -11   -1    0    0    0    0  0.00000000000E+00  0.00000000000E+00  0.45593999997E+02  0.45594000000E+02  0.51100000000E-03 0.  1.
         11   -1    0    0    0    0 -0.00000000000E+00 -0.00000000000E+00 -0.45593999997E+02  0.45594000000E+02  0.51100000000E-03 0. -1.
    9900012    2    1    2    0    0 -0.29210645613E+02  0.19830536761E+02  0.25241069281E+02  0.47787267474E+02  0.19999983719E+02 0.  0.
         12    1    1    2    0    0  0.29210645613E+02 -0.19830536761E+02 -0.25241069281E+02  0.43400732526E+02  0.00000000000E+00 0. -1.
         11    1    3    3    0    0 -0.33315894173E+01  0.60560758706E+01  0.10964287286E+02  0.12961139570E+02  0.51100000000E-03 0. -1.
        -11    1    3    3    0    0 -0.22972634916E+02  0.16086990040E+02  0.12389309594E+02  0.30659879256E+02  0.51100000000E-03 0.  1.
        -12    1    3    3    0    0 -0.29064212804E+01 -0.23125291498E+01  0.18874724003E+01  0.41662486472E+01  0.00000000000E+00 0.  1.
</event>
<event>
 7    1  0.5031164E-009  0.4778727E+02  0.7816164E-02  0.1312668E+00
        -11   -1    0    0    0    0  0.00000000000E+00  0.00000000000E+00  0.45593999997E+02  0.45594000000E+02  0.51100000000E-03 0. -1.
         11   -1    0    0    0    0 -0.00000000000E+00 -0.00000000000E+00 -0.45593999997E+02  0.45594000000E+02  0.51100000000E-03 0.  1.
    9900012    2    1    2    0    0 -0.15309871495E+02 -0.10174147066E+02 -0.39315621496E+02  0.47787268124E+02  0.19999986684E+02 0.  0.
         12    1    1    2    0    0  0.15309871495E+02  0.10174147066E+02  0.39315621496E+02  0.43400731876E+02  0.00000000000E+00 0. -1.
         11    1    3    3    0    0 -0.27102812672E+01  0.36770901167E+01 -0.48366737040E+00  0.45935335701E+01  0.51100000000E-03 0. -1.
        -11    1    3    3    0    0 -0.82115443008E+01 -0.10525160197E+02 -0.28997922945E+02  0.31923157619E+02  0.51100000000E-03 0.  1.
         12    1    3    3    0    0 -0.43880459272E+01 -0.33260769863E+01 -0.98340311811E+01  0.11270576935E+02  0.00000000000E+00 0. -1.
</event>
<event>
 7    1  0.5031164E-009  0.4778727E+02  0.7816164E-02  0.1312668E+00
        -11   -1    0    0    0    0  0.00000000000E+00  0.00000000000E+00  0.45593999997E+02  0.45594000000E+02  0.51100000000E-03 0.  1.
         11   -1    0    0    0    0 -0.00000000000E+00 -0.00000000000E+00 -0.45593999997E+02  0.45594000000E+02  0.51100000000E-03 0. -1.
    9900012    2    1    2    0    0  0.31583205793E+02  0.27934086165E+02  0.10286460846E+02  0.47787270343E+02  0.19999996803E+02 0.  0.
         12    1    1    2    0    0 -0.31583205793E+02 -0.27934086165E+02 -0.10286460846E+02  0.43400729657E+02  0.00000000000E+00 0. -1.
         11    1    3    3    0    0  0.93625913053E+01  0.88690266811E+01  0.10125271335E+02  0.16396306599E+02  0.51100000000E-03 0. -1.
        -11    1    3    3    0    0  0.11047005934E+02  0.54041334667E+01 -0.45693408337E+01  0.13119446427E+02  0.51100000000E-03 0.  1.
        -12    1    3    3    0    0  0.11173608553E+02  0.13660926017E+02  0.47305303447E+01  0.18271517317E+02  0.00000000000E+00 0.  1.
</event>
<event>
 7    1  0.5031164E-009  0.4778727E+02  0.7816164E-02  0.1312668E+00
        -11   -1    0    0    0    0  0.00000000000E+00  0.00000000000E+00  0.45593999997E+02  0.45594000000E+02  0.51100000000E-03 0. -1.
         11   -1    0    0    0    0 -0.00000000000E+00 -0.00000000000E+00 -0.45593999997E+02  0.45594000000E+02  0.51100000000E-03 0.  1.
    9900012    2    1    2    0    0 -0.10742167021E+02 -0.37853178347E+02 -0.18313001667E+02  0.47787270820E+02  0.19999998977E+02 0.  0.
         12    1    1    2    0    0  0.10742167021E+02  0.37853178347E+02  0.18313001667E+02  0.43400729180E+02  0.00000000000E+00 0. -1.
         11    1    3    3    0    0  0.33878860936E+01 -0.32432331185E-02 -0.30963174141E+01  0.45896584287E+01  0.51100000000E-03 0. -1.
        -11    1    3    3    0    0 -0.96024968738E+01 -0.24539100743E+02 -0.93063399026E+01  0.27946079763E+02  0.51100000000E-03 0.  1.
         12    1    3    3    0    0 -0.45275562411E+01 -0.13310834371E+02 -0.59103443502E+01  0.15251532628E+02  0.00000000000E+00 0. -1.
</event>
<event>
 7    1  0.5031164E-009  0.4778726E+02  0.7816164E-02  0.1312668E+00
        -11   -1    0    0    0    0  0.00000000000E+00  0.00000000000E+00  0.45593999997E+02  0.45594000000E+02  0.51100000000E-03 0.  1.
         11   -1    0    0    0    0 -0.00000000000E+00 -0.00000000000E+00 -0.45593999997E+02  0.45594000000E+02  0.51100000000E-03 0. -1.
    9900012    2    1    2    0    0  0.11033525201E+01 -0.37042788349E+02  0.22588458407E+02  0.47787262579E+02  0.19999961402E+02 0.  0.
         12    1    1    2    0    0 -0.11033525201E+01  0.37042788349E+02 -0.22588458407E+02  0.43400737421E+02  0.00000000000E+00 0. -1.
         11    1    3    3    0    0 -0.10163989964E+01 -0.26550720585E+00  0.75174726964E+01  0.75905175712E+01  0.51100000000E-03 0. -1.
        -11    1    3    3    0    0  0.20096355436E+00 -0.17834227513E+02  0.43988904056E+01  0.18369820206E+02  0.51100000000E-03 0.  1.
        -12    1    3    3    0    0  0.19187879621E+01 -0.18943053630E+02  0.10672095305E+02  0.21826924802E+02  0.00000000000E+00 0.  1.
</event>
<event>
 7    1  0.5031164E-009  0.4778727E+02  0.7816164E-02  0.1312668E+00
        -11   -1    0    0    0    0  0.00000000000E+00  0.00000000000E+00  0.45593999997E+02  0.45594000000E+02  0.51100000000E-03 0. -1.
         11   -1    0    0    0    0 -0.00000000000E+00 -0.00000000000E+00 -0.45593999997E+02  0.45594000000E+02  0.51100000000E-03 0.  1.
    9900012    2    1    2    0    0 -0.22131820607E+02 -0.25605842403E+02 -0.27168852309E+02  0.47787272076E+02  0.20000004704E+02 0.  0.
         12    1    1    2    0    0  0.22131820607E+02  0.25605842403E+02  0.27168852309E+02  0.43400727924E+02  0.00000000000E+00 0. -1.
         11    1    3    3    0    0 -0.33992543046E+01 -0.14961856050E+01  0.10818713169E+01  0.38683261238E+01  0.51100000000E-03 0. -1.
        -11    1    3    3    0    0 -0.49604292956E+01 -0.33779623979E+01 -0.14015587433E+02  0.15246415320E+02  0.51100000000E-03 0.  1.
        -12    1    3    3    0    0 -0.13772137006E+02 -0.20731694400E+02 -0.14235136193E+02  0.28672530632E+02  0.00000000000E+00 0.  1.
</event>
<event>
 7    1  0.5031164E-009  0.4778727E+02  0.7816164E-02  0.1312668E+00
        -11   -1    0    0    0    0  0.00000000000E+00  0.00000000000E+00  0.45593999997E+02  0.45594000000E+02  0.51100000000E-03 0.  1.
         11   -1    0    0    0    0 -0.00000000000E+00 -0.00000000000E+00 -0.45593999997E+02  0.45594000000E+02  0.51100000000E-03 0. -1.
    9900012    2    1    2    0    0  0.31887385174E+02  0.60034213178E+01  0.28823200762E+02  0.47787270710E+02  0.19999998475E+02 0.  0.
         12    1    1    2    0    0 -0.31887385174E+02 -0.60034213178E+01 -0.28823200762E+02  0.43400729290E+02  0.00000000000E+00 0. -1.
         11    1    3    3    0    0  0.63128635493E+01  0.68220788880E+01  0.13808668491E+02  0.16645489849E+02  0.51100000000E-03 0. -1.
        -11    1    3    3    0    0  0.15200127268E+02 -0.51272229917E+01  0.84556581444E+01  0.18133682458E+02  0.51100000000E-03 0.  1.
        -12    1    3    3    0    0  0.10374394357E+02  0.43085654215E+01  0.65588741262E+01  0.13008098403E+02  0.00000000000E+00 0.  1.
</event>
<event>
 7    1  0.5031164E-009  0.4778728E+02  0.7816164E-02  0.1312668E+00
        -11   -1    0    0    0    0  0.00000000000E+00  0.00000000000E+00  0.45593999997E+02  0.45594000000E+02  0.51100000000E-03 0.  1.
         11   -1    0    0    0    0 -0.00000000000E+00 -0.00000000000E+00 -0.45593999997E+02  0.45594000000E+02  0.51100000000E-03 0. -1.
    9900012    2    1    2    0    0 -0.12593996387E+02  0.18653676634E+02  0.37108676585E+02  0.47787282554E+02  0.20000052478E+02 0.  0.
         12    1    1    2    0    0  0.12593996387E+02 -0.18653676634E+02 -0.37108676585E+02  0.43400717446E+02  0.00000000000E+00 0. -1.
         11    1    3    3    0    0  0.10998952234E+00  0.34768442097E+01 -0.15883396118E+01  0.38240510375E+01  0.51100000000E-03 0. -1.
        -11    1    3    3    0    0 -0.11145610956E+02  0.15661551387E+02  0.35299776682E+02  0.40194316383E+02  0.51100000000E-03 0.  1.
         12    1    3    3    0    0 -0.15583749532E+01 -0.48471896322E+00  0.33972395144E+01  0.37689151339E+01  0.00000000000E+00 0. -1.
</event>
<event>
 7    1  0.5031164E-009  0.4778728E+02  0.7816164E-02  0.1312668E+00
        -11   -1    0    0    0    0  0.00000000000E+00  0.00000000000E+00  0.45593999997E+02  0.45594000000E+02  0.51100000000E-03 0.  1.
         11   -1    0    0    0    0 -0.00000000000E+00 -0.00000000000E+00 -0.45593999997E+02  0.45594000000E+02  0.51100000000E-03 0. -1.
    9900012    2    1    2    0    0 -0.10778012767E+02  0.33285123929E+02  0.25681852837E+02  0.47787278815E+02  0.20000035431E+02 0.  0.
         12    1    1    2    0    0  0.10778012767E+02 -0.33285123929E+02 -0.25681852837E+02  0.43400721185E+02  0.00000000000E+00 0. -1.
         11    1    3    3    0    0 -0.12850789703E+02  0.13498886075E+02  0.11062017219E+02  0.21673277243E+02  0.51100000000E-03 0.  1.
        -11    1    3    3    0    0  0.10910273457E+01 -0.39705464118E+00 -0.19609094504E-01  0.11611967253E+01  0.51100000000E-03 0. -1.
         12    1    3    3    0    0  0.98174959058E+00  0.20183292495E+02  0.14639444713E+02  0.24952804847E+02  0.00000000000E+00 0. -1.
</event>
<event>
 7    1  0.5031164E-009  0.4778727E+02  0.7816164E-02  0.1312668E+00
        -11   -1    0    0    0    0  0.00000000000E+00  0.00000000000E+00  0.45593999997E+02  0.45594000000E+02  0.51100000000E-03 0.  1.
         11   -1    0    0    0    0 -0.00000000000E+00 -0.00000000000E+00 -0.45593999997E+02  0.45594000000E+02  0.51100000000E-03 0. -1.
    9900012    2    1    2    0    0  0.41240315667E+02  0.97774121276E+01  0.93414036362E+01  0.47787271365E+02  0.20000001460E+02 0.  0.
         12    1    1    2    0    0 -0.41240315667E+02 -0.97774121276E+01 -0.93414036362E+01  0.43400728635E+02  0.00000000000E+00 0. -1.
         11    1    3    3    0    0  0.34435901131E+02  0.50858334888E+01  0.87146365268E+01  0.35883727218E+02  0.51100000000E-03 0. -1.
        -11    1    3    3    0    0  0.29355662545E+01 -0.84964898981E+00  0.34238780970E+01  0.45893784029E+01  0.51100000000E-03 0.  1.
         12    1    3    3    0    0  0.38688482810E+01  0.55412276285E+01 -0.27971109876E+01  0.73141657439E+01  0.00000000000E+00 0. -1.
</event>
<event>
 7    1  0.5031164E-009  0.4778727E+02  0.7816164E-02  0.1312668E+00
        -11   -1    0    0    0    0  0.00000000000E+00  0.00000000000E+00  0.45593999997E+02  0.45594000000E+02  0.51100000000E-03 0. -1.
         11   -1    0    0    0    0 -0.00000000000E+00 -0.00000000000E+00 -0.45593999997E+02  0.45594000000E+02  0.51100000000E-03 0.  1.
    9900012    2    1    2    0    0 -0.20134969341E+02 -0.28433719259E+02  0.25879144879E+02  0.47787268198E+02  0.19999987023E+02 0.  0.
         12    1    1    2    0    0  0.20134969341E+02  0.28433719259E+02 -0.25879144879E+02  0.43400731802E+02  0.00000000000E+00 0. -1.
         11    1    3    3    0    0 -0.10082490603E+02 -0.87881083877E+01  0.18288582931E+02  0.22657443185E+02  0.51100000000E-03 0. -1.
        -11    1    3    3    0    0 -0.10839957003E+02 -0.17986261332E+02  0.89670163323E+01  0.22834571305E+02  0.51100000000E-03 0.  1.
         12    1    3    3    0    0  0.78747826475E+00 -0.16593495387E+01 -0.13764543847E+01  0.22952537076E+01  0.00000000000E+00 0. -1.
</event>
<event>
 7    1  0.5031164E-009  0.4778727E+02  0.7816164E-02  0.1312668E+00
        -11   -1    0    0    0    0  0.00000000000E+00  0.00000000000E+00  0.45593999997E+02  0.45594000000E+02  0.51100000000E-03 0.  1.
         11   -1    0    0    0    0 -0.00000000000E+00 -0.00000000000E+00 -0.45593999997E+02  0.45594000000E+02  0.51100000000E-03 0. -1.
    9900012    2    1    2    0    0 -0.14146697855E+02 -0.21645781989E+02  0.34856196298E+02  0.47787270070E+02  0.19999995557E+02 0.  0.
         12    1    1    2    0    0  0.14146697855E+02  0.21645781989E+02 -0.34856196298E+02  0.43400729930E+02  0.00000000000E+00 0. -1.
         11    1    3    3    0    0 -0.94555505539E+01 -0.11125580316E+01  0.11610324009E+02  0.15014820861E+02  0.51100000000E-03 0. -1.
        -11    1    3    3    0    0 -0.66571408267E+01 -0.13702981596E+02  0.19477308093E+02  0.24727611276E+02  0.51100000000E-03 0.  1.
         12    1    3    3    0    0  0.19659935259E+01 -0.68302423620E+01  0.37685641960E+01  0.80448379329E+01  0.00000000000E+00 0. -1.
</event>
<event>
 7    1  0.5202792E-009  0.4778727E+02  0.7816164E-02  0.1312668E+00
        -11   -1    0    0    0    0  0.00000000000E+00  0.00000000000E+00  0.45593999997E+02  0.45594000000E+02  0.51100000000E-03 0.  1.
         11   -1    0    0    0    0 -0.00000000000E+00 -0.00000000000E+00 -0.45593999997E+02  0.45594000000E+02  0.51100000000E-03 0. -1.
    9900012    2    1    2    0    0 -0.16909627553E+02  0.28945366174E+02  0.27565438210E+02  0.47787272925E+02  0.20000008575E+02 0.  0.
         12    1    1    2    0    0  0.16909627553E+02 -0.28945366174E+02 -0.27565438210E+02  0.43400727075E+02  0.00000000000E+00 0. -1.
         11    1    3    3    0    0 -0.36601666182E+01  0.59821059353E+00 -0.10020130378E+01  0.38417061283E+01  0.51100000000E-03 0. -1.
        -11    1    3    3    0    0 -0.10310113936E+02  0.23039371470E+02  0.15716014003E+02  0.29733889478E+02  0.51100000000E-03 0.  1.
        -12    1    3    3    0    0 -0.29393469993E+01  0.53077841101E+01  0.12851437245E+02  0.14211677319E+02  0.00000000000E+00 0.  1.
</event>
<event>
 7    1  0.5031164E-009  0.4778727E+02  0.7816164E-02  0.1312668E+00
        -11   -1    0    0    0    0  0.00000000000E+00  0.00000000000E+00  0.45593999997E+02  0.45594000000E+02  0.51100000000E-03 0. -1.
         11   -1    0    0    0    0 -0.00000000000E+00 -0.00000000000E+00 -0.45593999997E+02  0.45594000000E+02  0.51100000000E-03 0.  1.
    9900012    2    1    2    0    0  0.22163075524E+02  0.23320938080E+02 -0.29129970506E+02  0.47787271305E+02  0.20000001188E+02 0.  0.
         12    1    1    2    0    0 -0.22163075524E+02 -0.23320938080E+02  0.29129970506E+02  0.43400728695E+02  0.00000000000E+00 0. -1.
         11    1    3    3    0    0  0.35383421537E+01  0.98633849827E+01 -0.16772405549E+02  0.19776749396E+02  0.51100000000E-03 0. -1.
        -11    1    3    3    0    0  0.59557685997E+01  0.34513067647E+01 -0.93149237053E+01  0.11582335770E+02  0.51100000000E-03 0.  1.
         12    1    3    3    0    0  0.12668964771E+02  0.10006246332E+02 -0.30426412512E+01  0.16428186139E+02  0.00000000000E+00 0. -1.
</event>
<event>
 7    1  0.5031164E-009  0.4778727E+02  0.7816164E-02  0.1312668E+00
        -11   -1    0    0    0    0  0.00000000000E+00  0.00000000000E+00  0.45593999997E+02  0.45594000000E+02  0.51100000000E-03 0.  1.
         11   -1    0    0    0    0 -0.00000000000E+00 -0.00000000000E+00 -0.45593999997E+02  0.45594000000E+02  0.51100000000E-03 0. -1.
    9900012    2    1    2    0    0  0.36079594928E+02  0.17488400418E+02  0.16614525894E+02  0.47787265098E+02  0.19999972886E+02 0.  0.
         12    1    1    2    0    0 -0.36079594928E+02 -0.17488400418E+02 -0.16614525894E+02  0.43400734902E+02  0.00000000000E+00 0. -1.
         11    1    3    3    0    0  0.21568213590E+02  0.29986509159E+01  0.12386331629E+02  0.25051965118E+02  0.51100000000E-03 0. -1.
        -11    1    3    3    0    0  0.68416838029E+01  0.18256407389E+01  0.35328444948E+01  0.79134437417E+01  0.51100000000E-03 0.  1.
         12    1    3    3    0    0  0.76696975352E+01  0.12664108763E+02  0.69534977104E+00  0.14821856238E+02  0.00000000000E+00 0. -1.
</event>
<event>
 7    1  0.5031164E-009  0.4778727E+02  0.7816164E-02  0.1312668E+00
        -11   -1    0    0    0    0  0.00000000000E+00  0.00000000000E+00  0.45593999997E+02  0.45594000000E+02  0.51100000000E-03 0.  1.
         11   -1    0    0    0    0 -0.00000000000E+00 -0.00000000000E+00 -0.45593999997E+02  0.45594000000E+02  0.51100000000E-03 0. -1.
    9900012    2    1    2    0    0 -0.30909641073E+02  0.25850382938E+02  0.16123734014E+02  0.47787274109E+02  0.20000013973E+02 0.  0.
         12    1    1    2    0    0  0.30909641073E+02 -0.25850382938E+02 -0.16123734014E+02  0.43400725891E+02  0.00000000000E+00 0. -1.
         11    1    3    3    0    0 -0.71874365495E+01  0.13707053061E+02  0.13382218222E+02  0.20460359541E+02  0.51100000000E-03 0. -1.
        -11    1    3    3    0    0 -0.62657612031E+01  0.28151897610E+01  0.30882273634E+01  0.75314145653E+01  0.51100000000E-03 0.  1.
         12    1    3    3    0    0 -0.17456443321E+02  0.93281401161E+01 -0.34671157145E+00  0.19795500003E+02  0.00000000000E+00 0. -1.
</event>
<event>
 7    1  0.5031164E-009  0.4778727E+02  0.7816164E-02  0.1312668E+00
        -11   -1    0    0    0    0  0.00000000000E+00  0.00000000000E+00  0.45593999997E+02  0.45594000000E+02  0.51100000000E-03 0. -1.
         11   -1    0    0    0    0 -0.00000000000E+00 -0.00000000000E+00 -0.45593999997E+02  0.45594000000E+02  0.51100000000E-03 0.  1.
    9900012    2    1    2    0    0 -0.43243477180E+02 -0.36736887218E+01  0.35917852512E+00  0.47787270552E+02  0.19999997753E+02 0.  0.
         12    1    1    2    0    0  0.43243477180E+02  0.36736887218E+01 -0.35917852512E+00  0.43400729448E+02  0.00000000000E+00 0. -1.
         11    1    3    3    0    0 -0.31615511980E+02 -0.81185235256E+01 -0.82340831334E-01  0.32641351110E+02  0.51100000000E-03 0. -1.
        -11    1    3    3    0    0 -0.71660715798E+01 -0.65647328992E-01  0.36432638658E+01  0.80392949514E+01  0.51100000000E-03 0.  1.
         12    1    3    3    0    0 -0.44618936200E+01  0.45104821328E+01 -0.32017445094E+01  0.71066244905E+01  0.00000000000E+00 0. -1.
</event>
<event>
 7    1  0.5031164E-009  0.4778727E+02  0.7816164E-02  0.1312668E+00
        -11   -1    0    0    0    0  0.00000000000E+00  0.00000000000E+00  0.45593999997E+02  0.45594000000E+02  0.51100000000E-03 0. -1.
         11   -1    0    0    0    0 -0.00000000000E+00 -0.00000000000E+00 -0.45593999997E+02  0.45594000000E+02  0.51100000000E-03 0.  1.
    9900012    2    1    2    0    0 -0.25190944601E+02 -0.15630179166E+02 -0.31697591090E+02  0.47787268767E+02  0.19999989616E+02 0.  0.
         12    1    1    2    0    0  0.25190944601E+02  0.15630179166E+02  0.31697591090E+02  0.43400731233E+02  0.00000000000E+00 0. -1.
         11    1    3    3    0    0 -0.13126935924E+02 -0.13284987876E+02 -0.10620560514E+02  0.21484963474E+02  0.51100000000E-03 0. -1.
        -11    1    3    3    0    0 -0.47990919580E+01  0.27962199433E+01 -0.34031649909E+01  0.65139589965E+01  0.51100000000E-03 0.  1.
         12    1    3    3    0    0 -0.72649167198E+01 -0.51414112333E+01 -0.17673865585E+02  0.19788346296E+02  0.00000000000E+00 0. -1.
</event>
<event>
 7    1  0.5031164E-009  0.4778727E+02  0.7816164E-02  0.1312668E+00
        -11   -1    0    0    0    0  0.00000000000E+00  0.00000000000E+00  0.45593999997E+02  0.45594000000E+02  0.51100000000E-03 0.  1.
         11   -1    0    0    0    0 -0.00000000000E+00 -0.00000000000E+00 -0.45593999997E+02  0.45594000000E+02  0.51100000000E-03 0. -1.
    9900012    2    1    2    0    0  0.17516221073E+02  0.29273853018E+02  0.26829960290E+02  0.47787271430E+02  0.20000001760E+02 0.  0.
         12    1    1    2    0    0 -0.17516221073E+02 -0.29273853018E+02 -0.26829960290E+02  0.43400728570E+02  0.00000000000E+00 0. -1.
         11    1    3    3    0    0  0.33277305201E+01  0.11680778574E+02  0.46642695625E+01  0.13010372375E+02  0.51100000000E-03 0. -1.
        -11    1    3    3    0    0 -0.78866726874E+00 -0.79224806723E+00 -0.10912001302E+01  0.15621686996E+01  0.51100000000E-03 0.  1.
        -12    1    3    3    0    0  0.14977157822E+02  0.18385322511E+02  0.23256890858E+02  0.33214730356E+02  0.00000000000E+00 0.  1.
</event>
<event>
 7    1  0.5031164E-009  0.4778727E+02  0.7816164E-02  0.1312668E+00
        -11   -1    0    0    0    0  0.00000000000E+00  0.00000000000E+00  0.45593999997E+02  0.45594000000E+02  0.51100000000E-03 0.  1.
         11   -1    0    0    0    0 -0.00000000000E+00 -0.00000000000E+00 -0.45593999997E+02  0.45594000000E+02  0.51100000000E-03 0. -1.
    9900012    2    1    2    0    0 -0.28173306952E+02 -0.28008137566E+02  0.17476616276E+02  0.47787272921E+02  0.20000008557E+02 0.  0.
         12    1    1    2    0    0  0.28173306952E+02  0.28008137566E+02 -0.17476616276E+02  0.43400727079E+02  0.00000000000E+00 0. -1.
         11    1    3    3    0    0 -0.69917073843E+01 -0.13002450777E+02  0.16250700284E+01  0.14852223781E+02  0.51100000000E-03 0. -1.
        -11    1    3    3    0    0 -0.21213336053E+02 -0.13784841663E+02  0.17588265981E+02  0.30811922801E+02  0.51100000000E-03 0.  1.
         12    1    3    3    0    0  0.31736485666E-01 -0.12208451251E+01 -0.17367197332E+01  0.21231263401E+01  0.00000000000E+00 0. -1.
</event>
<event>
 7    1  0.5031164E-009  0.4778725E+02  0.7816164E-02  0.1312668E+00
        -11   -1    0    0    0    0  0.00000000000E+00  0.00000000000E+00  0.45593999997E+02  0.45594000000E+02  0.51100000000E-03 0.  1.
         11   -1    0    0    0    0 -0.00000000000E+00 -0.00000000000E+00 -0.45593999997E+02  0.45594000000E+02  0.51100000000E-03 0. -1.
    9900012    2    1    2    0    0 -0.88013658217E+01 -0.34804219523E+02  0.24389081798E+02  0.47787250607E+02  0.19999906818E+02 0.  0.
         12    1    1    2    0    0  0.88013658217E+01  0.34804219523E+02 -0.24389081798E+02  0.43400749393E+02  0.00000000000E+00 0. -1.
         11    1    3    3    0    0 -0.61801055796E+01 -0.33881603782E+02  0.22549806272E+02  0.41166133447E+02  0.51100000000E-03 0.  1.
        -11    1    3    3    0    0 -0.30383664016E+01  0.11145049269E+01  0.28470499575E+01  0.43103927134E+01  0.51100000000E-03 0. -1.
         12    1    3    3    0    0  0.41710615946E+00 -0.20371206673E+01 -0.10077744317E+01  0.23107244463E+01  0.00000000000E+00 0. -1.
</event>
<event>
 7    1  0.5031164E-009  0.4778728E+02  0.7816164E-02  0.1312668E+00
        -11   -1    0    0    0    0  0.00000000000E+00  0.00000000000E+00  0.45593999997E+02  0.45594000000E+02  0.51100000000E-03 0. -1.
         11   -1    0    0    0    0 -0.00000000000E+00 -0.00000000000E+00 -0.45593999997E+02  0.45594000000E+02  0.51100000000E-03 0.  1.
    9900012    2    1    2    0    0 -0.24775902569E+02 -0.11979267641E+02 -0.33560016346E+02  0.47787275370E+02  0.20000019720E+02 0.  0.
         12    1    1    2    0    0  0.24775902569E+02  0.11979267641E+02  0.33560016346E+02  0.43400724630E+02  0.00000000000E+00 0. -1.
         11    1    3    3    0    0  0.16145075164E+01 -0.15491937187E+01 -0.13792737031E+01  0.26285037393E+01  0.51100000000E-03 0. -1.
        -11    1    3    3    0    0 -0.21150212785E+02 -0.13929684285E+02 -0.24673282377E+02  0.35357297248E+02  0.51100000000E-03 0.  1.
        -12    1    3    3    0    0 -0.52401973004E+01  0.34996103628E+01 -0.75074602654E+01  0.98014743827E+01  0.00000000000E+00 0.  1.
</event>
<event>
 7    1  0.5031164E-009  0.4778727E+02  0.7816164E-02  0.1312668E+00
        -11   -1    0    0    0    0  0.00000000000E+00  0.00000000000E+00  0.45593999997E+02  0.45594000000E+02  0.51100000000E-03 0.  1.
         11   -1    0    0    0    0 -0.00000000000E+00 -0.00000000000E+00 -0.45593999997E+02  0.45594000000E+02  0.51100000000E-03 0. -1.
    9900012    2    1    2    0    0 -0.33387044900E+02 -0.23889798973E+02  0.14078563123E+02  0.47787271876E+02  0.20000003791E+02 0.  0.
         12    1    1    2    0    0  0.33387044900E+02  0.23889798973E+02 -0.14078563123E+02  0.43400728124E+02  0.00000000000E+00 0. -1.
         11    1    3    3    0    0 -0.36836953758E+01  0.63233959070E+00 -0.12929407756E+01  0.39548907810E+01  0.51100000000E-03 0. -1.
        -11    1    3    3    0    0 -0.81602456569E+01 -0.15496265625E+02  0.45801317934E+01  0.18102526481E+02  0.51100000000E-03 0.  1.
        -12    1    3    3    0    0 -0.21543103867E+02 -0.90258729387E+01  0.10791372105E+02  0.25729854614E+02  0.00000000000E+00 0.  1.
</event>
<event>
 7    1  0.5031164E-009  0.4778727E+02  0.7816164E-02  0.1312668E+00
        -11   -1    0    0    0    0  0.00000000000E+00  0.00000000000E+00  0.45593999997E+02  0.45594000000E+02  0.51100000000E-03 0.  1.
         11   -1    0    0    0    0 -0.00000000000E+00 -0.00000000000E+00 -0.45593999997E+02  0.45594000000E+02  0.51100000000E-03 0. -1.
    9900012    2    1    2    0    0  0.11611400479E+02  0.28311785535E+02  0.30777287923E+02  0.47787271052E+02  0.20000000036E+02 0.  0.
         12    1    1    2    0    0 -0.11611400479E+02 -0.28311785535E+02 -0.30777287923E+02  0.43400728948E+02  0.00000000000E+00 0. -1.
         11    1    3    3    0    0 -0.32584095854E+01  0.73648856297E+01  0.79672178358E+01  0.11328518600E+02  0.51100000000E-03 0. -1.
        -11    1    3    3    0    0  0.41884660415E+01  0.16231383201E+02  0.13189351982E+02  0.21329792647E+02  0.51100000000E-03 0.  1.
         12    1    3    3    0    0  0.10681344023E+02  0.47155167043E+01  0.96207181056E+01  0.15128959805E+02  0.00000000000E+00 0. -1.
</event>
<event>
 7    1  0.5031164E-009  0.4778727E+02  0.7816164E-02  0.1312668E+00
        -11   -1    0    0    0    0  0.00000000000E+00  0.00000000000E+00  0.45593999997E+02  0.45594000000E+02  0.51100000000E-03 0.  1.
         11   -1    0    0    0    0 -0.00000000000E+00 -0.00000000000E+00 -0.45593999997E+02  0.45594000000E+02  0.51100000000E-03 0. -1.
    9900012    2    1    2    0    0  0.30774509479E+02 -0.34057378989E+01  0.30413048100E+02  0.47787274441E+02  0.20000015486E+02 0.  0.
         12    1    1    2    0    0 -0.30774509479E+02  0.34057378989E+01 -0.30413048100E+02  0.43400725559E+02  0.00000000000E+00 0. -1.
         11    1    3    3    0    0  0.37183898024E+01 -0.46572240304E+00 -0.12149566334E+01  0.39394720410E+01  0.51100000000E-03 0. -1.
        -11    1    3    3    0    0  0.16144003923E+02 -0.35656664598E+01  0.27650875483E+02  0.32216668903E+02  0.51100000000E-03 0.  1.
         12    1    3    3    0    0  0.10912115754E+02  0.62565096398E+00  0.39771292505E+01  0.11631133497E+02  0.00000000000E+00 0. -1.
</event>
<event>
 7    1  0.5031164E-009  0.4778727E+02  0.7816164E-02  0.1312668E+00
        -11   -1    0    0    0    0  0.00000000000E+00  0.00000000000E+00  0.45593999997E+02  0.45594000000E+02  0.51100000000E-03 0.  1.
         11   -1    0    0    0    0 -0.00000000000E+00 -0.00000000000E+00 -0.45593999997E+02  0.45594000000E+02  0.51100000000E-03 0. -1.
    9900012    2    1    2    0    0  0.11604926166E+02  0.13339142280E+02  0.39636043022E+02  0.47787274954E+02  0.20000017825E+02 0.  0.
         12    1    1    2    0    0 -0.11604926166E+02 -0.13339142280E+02 -0.39636043022E+02  0.43400725046E+02  0.00000000000E+00 0. -1.
         11    1    3    3    0    0 -0.29541103444E+01  0.26047531479E+01  0.90630639770E+01  0.98818336254E+01  0.51100000000E-03 0. -1.
        -11    1    3    3    0    0  0.81862796473E+01 -0.13978506931E+01  0.82128029951E+01  0.11679867051E+02  0.51100000000E-03 0.  1.
        -12    1    3    3    0    0  0.63727568626E+01  0.12132239825E+02  0.22360176050E+02  0.26225574278E+02  0.00000000000E+00 0.  1.
</event>
<event>
 7    1  0.5031164E-009  0.4778727E+02  0.7816164E-02  0.1312668E+00
        -11   -1    0    0    0    0  0.00000000000E+00  0.00000000000E+00  0.45593999997E+02  0.45594000000E+02  0.51100000000E-03 0.  1.
         11   -1    0    0    0    0 -0.00000000000E+00 -0.00000000000E+00 -0.45593999997E+02  0.45594000000E+02  0.51100000000E-03 0. -1.
    9900012    2    1    2    0    0 -0.26316653647E+02  0.32799755676E+02  0.10734660097E+02  0.47787272368E+02  0.20000006034E+02 0.  0.
         12    1    1    2    0    0  0.26316653647E+02 -0.32799755676E+02 -0.10734660097E+02  0.43400727632E+02  0.00000000000E+00 0. -1.
         11    1    3    3    0    0  0.23371674141E-01  0.99598526279E+01 -0.93713543532E+00  0.10003870935E+02  0.51100000000E-03 0. -1.
        -11    1    3    3    0    0 -0.10254948124E+02  0.13828860376E+02  0.79997431980E+01  0.18984131053E+02  0.51100000000E-03 0.  1.
         12    1    3    3    0    0 -0.16085077197E+02  0.90110426724E+01  0.36720523342E+01  0.18799270380E+02  0.00000000000E+00 0. -1.
</event>
<event>
 7    1  0.5031164E-009  0.4778726E+02  0.7816164E-02  0.1312668E+00
        -11   -1    0    0    0    0  0.00000000000E+00  0.00000000000E+00  0.45593999997E+02  0.45594000000E+02  0.51100000000E-03 0.  1.
         11   -1    0    0    0    0 -0.00000000000E+00 -0.00000000000E+00 -0.45593999997E+02  0.45594000000E+02  0.51100000000E-03 0. -1.
    9900012    2    1    2    0    0  0.94864771274E+01  0.13675410189E+02  0.40082587065E+02  0.47787264085E+02  0.19999968269E+02 0.  0.
         12    1    1    2    0    0 -0.94864771274E+01 -0.13675410189E+02 -0.40082587065E+02  0.43400735915E+02  0.00000000000E+00 0. -1.
         11    1    3    3    0    0  0.39250429382E+01 -0.36901361295E+01  0.64374523805E+01  0.83942754382E+01  0.51100000000E-03 0. -1.
        -11    1    3    3    0    0  0.37307997922E+01  0.18133688104E+01  0.35178283185E+01  0.54389603668E+01  0.51100000000E-03 0.  1.
         12    1    3    3    0    0  0.18306343970E+01  0.15552177508E+02  0.30127306366E+02  0.33954028280E+02  0.00000000000E+00 0. -1.
</event>
<event>
 7    1  0.5031164E-009  0.4778727E+02  0.7816164E-02  0.1312668E+00
        -11   -1    0    0    0    0  0.00000000000E+00  0.00000000000E+00  0.45593999997E+02  0.45594000000E+02  0.51100000000E-03 0. -1.
         11   -1    0    0    0    0 -0.00000000000E+00 -0.00000000000E+00 -0.45593999997E+02  0.45594000000E+02  0.51100000000E-03 0.  1.
    9900012    2    1    2    0    0 -0.35987925099E+02 -0.15683233532E+02 -0.18507533277E+02  0.47787270110E+02  0.19999995740E+02 0.  0.
         12    1    1    2    0    0  0.35987925099E+02  0.15683233532E+02  0.18507533277E+02  0.43400729890E+02  0.00000000000E+00 0. -1.
         11    1    3    3    0    0 -0.83121723007E+01 -0.94408130279E+01 -0.11155597643E+02  0.16812748675E+02  0.51100000000E-03 0. -1.
        -11    1    3    3    0    0 -0.16138697318E+02 -0.27289218000E+01 -0.91959162485E+01  0.18774169521E+02  0.51100000000E-03 0.  1.
         12    1    3    3    0    0 -0.11537055481E+02 -0.35134987040E+01  0.18439806141E+01  0.12200351914E+02  0.00000000000E+00 0. -1.
</event>
<event>
 7    1  0.5031164E-009  0.4778727E+02  0.7816164E-02  0.1312668E+00
        -11   -1    0    0    0    0  0.00000000000E+00  0.00000000000E+00  0.45593999997E+02  0.45594000000E+02  0.51100000000E-03 0. -1.
         11   -1    0    0    0    0 -0.00000000000E+00 -0.00000000000E+00 -0.45593999997E+02  0.45594000000E+02  0.51100000000E-03 0.  1.
    9900012    2    1    2    0    0 -0.12673485828E+02  0.14856770347E+02 -0.38759287919E+02  0.47787271110E+02  0.20000000297E+02 0.  0.
         12    1    1    2    0    0  0.12673485828E+02 -0.14856770347E+02  0.38759287919E+02  0.43400728890E+02  0.00000000000E+00 0. -1.
         11    1    3    3    0    0 -0.27382267671E+01  0.12392006177E+00  0.13725844246E+01  0.30654902175E+01  0.51100000000E-03 0. -1.
        -11    1    3    3    0    0 -0.36085177065E+01  0.10650297215E+02 -0.30427263090E+02  0.32438689404E+02  0.51100000000E-03 0.  1.
         12    1    3    3    0    0 -0.63267413547E+01  0.40825530704E+01 -0.97046092536E+01  0.12283091488E+02  0.00000000000E+00 0. -1.
</event>
<event>
 7    1  0.5031164E-009  0.4778726E+02  0.7816164E-02  0.1312668E+00
        -11   -1    0    0    0    0  0.00000000000E+00  0.00000000000E+00  0.45593999997E+02  0.45594000000E+02  0.51100000000E-03 0. -1.
         11   -1    0    0    0    0 -0.00000000000E+00 -0.00000000000E+00 -0.45593999997E+02  0.45594000000E+02  0.51100000000E-03 0.  1.
    9900012    2    1    2    0    0  0.40920673253E+02  0.72225052451E+01 -0.12528296762E+02  0.47787259208E+02  0.19999946035E+02 0.  0.
         12    1    1    2    0    0 -0.40920673253E+02 -0.72225052451E+01  0.12528296762E+02  0.43400740792E+02  0.00000000000E+00 0. -1.
         11    1    3    3    0    0  0.34981649459E+02  0.72268093349E+01 -0.15539010483E+02  0.38953862698E+02  0.51100000000E-03 0.  1.
        -11    1    3    3    0    0  0.62520254123E+01  0.90212536426E+00  0.39830917515E+01  0.74677086239E+01  0.51100000000E-03 0. -1.
        -12    1    3    3    0    0 -0.31300161850E+00 -0.90642945408E+00 -0.97237803088E+00  0.13656878865E+01  0.00000000000E+00 0.  1.
</event>
<event>
 7    1  0.5031164E-009  0.4778727E+02  0.7816164E-02  0.1312668E+00
        -11   -1    0    0    0    0  0.00000000000E+00  0.00000000000E+00  0.45593999997E+02  0.45594000000E+02  0.51100000000E-03 0.  1.
         11   -1    0    0    0    0 -0.00000000000E+00 -0.00000000000E+00 -0.45593999997E+02  0.45594000000E+02  0.51100000000E-03 0. -1.
    9900012    2    1    2    0    0  0.23778020090E+01 -0.17381998011E+02  0.39696791297E+02  0.47787273779E+02  0.20000012468E+02 0.  0.
         12    1    1    2    0    0 -0.23778020090E+01  0.17381998011E+02 -0.39696791297E+02  0.43400726221E+02  0.00000000000E+00 0. -1.
         11    1    3    3    0    0  0.61005766866E-01  0.61314357383E+00 -0.12267863520E+01  0.13728334787E+01  0.51100000000E-03 0. -1.
        -11    1    3    3    0    0  0.72187439591E+01 -0.11007148019E+02  0.27803753444E+02  0.30762254106E+02  0.51100000000E-03 0.  1.
        -12    1    3    3    0    0 -0.49019477170E+01 -0.69879935650E+01  0.13119824205E+02  0.15652186194E+02  0.00000000000E+00 0.  1.
</event>
<event>
 7    1  0.5031164E-009  0.4778728E+02  0.7816164E-02  0.1312668E+00
        -11   -1    0    0    0    0  0.00000000000E+00  0.00000000000E+00  0.45593999997E+02  0.45594000000E+02  0.51100000000E-03 0.  1.
         11   -1    0    0    0    0 -0.00000000000E+00 -0.00000000000E+00 -0.45593999997E+02  0.45594000000E+02  0.51100000000E-03 0. -1.
    9900012    2    1    2    0    0  0.19126960036E+02  0.43952863471E+01  0.38709995747E+02  0.47787275202E+02  0.20000018957E+02 0.  0.
         12    1    1    2    0    0 -0.19126960036E+02 -0.43952863471E+01 -0.38709995747E+02  0.43400724798E+02  0.00000000000E+00 0. -1.
         11    1    3    3    0    0  0.45121022148E+01 -0.22152006332E+00  0.27188748673E+02  0.27561498366E+02  0.51100000000E-03 0. -1.
        -11    1    3    3    0    0  0.14267039228E+02  0.57629433106E+01  0.10306389984E+02  0.18519762382E+02  0.51100000000E-03 0.  1.
        -12    1    3    3    0    0  0.34781859281E+00 -0.11461369002E+01  0.12148570902E+01  0.17060144540E+01  0.00000000000E+00 0.  1.
</event>
<event>
 7    1  0.5031164E-009  0.4778727E+02  0.7816164E-02  0.1312668E+00
        -11   -1    0    0    0    0  0.00000000000E+00  0.00000000000E+00  0.45593999997E+02  0.45594000000E+02  0.51100000000E-03 0. -1.
         11   -1    0    0    0    0 -0.00000000000E+00 -0.00000000000E+00 -0.45593999997E+02  0.45594000000E+02  0.51100000000E-03 0.  1.
    9900012    2    1    2    0    0 -0.25857544994E+01 -0.36441579882E+02  0.23429646125E+02  0.47787272031E+02  0.20000004500E+02 0.  0.
         12    1    1    2    0    0  0.25857544994E+01  0.36441579882E+02 -0.23429646125E+02  0.43400727969E+02  0.00000000000E+00 0. -1.
         11    1    3    3    0    0  0.16746504829E+00 -0.15456624613E+02 -0.49385202230E+00  0.15465418812E+02  0.51100000000E-03 0. -1.
        -11    1    3    3    0    0 -0.37573809745E+01 -0.99502244781E+01  0.12369270783E+02  0.16313299449E+02  0.51100000000E-03 0.  1.
         12    1    3    3    0    0  0.10041614268E+01 -0.11034730792E+02  0.11554227365E+02  0.16008553770E+02  0.00000000000E+00 0. -1.
</event>
<event>
 7    1  0.5031164E-009  0.4778727E+02  0.7816164E-02  0.1312668E+00
        -11   -1    0    0    0    0  0.00000000000E+00  0.00000000000E+00  0.45593999997E+02  0.45594000000E+02  0.51100000000E-03 0.  1.
         11   -1    0    0    0    0 -0.00000000000E+00 -0.00000000000E+00 -0.45593999997E+02  0.45594000000E+02  0.51100000000E-03 0. -1.
    9900012    2    1    2    0    0  0.21902084636E+02 -0.31080583566E+02 -0.20926528732E+02  0.47787267392E+02  0.19999983346E+02 0.  0.
         12    1    1    2    0    0 -0.21902084636E+02  0.31080583566E+02  0.20926528732E+02  0.43400732608E+02  0.00000000000E+00 0. -1.
         11    1    3    3    0    0  0.12133833185E+02 -0.54183616774E+01 -0.14244341488E+02  0.19480498344E+02  0.51100000000E-03 0. -1.
        -11    1    3    3    0    0  0.61978608237E+01 -0.14135704137E+02 -0.34776408681E+01  0.15821681216E+02  0.51100000000E-03 0.  1.
         12    1    3    3    0    0  0.35703906268E+01 -0.11526517751E+02 -0.32045463758E+01  0.12485087832E+02  0.00000000000E+00 0. -1.
</event>
<event>
 7    1  0.5031164E-009  0.4778728E+02  0.7816164E-02  0.1312668E+00
        -11   -1    0    0    0    0  0.00000000000E+00  0.00000000000E+00  0.45593999997E+02  0.45594000000E+02  0.51100000000E-03 0.  1.
         11   -1    0    0    0    0 -0.00000000000E+00 -0.00000000000E+00 -0.45593999997E+02  0.45594000000E+02  0.51100000000E-03 0. -1.
    9900012    2    1    2    0    0 -0.53172754726E+01 -0.42474578195E+02 -0.71595880867E+01  0.47787275203E+02  0.20000018961E+02 0.  0.
         12    1    1    2    0    0  0.53172754726E+01  0.42474578195E+02  0.71595880867E+01  0.43400724797E+02  0.00000000000E+00 0. -1.
         11    1    3    3    0    0 -0.49076891697E+01 -0.10663916628E+02  0.55397806129E+01  0.12980512329E+02  0.51100000000E-03 0.  1.
        -11    1    3    3    0    0  0.26692949731E+01 -0.20920955464E+02 -0.83247030145E+01  0.22674042289E+02  0.51100000000E-03 0. -1.
        -12    1    3    3    0    0 -0.30788812760E+01 -0.10889706103E+02 -0.43746656851E+01  0.12132720584E+02  0.00000000000E+00 0.  1.
</event>
<event>
 7    1  0.5031164E-009  0.4778727E+02  0.7816164E-02  0.1312668E+00
        -11   -1    0    0    0    0  0.00000000000E+00  0.00000000000E+00  0.45593999997E+02  0.45594000000E+02  0.51100000000E-03 0.  1.
         11   -1    0    0    0    0 -0.00000000000E+00 -0.00000000000E+00 -0.45593999997E+02  0.45594000000E+02  0.51100000000E-03 0. -1.
    9900012    2    1    2    0    0  0.29291400588E+02  0.56065835637E+01  0.31530990779E+02  0.47787270661E+02  0.19999998251E+02 0.  0.
         12    1    1    2    0    0 -0.29291400588E+02 -0.56065835637E+01 -0.31530990779E+02  0.43400729339E+02  0.00000000000E+00 0. -1.
         11    1    3    3    0    0  0.74759375538E+01 -0.60105696261E+01  0.12241917822E+02  0.15552528468E+02  0.51100000000E-03 0. -1.
        -11    1    3    3    0    0  0.15732345061E+02  0.92477990403E+01  0.97916446440E+01  0.20710016256E+02  0.51100000000E-03 0.  1.
         12    1    3    3    0    0  0.60831179728E+01  0.23693541496E+01  0.94974283132E+01  0.11524725937E+02  0.00000000000E+00 0. -1.
</event>
<event>
 7    1  0.5031164E-009  0.4778727E+02  0.7816164E-02  0.1312668E+00
        -11   -1    0    0    0    0  0.00000000000E+00  0.00000000000E+00  0.45593999997E+02  0.45594000000E+02  0.51100000000E-03 0.  1.
         11   -1    0    0    0    0 -0.00000000000E+00 -0.00000000000E+00 -0.45593999997E+02  0.45594000000E+02  0.51100000000E-03 0. -1.
    9900012    2    1    2    0    0 -0.19603890432E+02 -0.30586060542E+02  0.23744557662E+02  0.47787266848E+02  0.19999980868E+02 0.  0.
         12    1    1    2    0    0  0.19603890432E+02  0.30586060542E+02 -0.23744557662E+02  0.43400733152E+02  0.00000000000E+00 0. -1.
         11    1    3    3    0    0 -0.47771386006E+01 -0.14241345541E+02  0.37962462468E+01  0.15493497406E+02  0.51100000000E-03 0. -1.
        -11    1    3    3    0    0 -0.14764892721E+02 -0.91222561028E+01  0.10099152118E+02  0.20080101773E+02  0.51100000000E-03 0.  1.
        -12    1    3    3    0    0 -0.61859110971E-01 -0.72224588974E+01  0.98491592973E+01  0.12213667669E+02  0.00000000000E+00 0.  1.
</event>
<event>
 7    1  0.5031164E-009  0.4778728E+02  0.7816164E-02  0.1312668E+00
        -11   -1    0    0    0    0  0.00000000000E+00  0.00000000000E+00  0.45593999997E+02  0.45594000000E+02  0.51100000000E-03 0.  1.
         11   -1    0    0    0    0 -0.00000000000E+00 -0.00000000000E+00 -0.45593999997E+02  0.45594000000E+02  0.51100000000E-03 0. -1.
    9900012    2    1    2    0    0  0.20611807799E+02  0.31712657535E+02  0.21285758394E+02  0.47787276744E+02  0.20000025988E+02 0.  0.
         12    1    1    2    0    0 -0.20611807799E+02 -0.31712657535E+02 -0.21285758394E+02  0.43400723256E+02  0.00000000000E+00 0. -1.
         11    1    3    3    0    0  0.13870656346E+02  0.23547719376E+02  0.21106094902E+02  0.34530529066E+02  0.51100000000E-03 0. -1.
        -11    1    3    3    0    0  0.73709603664E+01  0.32756087055E+01 -0.11580978958E+01  0.81487336508E+01  0.51100000000E-03 0.  1.
         12    1    3    3    0    0 -0.62980891405E+00  0.48893294537E+01  0.13377613882E+01  0.51080140276E+01  0.00000000000E+00 0. -1.
</event>
<event>
 7    1  0.5031164E-009  0.4778727E+02  0.7816164E-02  0.1312668E+00
        -11   -1    0    0    0    0  0.00000000000E+00  0.00000000000E+00  0.45593999997E+02  0.45594000000E+02  0.51100000000E-03 0. -1.
         11   -1    0    0    0    0 -0.00000000000E+00 -0.00000000000E+00 -0.45593999997E+02  0.45594000000E+02  0.51100000000E-03 0.  1.
    9900012    2    1    2    0    0 -0.17366843037E+02 -0.23788306567E+02 -0.31876833381E+02  0.47787271057E+02  0.20000000055E+02 0.  0.
         12    1    1    2    0    0  0.17366843037E+02  0.23788306567E+02  0.31876833381E+02  0.43400728943E+02  0.00000000000E+00 0. -1.
         11    1    3    3    0    0 -0.61564920123E+01  0.40020520293E-01 -0.14156046804E+02  0.15436892722E+02  0.51100000000E-03 0. -1.
        -11    1    3    3    0    0 -0.10672131231E+02 -0.17026561481E+02 -0.14650590497E+02  0.24868413360E+02  0.51100000000E-03 0.  1.
        -12    1    3    3    0    0 -0.53821979437E+00 -0.68017656061E+01 -0.30701960808E+01  0.74819649747E+01  0.00000000000E+00 0.  1.
</event>
<event>
 7    1  0.6458661E-009  0.4778727E+02  0.7816164E-02  0.1312668E+00
        -11   -1    0    0    0    0  0.00000000000E+00  0.00000000000E+00  0.45593999997E+02  0.45594000000E+02  0.51100000000E-03 0. -1.
         11   -1    0    0    0    0 -0.00000000000E+00 -0.00000000000E+00 -0.45593999997E+02  0.45594000000E+02  0.51100000000E-03 0.  1.
    9900012    2    1    2    0    0 -0.10642373977E+02 -0.53015700663E+00 -0.42072344308E+02  0.47787270215E+02  0.19999996218E+02 0.  0.
         12    1    1    2    0    0  0.10642373977E+02  0.53015700663E+00  0.42072344308E+02  0.43400729785E+02  0.00000000000E+00 0. -1.
         11    1    3    3    0    0 -0.35218080841E+00 -0.15522698767E+01 -0.27624787273E+02  0.27670606159E+02  0.51100000000E-03 0. -1.
        -11    1    3    3    0    0 -0.58465349883E+01  0.61305438935E+00 -0.14508062753E+02  0.15653807593E+02  0.51100000000E-03 0.  1.
         12    1    3    3    0    0 -0.44436581806E+01  0.40905848074E+00  0.60505717784E-01  0.44628564629E+01  0.00000000000E+00 0. -1.
</event>
<event>
 7    1  0.5031164E-009  0.4778731E+02  0.7816164E-02  0.1312668E+00
        -11   -1    0    0    0    0  0.00000000000E+00  0.00000000000E+00  0.45593999997E+02  0.45594000000E+02  0.51100000000E-03 0.  1.
         11   -1    0    0    0    0 -0.00000000000E+00 -0.00000000000E+00 -0.45593999997E+02  0.45594000000E+02  0.51100000000E-03 0. -1.
    9900012    2    1    2    0    0  0.15831316869E+02 -0.74255097139E+01  0.39722176920E+02  0.47787307292E+02  0.20000165266E+02 0.  0.
         12    1    1    2    0    0 -0.15831316869E+02  0.74255097139E+01 -0.39722176920E+02  0.43400692708E+02  0.00000000000E+00 0. -1.
         11    1    3    3    0    0 -0.28190723007E+01  0.55480186216E+00  0.11407027773E+02  0.11763301264E+02  0.51100000000E-03 0. -1.
        -11    1    3    3    0    0  0.14523659838E+01 -0.44833367286E+01  0.63935664899E+01  0.79427556865E+01  0.51100000000E-03 0.  1.
         12    1    3    3    0    0  0.17198023185E+02 -0.34969748475E+01  0.21921582657E+02  0.28081250341E+02  0.00000000000E+00 0. -1.
</event>
<event>
 7    1  0.5031164E-009  0.4778727E+02  0.7816164E-02  0.1312668E+00
        -11   -1    0    0    0    0  0.00000000000E+00  0.00000000000E+00  0.45593999997E+02  0.45594000000E+02  0.51100000000E-03 0.  1.
         11   -1    0    0    0    0 -0.00000000000E+00 -0.00000000000E+00 -0.45593999997E+02  0.45594000000E+02  0.51100000000E-03 0. -1.
    9900012    2    1    2    0    0 -0.75611331842E+00  0.43310192237E+02 -0.26979220173E+01  0.47787271410E+02  0.20000001666E+02 0.  0.
         12    1    1    2    0    0  0.75611331842E+00 -0.43310192237E+02  0.26979220173E+01  0.43400728590E+02  0.00000000000E+00 0. -1.
         11    1    3    3    0    0  0.33788149647E+01  0.30380416573E+01 -0.39400403074E+01  0.60141504439E+01  0.51100000000E-03 0. -1.
        -11    1    3    3    0    0 -0.31361021222E+01  0.37668324933E+02  0.37996397392E+01  0.37989144531E+02  0.51100000000E-03 0.  1.
        -12    1    3    3    0    0 -0.99882616090E+00  0.26038256469E+01 -0.25575214492E+01  0.37839764352E+01  0.00000000000E+00 0.  1.
</event>
<event>
 7    1  0.5031164E-009  0.4778727E+02  0.7816164E-02  0.1312668E+00
        -11   -1    0    0    0    0  0.00000000000E+00  0.00000000000E+00  0.45593999997E+02  0.45594000000E+02  0.51100000000E-03 0. -1.
         11   -1    0    0    0    0 -0.00000000000E+00 -0.00000000000E+00 -0.45593999997E+02  0.45594000000E+02  0.51100000000E-03 0.  1.
    9900012    2    1    2    0    0  0.93294866115E+01  0.41999851198E+02  0.57093311041E+01  0.47787270942E+02  0.19999999532E+02 0.  0.
         12    1    1    2    0    0 -0.93294866115E+01 -0.41999851198E+02 -0.57093311041E+01  0.43400729058E+02  0.00000000000E+00 0. -1.
         11    1    3    3    0    0  0.45902809789E+01  0.76106407843E+01 -0.52338380853E+01  0.10314339241E+02  0.51100000000E-03 0. -1.
        -11    1    3    3    0    0 -0.10911974949E+01  0.21142584918E+02  0.84098363421E+01  0.22779924419E+02  0.51100000000E-03 0.  1.
         12    1    3    3    0    0  0.58304031276E+01  0.13246625496E+02  0.25333328473E+01  0.14693007282E+02  0.00000000000E+00 0. -1.
</event>
<event>
 7    1  0.5031164E-009  0.4778724E+02  0.7816164E-02  0.1312668E+00
        -11   -1    0    0    0    0  0.00000000000E+00  0.00000000000E+00  0.45593999997E+02  0.45594000000E+02  0.51100000000E-03 0.  1.
         11   -1    0    0    0    0 -0.00000000000E+00 -0.00000000000E+00 -0.45593999997E+02  0.45594000000E+02  0.51100000000E-03 0. -1.
    9900012    2    1    2    0    0  0.30510635785E+02 -0.12655390969E+02  0.28152583989E+02  0.47787241921E+02  0.19999867212E+02 0.  0.
         12    1    1    2    0    0 -0.30510635785E+02  0.12655390969E+02 -0.28152583989E+02  0.43400758079E+02  0.00000000000E+00 0. -1.
         11    1    3    3    0    0  0.92173947628E+01 -0.13604291380E+02  0.15783244271E+02  0.22784817536E+02  0.51100000000E-03 0. -1.
        -11    1    3    3    0    0  0.18048560136E+02 -0.70797871110E+00  0.10711571860E+02  0.20999750684E+02  0.51100000000E-03 0.  1.
         12    1    3    3    0    0  0.32446808865E+01  0.16568791220E+01  0.16577678586E+01  0.40026737005E+01  0.00000000000E+00 0. -1.
</event>
<event>
 7    1  0.5031164E-009  0.4778723E+02  0.7816164E-02  0.1312668E+00
        -11   -1    0    0    0    0  0.00000000000E+00  0.00000000000E+00  0.45593999997E+02  0.45594000000E+02  0.51100000000E-03 0. -1.
         11   -1    0    0    0    0 -0.00000000000E+00 -0.00000000000E+00 -0.45593999997E+02  0.45594000000E+02  0.51100000000E-03 0.  1.
    9900012    2    1    2    0    0  0.18398436491E+02 -0.38590762647E+02  0.74751264079E+01  0.47787228788E+02  0.19999807333E+02 0.  0.
         12    1    1    2    0    0 -0.18398436491E+02  0.38590762647E+02 -0.74751264079E+01  0.43400771212E+02  0.00000000000E+00 0. -1.
         11    1    3    3    0    0  0.13612693001E+02 -0.14457926320E+02  0.73970316629E+01  0.21190873552E+02  0.51100000000E-03 0. -1.
        -11    1    3    3    0    0  0.66066446149E+01 -0.23644430079E+02  0.83632217392E+00  0.24564329054E+02  0.51100000000E-03 0.  1.
         12    1    3    3    0    0 -0.18209011250E+01 -0.48840624882E+00 -0.75822742893E+00  0.20320261822E+01  0.00000000000E+00 0. -1.
</event>
<event>
 7    1  0.5031164E-009  0.4778727E+02  0.7816164E-02  0.1312668E+00
        -11   -1    0    0    0    0  0.00000000000E+00  0.00000000000E+00  0.45593999997E+02  0.45594000000E+02  0.51100000000E-03 0. -1.
         11   -1    0    0    0    0 -0.00000000000E+00 -0.00000000000E+00 -0.45593999997E+02  0.45594000000E+02  0.51100000000E-03 0.  1.
    9900012    2    1    2    0    0 -0.33190040839E+02  0.27896413016E+02 -0.19583105735E+01  0.47787266707E+02  0.19999980225E+02 0.  0.
         12    1    1    2    0    0  0.33190040839E+02 -0.27896413016E+02  0.19583105735E+01  0.43400733293E+02  0.00000000000E+00 0. -1.
         11    1    3    3    0    0 -0.13839659752E+02  0.24130601588E+01 -0.27807440338E+01  0.14321018784E+02  0.51100000000E-03 0. -1.
        -11    1    3    3    0    0 -0.13282997334E+02  0.95774886333E+01 -0.56912873468E+00  0.16385671011E+02  0.51100000000E-03 0.  1.
         12    1    3    3    0    0 -0.60673837531E+01  0.15905864224E+02  0.13915621949E+01  0.17080576913E+02  0.00000000000E+00 0. -1.
</event>
<event>
 7    1  0.5031164E-009  0.4778727E+02  0.7816164E-02  0.1312668E+00
        -11   -1    0    0    0    0  0.00000000000E+00  0.00000000000E+00  0.45593999997E+02  0.45594000000E+02  0.51100000000E-03 0.  1.
         11   -1    0    0    0    0 -0.00000000000E+00 -0.00000000000E+00 -0.45593999997E+02  0.45594000000E+02  0.51100000000E-03 0. -1.
    9900012    2    1    2    0    0 -0.33149961956E+02  0.62797797752E+01  0.27299590382E+02  0.47787271357E+02  0.20000001425E+02 0.  0.
         12    1    1    2    0    0  0.33149961956E+02 -0.62797797752E+01 -0.27299590382E+02  0.43400728643E+02  0.00000000000E+00 0. -1.
         11    1    3    3    0    0 -0.44917795339E+01  0.38243904429E+01 -0.73273288096E+00  0.59446567081E+01  0.51100000000E-03 0. -1.
        -11    1    3    3    0    0 -0.23178326729E+02 -0.74639510860E+00  0.15798107917E+02  0.28060152345E+02  0.51100000000E-03 0.  1.
        -12    1    3    3    0    0 -0.54798556934E+01  0.32017844408E+01  0.12234215345E+02  0.13782462303E+02  0.00000000000E+00 0.  1.
</event>
<event>
 7    1  0.5031164E-009  0.4778727E+02  0.7816164E-02  0.1312668E+00
        -11   -1    0    0    0    0  0.00000000000E+00  0.00000000000E+00  0.45593999997E+02  0.45594000000E+02  0.51100000000E-03 0. -1.
         11   -1    0    0    0    0 -0.00000000000E+00 -0.00000000000E+00 -0.45593999997E+02  0.45594000000E+02  0.51100000000E-03 0.  1.
    9900012    2    1    2    0    0 -0.24913067837E+02  0.35496031545E+02 -0.17303299891E+01  0.47787271361E+02  0.20000001444E+02 0.  0.
         12    1    1    2    0    0  0.24913067837E+02 -0.35496031545E+02  0.17303299891E+01  0.43400728639E+02  0.00000000000E+00 0. -1.
         11    1    3    3    0    0 -0.20404690280E+01 -0.96379459616E+00  0.95949808096E+00  0.24521522600E+01  0.51100000000E-03 0. -1.
        -11    1    3    3    0    0 -0.93921715651E+01  0.27220711881E+02 -0.14742520060E+00  0.28795863878E+02  0.51100000000E-03 0.  1.
        -12    1    3    3    0    0 -0.13480427244E+02  0.92391142607E+01 -0.25424028695E+01  0.16539255223E+02  0.00000000000E+00 0.  1.
</event>
<event>
 7    1  0.5031164E-009  0.4778728E+02  0.7816164E-02  0.1312668E+00
        -11   -1    0    0    0    0  0.00000000000E+00  0.00000000000E+00  0.45593999997E+02  0.45594000000E+02  0.51100000000E-03 0. -1.
         11   -1    0    0    0    0 -0.00000000000E+00 -0.00000000000E+00 -0.45593999997E+02  0.45594000000E+02  0.51100000000E-03 0.  1.
    9900012    2    1    2    0    0 -0.41718602470E+01  0.41497604638E+02 -0.12006960098E+02  0.47787277662E+02  0.20000030174E+02 0.  0.
         12    1    1    2    0    0  0.41718602470E+01 -0.41497604638E+02  0.12006960098E+02  0.43400722338E+02  0.00000000000E+00 0. -1.
         11    1    3    3    0    0 -0.45678314146E+01  0.10452299994E+01  0.13166754661E+01  0.48673631597E+01  0.51100000000E-03 0. -1.
        -11    1    3    3    0    0  0.18706875102E+01  0.25277378443E+02 -0.10391972554E+02  0.27394131242E+02  0.51100000000E-03 0.  1.
        -12    1    3    3    0    0 -0.14747163426E+01  0.15174996196E+02 -0.29316630107E+01  0.15525783260E+02  0.00000000000E+00 0.  1.
</event>
<event>
 7    1  0.5031164E-009  0.4778727E+02  0.7816164E-02  0.1312668E+00
        -11   -1    0    0    0    0  0.00000000000E+00  0.00000000000E+00  0.45593999997E+02  0.45594000000E+02  0.51100000000E-03 0.  1.
         11   -1    0    0    0    0 -0.00000000000E+00 -0.00000000000E+00 -0.45593999997E+02  0.45594000000E+02  0.51100000000E-03 0. -1.
    9900012    2    1    2    0    0  0.23138391918E+02  0.19983891419E+02  0.30803932045E+02  0.47787270442E+02  0.19999997252E+02 0.  0.
         12    1    1    2    0    0 -0.23138391918E+02 -0.19983891419E+02 -0.30803932045E+02  0.43400729558E+02  0.00000000000E+00 0. -1.
         11    1    3    3    0    0  0.10347591147E+02  0.27765690734E+01  0.30056000081E+01  0.11127246291E+02  0.51100000000E-03 0. -1.
        -11    1    3    3    0    0  0.12490531298E+01  0.45870587381E+01  0.13682269677E+02  0.14484672774E+02  0.51100000000E-03 0.  1.
        -12    1    3    3    0    0  0.11541747641E+02  0.12620263607E+02  0.14116062359E+02  0.22175351376E+02  0.00000000000E+00 0.  1.
</event>
<event>
 7    1  0.5031164E-009  0.4778727E+02  0.7816164E-02  0.1312668E+00
        -11   -1    0    0    0    0  0.00000000000E+00  0.00000000000E+00  0.45593999997E+02  0.45594000000E+02  0.51100000000E-03 0.  1.
         11   -1    0    0    0    0 -0.00000000000E+00 -0.00000000000E+00 -0.45593999997E+02  0.45594000000E+02  0.51100000000E-03 0. -1.
    9900012    2    1    2    0    0  0.62678672969E+01 -0.15103390104E+02  0.40202295418E+02  0.47787272933E+02  0.20000008610E+02 0.  0.
         12    1    1    2    0    0 -0.62678672969E+01  0.15103390104E+02 -0.40202295418E+02  0.43400727067E+02  0.00000000000E+00 0. -1.
         11    1    3    3    0    0  0.44211456771E+01 -0.75859935341E+01  0.41903427737E+01  0.97289670480E+01  0.51100000000E-03 0. -1.
        -11    1    3    3    0    0  0.36170433366E+01 -0.63288260059E+01  0.34900644500E+02  0.35653779994E+02  0.51100000000E-03 0.  1.
        -12    1    3    3    0    0 -0.17703217168E+01 -0.11885705640E+01  0.11113081442E+01  0.24045258905E+01  0.00000000000E+00 0.  1.
</event>
<event>
 7    1  0.5031164E-009  0.4778726E+02  0.7816164E-02  0.1312668E+00
        -11   -1    0    0    0    0  0.00000000000E+00  0.00000000000E+00  0.45593999997E+02  0.45594000000E+02  0.51100000000E-03 0.  1.
         11   -1    0    0    0    0 -0.00000000000E+00 -0.00000000000E+00 -0.45593999997E+02  0.45594000000E+02  0.51100000000E-03 0. -1.
    9900012    2    1    2    0    0  0.16351501197E+02  0.39017307956E+02  0.96903082502E+01  0.47787262846E+02  0.19999962620E+02 0.  0.
         12    1    1    2    0    0 -0.16351501197E+02 -0.39017307956E+02 -0.96903082502E+01  0.43400737154E+02  0.00000000000E+00 0. -1.
         11    1    3    3    0    0  0.15073802401E+02  0.28256854928E+02  0.45428318063E+01  0.32346664285E+02  0.51100000000E-03 0. -1.
        -11    1    3    3    0    0  0.22995791776E+01  0.11063908998E+02  0.12141693064E+01  0.11365401624E+02  0.51100000000E-03 0.  1.
         12    1    3    3    0    0 -0.10218803821E+01 -0.30345597000E+00  0.39333071376E+01  0.40751969375E+01  0.00000000000E+00 0. -1.
</event>
<event>
 7    1  0.5031164E-009  0.4778727E+02  0.7816164E-02  0.1312668E+00
        -11   -1    0    0    0    0  0.00000000000E+00  0.00000000000E+00  0.45593999997E+02  0.45594000000E+02  0.51100000000E-03 0.  1.
         11   -1    0    0    0    0 -0.00000000000E+00 -0.00000000000E+00 -0.45593999997E+02  0.45594000000E+02  0.51100000000E-03 0. -1.
    9900012    2    1    2    0    0  0.34401585582E+02 -0.12251526078E+02  0.23453239115E+02  0.47787269514E+02  0.19999993020E+02 0.  0.
         12    1    1    2    0    0 -0.34401585582E+02  0.12251526078E+02 -0.23453239115E+02  0.43400730486E+02  0.00000000000E+00 0. -1.
         11    1    3    3    0    0  0.20151933995E+02 -0.15848891340E+02  0.98359050396E+01  0.27459658203E+02  0.51100000000E-03 0. -1.
        -11    1    3    3    0    0  0.11245947761E+02  0.13347549086E+01  0.10486768940E+02  0.15434546795E+02  0.51100000000E-03 0.  1.
         12    1    3    3    0    0  0.30037038256E+01  0.22626103531E+01  0.31305651352E+01  0.48930645150E+01  0.00000000000E+00 0. -1.
</event>
<event>
 7    1  0.5031164E-009  0.4778727E+02  0.7816164E-02  0.1312668E+00
        -11   -1    0    0    0    0  0.00000000000E+00  0.00000000000E+00  0.45593999997E+02  0.45594000000E+02  0.51100000000E-03 0.  1.
         11   -1    0    0    0    0 -0.00000000000E+00 -0.00000000000E+00 -0.45593999997E+02  0.45594000000E+02  0.51100000000E-03 0. -1.
    9900012    2    1    2    0    0 -0.83075821890E+01 -0.15084640816E+02  0.39837935698E+02  0.47787269233E+02  0.19999991743E+02 0.  0.
         12    1    1    2    0    0  0.83075821890E+01  0.15084640816E+02 -0.39837935698E+02  0.43400730767E+02  0.00000000000E+00 0. -1.
         11    1    3    3    0    0  0.41101232085E+01 -0.13712894377E+01  0.27100366479E+01  0.51105622397E+01  0.51100000000E-03 0. -1.
        -11    1    3    3    0    0 -0.95017217125E+01 -0.30615749522E+01  0.18480593640E+02  0.21004482813E+02  0.51100000000E-03 0.  1.
        -12    1    3    3    0    0 -0.29159836851E+01 -0.10651776426E+02  0.18647305410E+02  0.21672224181E+02  0.00000000000E+00 0.  1.
</event>
<event>
 7    1  0.5031164E-009  0.4778727E+02  0.7816164E-02  0.1312668E+00
        -11   -1    0    0    0    0  0.00000000000E+00  0.00000000000E+00  0.45593999997E+02  0.45594000000E+02  0.51100000000E-03 0.  1.
         11   -1    0    0    0    0 -0.00000000000E+00 -0.00000000000E+00 -0.45593999997E+02  0.45594000000E+02  0.51100000000E-03 0. -1.
    9900012    2    1    2    0    0  0.84158310849E+01 -0.18262732680E+01  0.42537771662E+02  0.47787268383E+02  0.19999987868E+02 0.  0.
         12    1    1    2    0    0 -0.84158310849E+01  0.18262732680E+01 -0.42537771662E+02  0.43400731617E+02  0.00000000000E+00 0. -1.
         11    1    3    3    0    0 -0.16688262886E+01 -0.41810898834E+01  0.45032701770E+01  0.63675691078E+01  0.51100000000E-03 0. -1.
        -11    1    3    3    0    0  0.69536235322E+01  0.75253001434E+01  0.21547016865E+02  0.23859106407E+02  0.51100000000E-03 0.  1.
        -12    1    3    3    0    0  0.31310338413E+01 -0.51704835280E+01  0.16487484620E+02  0.17560592869E+02  0.00000000000E+00 0.  1.
</event>
<event>
 7    1  0.5031164E-009  0.4778728E+02  0.7816164E-02  0.1312668E+00
        -11   -1    0    0    0    0  0.00000000000E+00  0.00000000000E+00  0.45593999997E+02  0.45594000000E+02  0.51100000000E-03 0.  1.
         11   -1    0    0    0    0 -0.00000000000E+00 -0.00000000000E+00 -0.45593999997E+02  0.45594000000E+02  0.51100000000E-03 0. -1.
    9900012    2    1    2    0    0 -0.33016449829E+02 -0.14979851198E+02  0.23856674552E+02  0.47787276251E+02  0.20000023740E+02 0.  0.
         12    1    1    2    0    0  0.33016449829E+02  0.14979851198E+02 -0.23856674552E+02  0.43400723749E+02  0.00000000000E+00 0. -1.
         11    1    3    3    0    0 -0.10436952041E+02 -0.74915484570E+01  0.35043775937E+01  0.13316678593E+02  0.51100000000E-03 0. -1.
        -11    1    3    3    0    0 -0.24631348878E+02 -0.62426504851E+01  0.18855278447E+02  0.31641674390E+02  0.51100000000E-03 0.  1.
        -12    1    3    3    0    0  0.20518510889E+01 -0.12456522556E+01  0.14970185118E+01  0.28289232682E+01  0.00000000000E+00 0.  1.
</event>
<event>
 7    1  0.5031164E-009  0.4778727E+02  0.7816164E-02  0.1312668E+00
        -11   -1    0    0    0    0  0.00000000000E+00  0.00000000000E+00  0.45593999997E+02  0.45594000000E+02  0.51100000000E-03 0.  1.
         11   -1    0    0    0    0 -0.00000000000E+00 -0.00000000000E+00 -0.45593999997E+02  0.45594000000E+02  0.51100000000E-03 0. -1.
    9900012    2    1    2    0    0 -0.39012857527E+02  0.52997348610E+01  0.18262884141E+02  0.47787272136E+02  0.20000004976E+02 0.  0.
         12    1    1    2    0    0  0.39012857527E+02 -0.52997348610E+01 -0.18262884141E+02  0.43400727864E+02  0.00000000000E+00 0. -1.
         11    1    3    3    0    0 -0.27735439742E+02  0.15876271290E+01  0.81333891929E+01  0.28946972166E+02  0.51100000000E-03 0.  1.
        -11    1    3    3    0    0 -0.11009315375E+02  0.57813238372E+01  0.10978342961E+02  0.16587728741E+02  0.51100000000E-03 0. -1.
        -12    1    3    3    0    0 -0.26810241044E+00 -0.20692161052E+01 -0.84884801351E+00  0.22525712292E+01  0.00000000000E+00 0.  1.
</event>
<event>
 7    1  0.5031164E-009  0.4778726E+02  0.7816164E-02  0.1312668E+00
        -11   -1    0    0    0    0  0.00000000000E+00  0.00000000000E+00  0.45593999997E+02  0.45594000000E+02  0.51100000000E-03 0.  1.
         11   -1    0    0    0    0 -0.00000000000E+00 -0.00000000000E+00 -0.45593999997E+02  0.45594000000E+02  0.51100000000E-03 0. -1.
    9900012    2    1    2    0    0  0.96091845541E+01  0.23526138813E+02  0.35182507860E+02  0.47787256981E+02  0.19999935880E+02 0.  0.
         12    1    1    2    0    0 -0.96091845541E+01 -0.23526138813E+02 -0.35182507860E+02  0.43400743019E+02  0.00000000000E+00 0. -1.
         11    1    3    3    0    0 -0.38649607406E+01 -0.49236223418E-01  0.54280746985E+01  0.66636582240E+01  0.51100000000E-03 0. -1.
        -11    1    3    3    0    0  0.12388229399E+02  0.13816604127E+02  0.18912494497E+02  0.26496211533E+02  0.51100000000E-03 0.  1.
         12    1    3    3    0    0  0.10859158959E+01  0.97587709091E+01  0.10841938665E+02  0.14627387224E+02  0.00000000000E+00 0. -1.
</event>
<event>
 7    1  0.5031164E-009  0.4778727E+02  0.7816164E-02  0.1312668E+00
        -11   -1    0    0    0    0  0.00000000000E+00  0.00000000000E+00  0.45593999997E+02  0.45594000000E+02  0.51100000000E-03 0. -1.
         11   -1    0    0    0    0 -0.00000000000E+00 -0.00000000000E+00 -0.45593999997E+02  0.45594000000E+02  0.51100000000E-03 0.  1.
    9900012    2    1    2    0    0 -0.14774862678E+01 -0.35740725284E+02 -0.24577244281E+02  0.47787270214E+02  0.19999996214E+02 0.  0.
         12    1    1    2    0    0  0.14774862678E+01  0.35740725284E+02  0.24577244281E+02  0.43400729786E+02  0.00000000000E+00 0. -1.
         11    1    3    3    0    0  0.61291056273E+01 -0.19877617356E+02 -0.11036895500E+02  0.23547795440E+02  0.51100000000E-03 0. -1.
        -11    1    3    3    0    0 -0.66926515607E+01 -0.17018395131E+02 -0.13560419647E+02  0.22766254391E+02  0.51100000000E-03 0.  1.
        -12    1    3    3    0    0 -0.91394033431E+00  0.11552872033E+01  0.20070865226E-01  0.14732203829E+01  0.00000000000E+00 0.  1.
</event>
<event>
 7    1  0.5031164E-009  0.4778725E+02  0.7816164E-02  0.1312668E+00
        -11   -1    0    0    0    0  0.00000000000E+00  0.00000000000E+00  0.45593999997E+02  0.45594000000E+02  0.51100000000E-03 0.  1.
         11   -1    0    0    0    0 -0.00000000000E+00 -0.00000000000E+00 -0.45593999997E+02  0.45594000000E+02  0.51100000000E-03 0. -1.
    9900012    2    1    2    0    0  0.42661837986E+02  0.59567439780E+01 -0.53018624663E+01  0.47787251564E+02  0.19999911181E+02 0.  0.
         12    1    1    2    0    0 -0.42661837986E+02 -0.59567439780E+01  0.53018624663E+01  0.43400748436E+02  0.00000000000E+00 0. -1.
         11    1    3    3    0    0  0.49616403136E+01  0.63971443317E+01  0.16399636150E+01  0.82601943755E+01  0.51100000000E-03 0. -1.
        -11    1    3    3    0    0  0.33919211631E+02 -0.33508025635E+01 -0.53785002398E+01  0.34506072807E+02  0.51100000000E-03 0.  1.
        -12    1    3    3    0    0  0.37809860418E+01  0.29104022098E+01 -0.15633258414E+01  0.50209843814E+01  0.00000000000E+00 0.  1.
</event>
<event>
 7    1  0.5031164E-009  0.4778727E+02  0.7816164E-02  0.1312668E+00
        -11   -1    0    0    0    0  0.00000000000E+00  0.00000000000E+00  0.45593999997E+02  0.45594000000E+02  0.51100000000E-03 0.  1.
         11   -1    0    0    0    0 -0.00000000000E+00 -0.00000000000E+00 -0.45593999997E+02  0.45594000000E+02  0.51100000000E-03 0. -1.
    9900012    2    1    2    0    0  0.97916383440E+01 -0.29064364194E+02  0.30708468623E+02  0.47787268524E+02  0.19999988510E+02 0.  0.
         12    1    1    2    0    0 -0.97916383440E+01  0.29064364194E+02 -0.30708468623E+02  0.43400731476E+02  0.00000000000E+00 0. -1.
         11    1    3    3    0    0  0.32786129983E+01 -0.55804483055E+01 -0.90449510751E+00  0.65351984013E+01  0.51100000000E-03 0. -1.
        -11    1    3    3    0    0  0.49138302754E+01 -0.22445421604E+02  0.31910660981E+02  0.39322168855E+02  0.51100000000E-03 0.  1.
        -12    1    3    3    0    0  0.15991950703E+01 -0.10384942844E+01 -0.29769725054E+00  0.19299012682E+01  0.00000000000E+00 0.  1.
</event>
<event>
 7    1  0.5219134E-009  0.4778726E+02  0.7816164E-02  0.1312668E+00
        -11   -1    0    0    0    0  0.00000000000E+00  0.00000000000E+00  0.45593999997E+02  0.45594000000E+02  0.51100000000E-03 0.  1.
         11   -1    0    0    0    0 -0.00000000000E+00 -0.00000000000E+00 -0.45593999997E+02  0.45594000000E+02  0.51100000000E-03 0. -1.
    9900012    2    1    2    0    0  0.34201026861E+02 -0.19292422645E+02  0.18485561744E+02  0.47787264950E+02  0.19999972212E+02 0.  0.
         12    1    1    2    0    0 -0.34201026861E+02  0.19292422645E+02 -0.18485561744E+02  0.43400735050E+02  0.00000000000E+00 0. -1.
         11    1    3    3    0    0 -0.85857747408E+00 -0.71107748731E+00  0.37162623664E+01  0.38798701923E+01  0.51100000000E-03 0. -1.
        -11    1    3    3    0    0  0.27961339562E+02 -0.98977204393E+01  0.13600891779E+02  0.32631053269E+02  0.51100000000E-03 0.  1.
        -12    1    3    3    0    0  0.70982647739E+01 -0.86836247188E+01  0.11684075986E+01  0.11276341489E+02  0.00000000000E+00 0.  1.
</event>
<event>
 7    1  0.5031164E-009  0.4778727E+02  0.7816164E-02  0.1312668E+00
        -11   -1    0    0    0    0  0.00000000000E+00  0.00000000000E+00  0.45593999997E+02  0.45594000000E+02  0.51100000000E-03 0.  1.
         11   -1    0    0    0    0 -0.00000000000E+00 -0.00000000000E+00 -0.45593999997E+02  0.45594000000E+02  0.51100000000E-03 0. -1.
    9900012    2    1    2    0    0 -0.22594353143E+01 -0.28859148361E+02  0.32336785430E+02  0.47787272079E+02  0.20000004718E+02 0.  0.
         12    1    1    2    0    0  0.22594353143E+01  0.28859148361E+02 -0.32336785430E+02  0.43400727921E+02  0.00000000000E+00 0. -1.
         11    1    3    3    0    0 -0.25610052281E+00 -0.75822781704E+01 -0.51910807933E+00  0.76043410754E+01  0.51100000000E-03 0. -1.
        -11    1    3    3    0    0 -0.11545762838E+01 -0.67495451865E+00  0.69268538967E+01  0.70547795972E+01  0.51100000000E-03 0.  1.
         12    1    3    3    0    0 -0.84875850770E+00 -0.20601915672E+02  0.25929039613E+02  0.33128151407E+02  0.00000000000E+00 0. -1.
</event>
<event>
 7    1  0.5031164E-009  0.4778727E+02  0.7816164E-02  0.1312668E+00
        -11   -1    0    0    0    0  0.00000000000E+00  0.00000000000E+00  0.45593999997E+02  0.45594000000E+02  0.51100000000E-03 0.  1.
         11   -1    0    0    0    0 -0.00000000000E+00 -0.00000000000E+00 -0.45593999997E+02  0.45594000000E+02  0.51100000000E-03 0. -1.
    9900012    2    1    2    0    0  0.65352717037E+01 -0.42761444241E+02 -0.35174530110E+01  0.47787269989E+02  0.19999995186E+02 0.  0.
         12    1    1    2    0    0 -0.65352717037E+01  0.42761444241E+02  0.35174530110E+01  0.43400730011E+02  0.00000000000E+00 0. -1.
         11    1    3    3    0    0  0.66029870558E+01 -0.90801445751E+01 -0.52841825625E+01  0.12408507129E+02  0.51100000000E-03 0.  1.
        -11    1    3    3    0    0 -0.26345556950E+01 -0.15638728388E+02 -0.38290157701E+01  0.16314780763E+02  0.51100000000E-03 0. -1.
         12    1    3    3    0    0  0.25668403429E+01 -0.18042571278E+02  0.55957453215E+01  0.19063982096E+02  0.00000000000E+00 0. -1.
</event>
<event>
 7    1  0.5031164E-009  0.4778727E+02  0.7816164E-02  0.1312668E+00
        -11   -1    0    0    0    0  0.00000000000E+00  0.00000000000E+00  0.45593999997E+02  0.45594000000E+02  0.51100000000E-03 0.  1.
         11   -1    0    0    0    0 -0.00000000000E+00 -0.00000000000E+00 -0.45593999997E+02  0.45594000000E+02  0.51100000000E-03 0. -1.
    9900012    2    1    2    0    0  0.42234129607E+01 -0.42752631258E+02  0.61643080213E+01  0.47787269708E+02  0.19999993906E+02 0.  0.
         12    1    1    2    0    0 -0.42234129607E+01  0.42752631258E+02 -0.61643080213E+01  0.43400730292E+02  0.00000000000E+00 0. -1.
         11    1    3    3    0    0 -0.34766407190E+01 -0.19551763272E+02 -0.48514032899E+01  0.20442470298E+02  0.51100000000E-03 0. -1.
        -11    1    3    3    0    0  0.32521762507E+01 -0.16947063374E+02  0.87211168554E+01  0.19334877471E+02  0.51100000000E-03 0.  1.
         12    1    3    3    0    0  0.44478774290E+01 -0.62538046125E+01  0.22945944557E+01  0.80099219392E+01  0.00000000000E+00 0. -1.
</event>
<event>
 7    1  0.5031164E-009  0.4778727E+02  0.7816164E-02  0.1312668E+00
        -11   -1    0    0    0    0  0.00000000000E+00  0.00000000000E+00  0.45593999997E+02  0.45594000000E+02  0.51100000000E-03 0.  1.
         11   -1    0    0    0    0 -0.00000000000E+00 -0.00000000000E+00 -0.45593999997E+02  0.45594000000E+02  0.51100000000E-03 0. -1.
    9900012    2    1    2    0    0  0.25171023006E+02  0.75037728625E+01  0.34550490246E+02  0.47787269792E+02  0.19999994292E+02 0.  0.
         12    1    1    2    0    0 -0.25171023006E+02 -0.75037728625E+01 -0.34550490246E+02  0.43400730208E+02  0.00000000000E+00 0. -1.
         11    1    3    3    0    0 -0.13739632592E+01  0.69655098439E+00  0.70446658174E+01  0.72111216223E+01  0.51100000000E-03 0. -1.
        -11    1    3    3    0    0  0.23402606616E+02  0.49335838503E+01  0.28066584755E+02  0.36874861709E+02  0.51100000000E-03 0.  1.
        -12    1    3    3    0    0  0.31423796494E+01  0.18736380278E+01 -0.56076032668E+00  0.37012864607E+01  0.00000000000E+00 0.  1.
</event>
<event>
 7    1  0.5031164E-009  0.4778733E+02  0.7816164E-02  0.1312667E+00
        -11   -1    0    0    0    0  0.00000000000E+00  0.00000000000E+00  0.45593999997E+02  0.45594000000E+02  0.51100000000E-03 0. -1.
         11   -1    0    0    0    0 -0.00000000000E+00 -0.00000000000E+00 -0.45593999997E+02  0.45594000000E+02  0.51100000000E-03 0.  1.
    9900012    2    1    2    0    0  0.29837759825E+02 -0.94012304922E+01 -0.30082271967E+02  0.47787330273E+02  0.20000270043E+02 0.  0.
         12    1    1    2    0    0 -0.29837759825E+02  0.94012304922E+01  0.30082271967E+02  0.43400669727E+02  0.00000000000E+00 0. -1.
         11    1    3    3    0    0  0.92461045078E+01 -0.18994274199E+01 -0.14015701688E+01  0.95426763695E+01  0.51100000000E-03 0. -1.
        -11    1    3    3    0    0  0.70437606873E+01 -0.85401357611E+01 -0.17208304085E+02  0.20461530079E+02  0.51100000000E-03 0.  1.
        -12    1    3    3    0    0  0.13547894629E+02  0.10383326888E+01 -0.11472397713E+02  0.17783123824E+02  0.00000000000E+00 0.  1.
</event>
<event>
 7    1  0.5031164E-009  0.4778727E+02  0.7816164E-02  0.1312668E+00
        -11   -1    0    0    0    0  0.00000000000E+00  0.00000000000E+00  0.45593999997E+02  0.45594000000E+02  0.51100000000E-03 0. -1.
         11   -1    0    0    0    0 -0.00000000000E+00 -0.00000000000E+00 -0.45593999997E+02  0.45594000000E+02  0.51100000000E-03 0.  1.
    9900012    2    1    2    0    0  0.34894002509E+01  0.37770653778E+02 -0.21090876523E+02  0.47787271049E+02  0.20000000023E+02 0.  0.
         12    1    1    2    0    0 -0.34894002509E+01 -0.37770653778E+02  0.21090876523E+02  0.43400728951E+02  0.00000000000E+00 0. -1.
         11    1    3    3    0    0  0.34994283814E+01  0.22357145075E+02 -0.47695108207E+01  0.23126525217E+02  0.51100000000E-03 0. -1.
        -11    1    3    3    0    0  0.32888204383E+01  0.97662029148E+01 -0.14648181363E+02  0.17909893265E+02  0.51100000000E-03 0.  1.
         12    1    3    3    0    0 -0.32988485688E+01  0.56473057885E+01 -0.16731843384E+01  0.67508525668E+01  0.00000000000E+00 0. -1.
</event>
<event>
 7    1  0.5031164E-009  0.4778727E+02  0.7816164E-02  0.1312668E+00
        -11   -1    0    0    0    0  0.00000000000E+00  0.00000000000E+00  0.45593999997E+02  0.45594000000E+02  0.51100000000E-03 0. -1.
         11   -1    0    0    0    0 -0.00000000000E+00 -0.00000000000E+00 -0.45593999997E+02  0.45594000000E+02  0.51100000000E-03 0.  1.
    9900012    2    1    2    0    0 -0.10802432015E+01  0.27015993160E+02 -0.33949848839E+02  0.47787273647E+02  0.20000011865E+02 0.  0.
         12    1    1    2    0    0  0.10802432015E+01 -0.27015993160E+02  0.33949848839E+02  0.43400726353E+02  0.00000000000E+00 0. -1.
         11    1    3    3    0    0  0.51336756011E+01  0.63832612766E+01 -0.78025980392E+01  0.11312877005E+02  0.51100000000E-03 0. -1.
        -11    1    3    3    0    0  0.67737610979E+00  0.11810292875E+02 -0.21109562927E+02  0.24198254140E+02  0.51100000000E-03 0.  1.
         12    1    3    3    0    0 -0.68912949124E+01  0.88224390080E+01 -0.50376878730E+01  0.12276142502E+02  0.00000000000E+00 0. -1.
</event>
<event>
 7    1  0.5031164E-009  0.4778727E+02  0.7816164E-02  0.1312668E+00
        -11   -1    0    0    0    0  0.00000000000E+00  0.00000000000E+00  0.45593999997E+02  0.45594000000E+02  0.51100000000E-03 0.  1.
         11   -1    0    0    0    0 -0.00000000000E+00 -0.00000000000E+00 -0.45593999997E+02  0.45594000000E+02  0.51100000000E-03 0. -1.
    9900012    2    1    2    0    0 -0.14665567036E+02  0.16995831750E+02  0.37144129677E+02  0.47787268177E+02  0.19999986924E+02 0.  0.
         12    1    1    2    0    0  0.14665567036E+02 -0.16995831750E+02 -0.37144129677E+02  0.43400731823E+02  0.00000000000E+00 0. -1.
         11    1    3    3    0    0 -0.89066353660E+00  0.14449838711E+02  0.17065585945E+02  0.22379127423E+02  0.51100000000E-03 0. -1.
        -11    1    3    3    0    0 -0.11539069905E+02  0.41590823792E+01  0.13311051161E+02  0.18100612801E+02  0.51100000000E-03 0.  1.
         12    1    3    3    0    0 -0.22358335944E+01 -0.16130893395E+01  0.67674925708E+01  0.73075279524E+01  0.00000000000E+00 0. -1.
</event>
<event>
 7    1  0.5031164E-009  0.4778728E+02  0.7816164E-02  0.1312668E+00
        -11   -1    0    0    0    0  0.00000000000E+00  0.00000000000E+00  0.45593999997E+02  0.45594000000E+02  0.51100000000E-03 0.  1.
         11   -1    0    0    0    0 -0.00000000000E+00 -0.00000000000E+00 -0.45593999997E+02  0.45594000000E+02  0.51100000000E-03 0. -1.
    9900012    2    1    2    0    0  0.79214252947E+01  0.27749939834E+00  0.42670791952E+02  0.47787280300E+02  0.20000042202E+02 0.  0.
         12    1    1    2    0    0 -0.79214252947E+01 -0.27749939834E+00 -0.42670791952E+02  0.43400719700E+02  0.00000000000E+00 0. -1.
         11    1    3    3    0    0 -0.32402059162E+01  0.10667289587E+01  0.11844828607E+02  0.12326265049E+02  0.51100000000E-03 0. -1.
        -11    1    3    3    0    0  0.11439740798E+02  0.16739468522E+01  0.30888555469E+02  0.32981398194E+02  0.51100000000E-03 0.  1.
        -12    1    3    3    0    0 -0.27810958672E+00 -0.24631764126E+01 -0.62592124144E-01  0.24796170583E+01  0.00000000000E+00 0.  1.
</event>
<event>
 7    1  0.5031164E-009  0.4778727E+02  0.7816164E-02  0.1312668E+00
        -11   -1    0    0    0    0  0.00000000000E+00  0.00000000000E+00  0.45593999997E+02  0.45594000000E+02  0.51100000000E-03 0.  1.
         11   -1    0    0    0    0 -0.00000000000E+00 -0.00000000000E+00 -0.45593999997E+02  0.45594000000E+02  0.51100000000E-03 0. -1.
    9900012    2    1    2    0    0  0.30949352920E+02  0.28058354480E+02  0.11768149716E+02  0.47787273622E+02  0.20000011754E+02 0.  0.
         12    1    1    2    0    0 -0.30949352920E+02 -0.28058354480E+02 -0.11768149716E+02  0.43400726378E+02  0.00000000000E+00 0. -1.
         11    1    3    3    0    0  0.22214100893E+01  0.12444742553E+02  0.11433678506E+00  0.12641967931E+02  0.51100000000E-03 0. -1.
        -11    1    3    3    0    0  0.12129418064E+02  0.48090356088E+01  0.69732160384E+01  0.14794436395E+02  0.51100000000E-03 0.  1.
         12    1    3    3    0    0  0.16598524767E+02  0.10804576318E+02  0.46805968930E+01  0.20350869297E+02  0.00000000000E+00 0. -1.
</event>
<event>
 7    1  0.5031164E-009  0.4778726E+02  0.7816164E-02  0.1312668E+00
        -11   -1    0    0    0    0  0.00000000000E+00  0.00000000000E+00  0.45593999997E+02  0.45594000000E+02  0.51100000000E-03 0.  1.
         11   -1    0    0    0    0 -0.00000000000E+00 -0.00000000000E+00 -0.45593999997E+02  0.45594000000E+02  0.51100000000E-03 0. -1.
    9900012    2    1    2    0    0 -0.66354388766E+00  0.11529661206E+02  0.41836001728E+02  0.47787257856E+02  0.19999939869E+02 0.  0.
         12    1    1    2    0    0  0.66354388766E+00 -0.11529661206E+02 -0.41836001728E+02  0.43400742144E+02  0.00000000000E+00 0. -1.
         11    1    3    3    0    0  0.43421664867E+01  0.22291907314E+01  0.29105521934E+02  0.29511948570E+02  0.51100000000E-03 0. -1.
        -11    1    3    3    0    0  0.87831707366E-01  0.77593001442E+01  0.81581873934E+01  0.11259239537E+02  0.51100000000E-03 0.  1.
         12    1    3    3    0    0 -0.50935420817E+01  0.15411703305E+01  0.45722924014E+01  0.70160697495E+01  0.00000000000E+00 0. -1.
</event>
<event>
 7    1  0.5031164E-009  0.4778726E+02  0.7816164E-02  0.1312668E+00
        -11   -1    0    0    0    0  0.00000000000E+00  0.00000000000E+00  0.45593999997E+02  0.45594000000E+02  0.51100000000E-03 0.  1.
         11   -1    0    0    0    0 -0.00000000000E+00 -0.00000000000E+00 -0.45593999997E+02  0.45594000000E+02  0.51100000000E-03 0. -1.
    9900012    2    1    2    0    0 -0.20980485711E+02  0.12875132337E+02  0.35744569276E+02  0.47787262148E+02  0.19999959436E+02 0.  0.
         12    1    1    2    0    0  0.20980485711E+02 -0.12875132337E+02 -0.35744569276E+02  0.43400737852E+02  0.00000000000E+00 0. -1.
         11    1    3    3    0    0 -0.67932599997E+01  0.99717784715E+01  0.26206578991E+02  0.28850815066E+02  0.51100000000E-03 0.  1.
        -11    1    3    3    0    0  0.91598395829E+00  0.46609829945E+00  0.90916213291E+00  0.13721699172E+01  0.51100000000E-03 0. -1.
         12    1    3    3    0    0 -0.15103209670E+02  0.24372555663E+01  0.86288281528E+01  0.17564277165E+02  0.00000000000E+00 0. -1.
</event>
<event>
 7    1  0.5031164E-009  0.4778731E+02  0.7816164E-02  0.1312668E+00
        -11   -1    0    0    0    0  0.00000000000E+00  0.00000000000E+00  0.45593999997E+02  0.45594000000E+02  0.51100000000E-03 0.  1.
         11   -1    0    0    0    0 -0.00000000000E+00 -0.00000000000E+00 -0.45593999997E+02  0.45594000000E+02  0.51100000000E-03 0. -1.
    9900012    2    1    2    0    0 -0.28641655265E+02  0.22781517382E+02  0.23329766285E+02  0.47787309390E+02  0.20000174830E+02 0.  0.
         12    1    1    2    0    0  0.28641655265E+02 -0.22781517382E+02 -0.23329766285E+02  0.43400690610E+02  0.00000000000E+00 0. -1.
         11    1    3    3    0    0  0.88818145395E+00 -0.17113947751E+01 -0.99085510501E-01  0.19306881082E+01  0.51100000000E-03 0. -1.
        -11    1    3    3    0    0 -0.26009591676E+02  0.18901217100E+02  0.15995758411E+02  0.35911267792E+02  0.51100000000E-03 0.  1.
        -12    1    3    3    0    0 -0.35202450433E+01  0.55916950571E+01  0.74330933843E+01  0.99453534898E+01  0.00000000000E+00 0.  1.
</event>
<event>
 7    1  0.5031164E-009  0.4778727E+02  0.7816164E-02  0.1312668E+00
        -11   -1    0    0    0    0  0.00000000000E+00  0.00000000000E+00  0.45593999997E+02  0.45594000000E+02  0.51100000000E-03 0.  1.
         11   -1    0    0    0    0 -0.00000000000E+00 -0.00000000000E+00 -0.45593999997E+02  0.45594000000E+02  0.51100000000E-03 0. -1.
    9900012    2    1    2    0    0  0.30330993142E+02 -0.29735831524E+02 -0.89126002134E+01  0.47787271159E+02  0.20000000522E+02 0.  0.
         12    1    1    2    0    0 -0.30330993142E+02  0.29735831524E+02  0.89126002134E+01  0.43400728841E+02  0.00000000000E+00 0. -1.
         11    1    3    3    0    0  0.19213066673E+01 -0.38969908240E+01 -0.40067900708E+01  0.59103573263E+01  0.51100000000E-03 0. -1.
        -11    1    3    3    0    0  0.23295582935E+02 -0.26297858884E+02 -0.53858623835E+00  0.35136187066E+02  0.51100000000E-03 0.  1.
        -12    1    3    3    0    0  0.51141035397E+01  0.45901818415E+00 -0.43672239042E+01  0.67407267663E+01  0.00000000000E+00 0.  1.
</event>
<event>
 7    1  0.5031164E-009  0.4778727E+02  0.7816164E-02  0.1312668E+00
        -11   -1    0    0    0    0  0.00000000000E+00  0.00000000000E+00  0.45593999997E+02  0.45594000000E+02  0.51100000000E-03 0.  1.
         11   -1    0    0    0    0 -0.00000000000E+00 -0.00000000000E+00 -0.45593999997E+02  0.45594000000E+02  0.51100000000E-03 0. -1.
    9900012    2    1    2    0    0 -0.29688891898E+02  0.13530166681E+02  0.28620401295E+02  0.47787273245E+02  0.20000010034E+02 0.  0.
         12    1    1    2    0    0  0.29688891898E+02 -0.13530166681E+02 -0.28620401295E+02  0.43400726755E+02  0.00000000000E+00 0. -1.
         11    1    3    3    0    0 -0.56749388599E+01  0.52241448172E+01  0.13170851443E+02  0.15263287593E+02  0.51100000000E-03 0.  1.
        -11    1    3    3    0    0 -0.93276159548E+01 -0.81137522503E+00  0.34611123578E-01  0.93629027202E+01  0.51100000000E-03 0. -1.
        -12    1    3    3    0    0 -0.14686337083E+02  0.91173970893E+01  0.15414938728E+02  0.23161082932E+02  0.00000000000E+00 0.  1.
</event>
<event>
 7    1  0.5031164E-009  0.4778727E+02  0.7816164E-02  0.1312668E+00
        -11   -1    0    0    0    0  0.00000000000E+00  0.00000000000E+00  0.45593999997E+02  0.45594000000E+02  0.51100000000E-03 0. -1.
         11   -1    0    0    0    0 -0.00000000000E+00 -0.00000000000E+00 -0.45593999997E+02  0.45594000000E+02  0.51100000000E-03 0.  1.
    9900012    2    1    2    0    0 -0.16349766936E+02 -0.33995522263E+02 -0.21461894352E+02  0.47787270490E+02  0.19999997473E+02 0.  0.
         12    1    1    2    0    0  0.16349766936E+02  0.33995522263E+02  0.21461894352E+02  0.43400729510E+02  0.00000000000E+00 0. -1.
         11    1    3    3    0    0 -0.17192397058E+01  0.12697058031E+01 -0.48750559264E+00  0.21921678668E+01  0.51100000000E-03 0. -1.
        -11    1    3    3    0    0 -0.10262608028E+02 -0.34417151931E+02 -0.19718802343E+02  0.40971851761E+02  0.51100000000E-03 0.  1.
        -12    1    3    3    0    0 -0.43679192024E+01 -0.84807613464E+00 -0.12555864166E+01  0.46232508626E+01  0.00000000000E+00 0.  1.
</event>
<event>
 7    1  0.5031164E-009  0.4778727E+02  0.7816164E-02  0.1312668E+00
        -11   -1    0    0    0    0  0.00000000000E+00  0.00000000000E+00  0.45593999997E+02  0.45594000000E+02  0.51100000000E-03 0.  1.
         11   -1    0    0    0    0 -0.00000000000E+00 -0.00000000000E+00 -0.45593999997E+02  0.45594000000E+02  0.51100000000E-03 0. -1.
    9900012    2    1    2    0    0 -0.39068673719E+02  0.14765207524E+02  0.11800456684E+02  0.47787269622E+02  0.19999993514E+02 0.  0.
         12    1    1    2    0    0  0.39068673719E+02 -0.14765207524E+02 -0.11800456684E+02  0.43400730378E+02  0.00000000000E+00 0. -1.
         11    1    3    3    0    0 -0.19925878603E+02 -0.22640240658E+00  0.56618014202E+01  0.20715885010E+02  0.51100000000E-03 0. -1.
        -11    1    3    3    0    0 -0.20018533786E+02  0.13604913768E+02  0.70306016175E+01  0.25204458592E+02  0.51100000000E-03 0.  1.
         12    1    3    3    0    0  0.87573866985E+00  0.13866961627E+01 -0.89194635352E+00  0.18669260197E+01  0.00000000000E+00 0. -1.
</event>
<event>
 7    1  0.5031164E-009  0.4778727E+02  0.7816164E-02  0.1312668E+00
        -11   -1    0    0    0    0  0.00000000000E+00  0.00000000000E+00  0.45593999997E+02  0.45594000000E+02  0.51100000000E-03 0.  1.
         11   -1    0    0    0    0 -0.00000000000E+00 -0.00000000000E+00 -0.45593999997E+02  0.45594000000E+02  0.51100000000E-03 0. -1.
    9900012    2    1    2    0    0 -0.14720715718E+02  0.80239785413E+01  0.40031730115E+02  0.47787272830E+02  0.20000008140E+02 0.  0.
         12    1    1    2    0    0  0.14720715718E+02 -0.80239785413E+01 -0.40031730115E+02  0.43400727170E+02  0.00000000000E+00 0. -1.
         11    1    3    3    0    0 -0.34834089704E+01  0.11521929013E+02  0.22542322799E+02  0.25554751098E+02  0.51100000000E-03 0.  1.
        -11    1    3    3    0    0 -0.38137864076E+01  0.13090101328E+00  0.11246608753E+02  0.11876376154E+02  0.51100000000E-03 0. -1.
         12    1    3    3    0    0 -0.74235203398E+01 -0.36288514847E+01  0.62427985629E+01  0.10356145578E+02  0.00000000000E+00 0. -1.
</event>
<event>
 7    1  0.5031164E-009  0.4778727E+02  0.7816164E-02  0.1312668E+00
        -11   -1    0    0    0    0  0.00000000000E+00  0.00000000000E+00  0.45593999997E+02  0.45594000000E+02  0.51100000000E-03 0.  1.
         11   -1    0    0    0    0 -0.00000000000E+00 -0.00000000000E+00 -0.45593999997E+02  0.45594000000E+02  0.51100000000E-03 0. -1.
    9900012    2    1    2    0    0  0.35437006446E+02  0.48905723483E+01  0.24574872266E+02  0.47787268778E+02  0.19999989665E+02 0.  0.
         12    1    1    2    0    0 -0.35437006446E+02 -0.48905723483E+01 -0.24574872266E+02  0.43400731222E+02  0.00000000000E+00 0. -1.
         11    1    3    3    0    0  0.35783889920E+01  0.72730813828E+01  0.33419352606E+01  0.87676172434E+01  0.51100000000E-03 0. -1.
        -11    1    3    3    0    0  0.19869742432E+02  0.11769032938E+01  0.15667682552E+02  0.25331167412E+02  0.51100000000E-03 0.  1.
         12    1    3    3    0    0  0.11988875022E+02 -0.35594123283E+01  0.55652544532E+01  0.13688484122E+02  0.00000000000E+00 0. -1.
</event>
<event>
 7    1  0.5031164E-009  0.4778729E+02  0.7816164E-02  0.1312668E+00
        -11   -1    0    0    0    0  0.00000000000E+00  0.00000000000E+00  0.45593999997E+02  0.45594000000E+02  0.51100000000E-03 0. -1.
         11   -1    0    0    0    0 -0.00000000000E+00 -0.00000000000E+00 -0.45593999997E+02  0.45594000000E+02  0.51100000000E-03 0.  1.
    9900012    2    1    2    0    0  0.15538067522E+02 -0.13903235407E+02 -0.38064292764E+02  0.47787287094E+02  0.20000073178E+02 0.  0.
         12    1    1    2    0    0 -0.15538067522E+02  0.13903235407E+02  0.38064292764E+02  0.43400712906E+02  0.00000000000E+00 0. -1.
         11    1    3    3    0    0  0.43107418153E+01 -0.88499780202E-01 -0.20697731967E+01  0.47827072414E+01  0.51100000000E-03 0. -1.
        -11    1    3    3    0    0  0.11404302021E+02 -0.87056765873E+01 -0.34959039401E+02  0.37788640430E+02  0.51100000000E-03 0.  1.
        -12    1    3    3    0    0 -0.17697631457E+00 -0.51090590400E+01 -0.10354801659E+01  0.52159394229E+01  0.00000000000E+00 0.  1.
</event>
<event>
 7    1  0.5031164E-009  0.4778726E+02  0.7816164E-02  0.1312668E+00
        -11   -1    0    0    0    0  0.00000000000E+00  0.00000000000E+00  0.45593999997E+02  0.45594000000E+02  0.51100000000E-03 0.  1.
         11   -1    0    0    0    0 -0.00000000000E+00 -0.00000000000E+00 -0.45593999997E+02  0.45594000000E+02  0.51100000000E-03 0. -1.
    9900012    2    1    2    0    0 -0.19975468195E+02 -0.36945134145E+02  0.10938998248E+02  0.47787263263E+02  0.19999964523E+02 0.  0.
         12    1    1    2    0    0  0.19975468195E+02  0.36945134145E+02 -0.10938998248E+02  0.43400736737E+02  0.00000000000E+00 0. -1.
         11    1    3    3    0    0  0.88174034903E+00 -0.31966163354E+01 -0.27866818624E+01  0.43314452671E+01  0.51100000000E-03 0. -1.
        -11    1    3    3    0    0 -0.22223626064E+02 -0.31433422935E+02  0.13329610781E+02  0.40738534052E+02  0.51100000000E-03 0.  1.
        -12    1    3    3    0    0  0.13664175205E+01 -0.23150948751E+01  0.39606932938E+00  0.27172839445E+01  0.00000000000E+00 0.  1.
</event>
<event>
 7    1  0.5031164E-009  0.4778727E+02  0.7816164E-02  0.1312668E+00
        -11   -1    0    0    0    0  0.00000000000E+00  0.00000000000E+00  0.45593999997E+02  0.45594000000E+02  0.51100000000E-03 0.  1.
         11   -1    0    0    0    0 -0.00000000000E+00 -0.00000000000E+00 -0.45593999997E+02  0.45594000000E+02  0.51100000000E-03 0. -1.
    9900012    2    1    2    0    0 -0.63539350542E+01 -0.36259360464E+02  0.22989340269E+02  0.47787268693E+02  0.19999989279E+02 0.  0.
         12    1    1    2    0    0  0.63539350542E+01  0.36259360464E+02 -0.22989340269E+02  0.43400731307E+02  0.00000000000E+00 0. -1.
         11    1    3    3    0    0 -0.40447318015E+01 -0.12309913150E+02  0.16977327160E+02  0.21357046960E+02  0.51100000000E-03 0. -1.
        -11    1    3    3    0    0  0.50178496332E+00 -0.80654211171E+01  0.63787648396E+01  0.10295214766E+02  0.51100000000E-03 0.  1.
         12    1    3    3    0    0 -0.28109882160E+01 -0.15884026197E+02 -0.36675172979E+00  0.16135006967E+02  0.00000000000E+00 0. -1.
</event>
<event>
 7    1  0.5031164E-009  0.4778727E+02  0.7816164E-02  0.1312668E+00
        -11   -1    0    0    0    0  0.00000000000E+00  0.00000000000E+00  0.45593999997E+02  0.45594000000E+02  0.51100000000E-03 0.  1.
         11   -1    0    0    0    0 -0.00000000000E+00 -0.00000000000E+00 -0.45593999997E+02  0.45594000000E+02  0.51100000000E-03 0. -1.
    9900012    2    1    2    0    0 -0.29229777527E+01  0.97333344845E+01  0.42194094001E+02  0.47787272268E+02  0.20000005579E+02 0.  0.
         12    1    1    2    0    0  0.29229777527E+01 -0.97333344845E+01 -0.42194094001E+02  0.43400727732E+02  0.00000000000E+00 0. -1.
         11    1    3    3    0    0 -0.31784441788E+01  0.11999752912E+02  0.18212928495E+02  0.22041037679E+02  0.51100000000E-03 0. -1.
        -11    1    3    3    0    0 -0.32511474756E+01  0.15934974380E+01  0.14284418888E+02  0.14736139834E+02  0.51100000000E-03 0.  1.
         12    1    3    3    0    0  0.35066139017E+01 -0.38599158652E+01  0.96967466182E+01  0.11010094755E+02  0.00000000000E+00 0. -1.
</event>
<event>
 7    1  0.5031164E-009  0.4778727E+02  0.7816164E-02  0.1312668E+00
        -11   -1    0    0    0    0  0.00000000000E+00  0.00000000000E+00  0.45593999997E+02  0.45594000000E+02  0.51100000000E-03 0.  1.
         11   -1    0    0    0    0 -0.00000000000E+00 -0.00000000000E+00 -0.45593999997E+02  0.45594000000E+02  0.51100000000E-03 0. -1.
    9900012    2    1    2    0    0 -0.33523516869E+02 -0.18181911572E+02  0.20717509740E+02  0.47787270726E+02  0.19999998548E+02 0.  0.
         12    1    1    2    0    0  0.33523516869E+02  0.18181911572E+02 -0.20717509740E+02  0.43400729274E+02  0.00000000000E+00 0. -1.
         11    1    3    3    0    0 -0.48165460083E+01 -0.10657639636E+02  0.82710669951E+01  0.14324627310E+02  0.51100000000E-03 0. -1.
        -11    1    3    3    0    0 -0.24778337645E+02 -0.70577348238E+01  0.69398237650E+01  0.26682181160E+02  0.51100000000E-03 0.  1.
         12    1    3    3    0    0 -0.39286332156E+01 -0.46653711208E+00  0.55066189804E+01  0.67804622567E+01  0.00000000000E+00 0. -1.
</event>
<event>
 7    1  0.5031164E-009  0.4778727E+02  0.7816164E-02  0.1312668E+00
        -11   -1    0    0    0    0  0.00000000000E+00  0.00000000000E+00  0.45593999997E+02  0.45594000000E+02  0.51100000000E-03 0.  1.
         11   -1    0    0    0    0 -0.00000000000E+00 -0.00000000000E+00 -0.45593999997E+02  0.45594000000E+02  0.51100000000E-03 0. -1.
    9900012    2    1    2    0    0  0.22708269868E+02 -0.28815679293E+02  0.23186514173E+02  0.47787270363E+02  0.19999996894E+02 0.  0.
         12    1    1    2    0    0 -0.22708269868E+02  0.28815679293E+02 -0.23186514173E+02  0.43400729637E+02  0.00000000000E+00 0. -1.
         11    1    3    3    0    0  0.39153806788E+01 -0.50203308661E+01  0.69732349327E+00  0.64047004755E+01  0.51100000000E-03 0. -1.
        -11    1    3    3    0    0  0.28186029827E+01 -0.13992203680E+02  0.34882540501E+01  0.14693338735E+02  0.51100000000E-03 0.  1.
        -12    1    3    3    0    0  0.15974286206E+02 -0.98031447471E+01  0.19000936629E+02  0.26689231153E+02  0.00000000000E+00 0.  1.
</event>
<event>
 7    1  0.5031164E-009  0.4778727E+02  0.7816164E-02  0.1312668E+00
        -11   -1    0    0    0    0  0.00000000000E+00  0.00000000000E+00  0.45593999997E+02  0.45594000000E+02  0.51100000000E-03 0. -1.
         11   -1    0    0    0    0 -0.00000000000E+00 -0.00000000000E+00 -0.45593999997E+02  0.45594000000E+02  0.51100000000E-03 0.  1.
    9900012    2    1    2    0    0  0.26311372483E+02  0.18317466780E+02  0.29254146742E+02  0.47787274053E+02  0.20000013717E+02 0.  0.
         12    1    1    2    0    0 -0.26311372483E+02 -0.18317466780E+02 -0.29254146742E+02  0.43400725947E+02  0.00000000000E+00 0. -1.
         11    1    3    3    0    0 -0.92387049203E+00 -0.93518590214E+00  0.31063711257E+00  0.13507794174E+01  0.51100000000E-03 0. -1.
        -11    1    3    3    0    0  0.21957653127E+02  0.21269405240E+02  0.25585682436E+02  0.39864185380E+02  0.51100000000E-03 0.  1.
        -12    1    3    3    0    0  0.52775898478E+01 -0.20167525579E+01  0.33578271938E+01  0.65723092551E+01  0.00000000000E+00 0.  1.
</event>
<event>
 7    1  0.5031164E-009  0.4778727E+02  0.7816164E-02  0.1312668E+00
        -11   -1    0    0    0    0  0.00000000000E+00  0.00000000000E+00  0.45593999997E+02  0.45594000000E+02  0.51100000000E-03 0.  1.
         11   -1    0    0    0    0 -0.00000000000E+00 -0.00000000000E+00 -0.45593999997E+02  0.45594000000E+02  0.51100000000E-03 0. -1.
    9900012    2    1    2    0    0  0.28697135885E+02  0.22069398940E+02 -0.23938248533E+02  0.47787265900E+02  0.19999976545E+02 0.  0.
         12    1    1    2    0    0 -0.28697135885E+02 -0.22069398940E+02  0.23938248533E+02  0.43400734100E+02  0.00000000000E+00 0. -1.
         11    1    3    3    0    0  0.18654375403E+02  0.23620067882E+02 -0.13231538350E+02  0.32878061618E+02  0.51100000000E-03 0. -1.
        -11    1    3    3    0    0  0.90923068787E+01 -0.12230793364E+01 -0.85995401484E+01  0.12574500327E+02  0.51100000000E-03 0.  1.
         12    1    3    3    0    0  0.95045360315E+00 -0.32758960519E+00 -0.21071700351E+01  0.23347039551E+01  0.00000000000E+00 0. -1.
</event>
<event>
 7    1  0.5031164E-009  0.4778727E+02  0.7816164E-02  0.1312668E+00
        -11   -1    0    0    0    0  0.00000000000E+00  0.00000000000E+00  0.45593999997E+02  0.45594000000E+02  0.51100000000E-03 0.  1.
         11   -1    0    0    0    0 -0.00000000000E+00 -0.00000000000E+00 -0.45593999997E+02  0.45594000000E+02  0.51100000000E-03 0. -1.
    9900012    2    1    2    0    0 -0.41025733664E+02 -0.76181622735E+01  0.11936327870E+02  0.47787272563E+02  0.20000006923E+02 0.  0.
         12    1    1    2    0    0  0.41025733664E+02  0.76181622735E+01 -0.11936327870E+02  0.43400727437E+02  0.00000000000E+00 0. -1.
         11    1    3    3    0    0 -0.27814783166E+02 -0.28088687993E+01  0.35729094768E+01  0.28183640448E+02  0.51100000000E-03 0. -1.
        -11    1    3    3    0    0 -0.20567466281E+01 -0.54119499156E+01  0.56902042843E+01  0.81177480645E+01  0.51100000000E-03 0.  1.
        -12    1    3    3    0    0 -0.11154203869E+02  0.60265644145E+00  0.26732141087E+01  0.11485884050E+02  0.00000000000E+00 0.  1.
</event>
<event>
 7    1  0.5031164E-009  0.4778727E+02  0.7816164E-02  0.1312668E+00
        -11   -1    0    0    0    0  0.00000000000E+00  0.00000000000E+00  0.45593999997E+02  0.45594000000E+02  0.51100000000E-03 0.  1.
         11   -1    0    0    0    0 -0.00000000000E+00 -0.00000000000E+00 -0.45593999997E+02  0.45594000000E+02  0.51100000000E-03 0. -1.
    9900012    2    1    2    0    0 -0.75458725809E+01 -0.41592701936E+02 -0.98351461100E+01  0.47787272513E+02  0.20000006696E+02 0.  0.
         12    1    1    2    0    0  0.75458725809E+01  0.41592701936E+02  0.98351461100E+01  0.43400727487E+02  0.00000000000E+00 0. -1.
         11    1    3    3    0    0 -0.49713694675E+01 -0.20344433800E+02 -0.11387760266E+02  0.23838867112E+02  0.51100000000E-03 0. -1.
        -11    1    3    3    0    0 -0.44028178780E+01 -0.21070875537E+02  0.28297587274E+01  0.21711152338E+02  0.51100000000E-03 0.  1.
        -12    1    3    3    0    0  0.18283147646E+01 -0.17739260002E+00 -0.12771445711E+01  0.22372530631E+01  0.00000000000E+00 0.  1.
</event>
<event>
 7    1  0.5031164E-009  0.4778727E+02  0.7816164E-02  0.1312668E+00
        -11   -1    0    0    0    0  0.00000000000E+00  0.00000000000E+00  0.45593999997E+02  0.45594000000E+02  0.51100000000E-03 0. -1.
         11   -1    0    0    0    0 -0.00000000000E+00 -0.00000000000E+00 -0.45593999997E+02  0.45594000000E+02  0.51100000000E-03 0.  1.
    9900012    2    1    2    0    0 -0.12240778448E+02  0.19027927195E+02 -0.37036800810E+02  0.47787270921E+02  0.19999999435E+02 0.  0.
         12    1    1    2    0    0  0.12240778448E+02 -0.19027927195E+02  0.37036800810E+02  0.43400729079E+02  0.00000000000E+00 0. -1.
         11    1    3    3    0    0  0.24418228380E+01  0.41286461741E+01 -0.44022952020E+00  0.48168475474E+01  0.51100000000E-03 0. -1.
        -11    1    3    3    0    0 -0.10563655588E+02  0.14964555591E+02 -0.31223037199E+02  0.36199541373E+02  0.51100000000E-03 0.  1.
         12    1    3    3    0    0 -0.41189456975E+01 -0.65274570148E-01 -0.53735340909E+01  0.67708819998E+01  0.00000000000E+00 0. -1.
</event>
<event>
 7    1  0.5031164E-009  0.4778727E+02  0.7816164E-02  0.1312668E+00
        -11   -1    0    0    0    0  0.00000000000E+00  0.00000000000E+00  0.45593999997E+02  0.45594000000E+02  0.51100000000E-03 0.  1.
         11   -1    0    0    0    0 -0.00000000000E+00 -0.00000000000E+00 -0.45593999997E+02  0.45594000000E+02  0.51100000000E-03 0. -1.
    9900012    2    1    2    0    0 -0.27819124570E+02  0.27766658922E+02 -0.18404681376E+02  0.47787270327E+02  0.19999996730E+02 0.  0.
         12    1    1    2    0    0  0.27819124570E+02 -0.27766658922E+02  0.18404681376E+02  0.43400729673E+02  0.00000000000E+00 0. -1.
         11    1    3    3    0    0  0.16306388915E+00 -0.24639854257E+01 -0.12820435050E+01  0.27823460999E+01  0.51100000000E-03 0. -1.
        -11    1    3    3    0    0 -0.22089375688E+02  0.23349520950E+02 -0.15910023770E+02  0.35864599586E+02  0.51100000000E-03 0.  1.
         12    1    3    3    0    0 -0.58928127715E+01  0.68811233984E+01 -0.12126141005E+01  0.91403246409E+01  0.00000000000E+00 0. -1.
</event>
<event>
 7    1  0.5031164E-009  0.4778727E+02  0.7816164E-02  0.1312668E+00
        -11   -1    0    0    0    0  0.00000000000E+00  0.00000000000E+00  0.45593999997E+02  0.45594000000E+02  0.51100000000E-03 0.  1.
         11   -1    0    0    0    0 -0.00000000000E+00 -0.00000000000E+00 -0.45593999997E+02  0.45594000000E+02  0.51100000000E-03 0. -1.
    9900012    2    1    2    0    0 -0.24762955741E+02 -0.31913058321E+02  0.15873760020E+02  0.47787268145E+02  0.19999986779E+02 0.  0.
         12    1    1    2    0    0  0.24762955741E+02  0.31913058321E+02 -0.15873760020E+02  0.43400731855E+02  0.00000000000E+00 0. -1.
         11    1    3    3    0    0 -0.50387165337E+01 -0.43339940169E+01  0.19820031065E+01  0.69354527625E+01  0.51100000000E-03 0. -1.
        -11    1    3    3    0    0 -0.99926015564E+01 -0.92285917052E+00  0.33371462856E+01  0.10575457461E+02  0.51100000000E-03 0.  1.
        -12    1    3    3    0    0 -0.97316376510E+01 -0.26656205133E+02  0.10554610628E+02  0.30276357921E+02  0.00000000000E+00 0.  1.
</event>
<event>
 7    1  0.5031164E-009  0.4778727E+02  0.7816164E-02  0.1312668E+00
        -11   -1    0    0    0    0  0.00000000000E+00  0.00000000000E+00  0.45593999997E+02  0.45594000000E+02  0.51100000000E-03 0.  1.
         11   -1    0    0    0    0 -0.00000000000E+00 -0.00000000000E+00 -0.45593999997E+02  0.45594000000E+02  0.51100000000E-03 0. -1.
    9900012    2    1    2    0    0  0.31760824020E+02 -0.22562390987E+02  0.19126212049E+02  0.47787269398E+02  0.19999992492E+02 0.  0.
         12    1    1    2    0    0 -0.31760824020E+02  0.22562390987E+02 -0.19126212049E+02  0.43400730602E+02  0.00000000000E+00 0. -1.
         11    1    3    3    0    0  0.97352982053E+01 -0.11421763381E+02  0.14284513165E+02  0.20719073977E+02  0.51100000000E-03 0. -1.
        -11    1    3    3    0    0  0.17124320225E+02 -0.36464399504E+01  0.46343164608E+01  0.18111205283E+02  0.51100000000E-03 0.  1.
         12    1    3    3    0    0  0.49012055897E+01 -0.74941876555E+01  0.20738242362E+00  0.89569901372E+01  0.00000000000E+00 0. -1.
</event>
<event>
 7    1  0.5734756E-009  0.4778727E+02  0.7816164E-02  0.1312668E+00
        -11   -1    0    0    0    0  0.00000000000E+00  0.00000000000E+00  0.45593999997E+02  0.45594000000E+02  0.51100000000E-03 0. -1.
         11   -1    0    0    0    0 -0.00000000000E+00 -0.00000000000E+00 -0.45593999997E+02  0.45594000000E+02  0.51100000000E-03 0.  1.
    9900012    2    1    2    0    0 -0.18368505365E+02  0.18621944501E+02 -0.34633000784E+02  0.47787267867E+02  0.19999985514E+02 0.  0.
         12    1    1    2    0    0  0.18368505365E+02 -0.18621944501E+02  0.34633000784E+02  0.43400732133E+02  0.00000000000E+00 0. -1.
         11    1    3    3    0    0  0.43699424989E-01  0.58148289139E+01 -0.14750190596E+01  0.59991521421E+01  0.51100000000E-03 0. -1.
        -11    1    3    3    0    0 -0.95920295561E+01  0.87730418293E+00 -0.18891894804E+02  0.21205668657E+02  0.51100000000E-03 0.  1.
        -12    1    3    3    0    0 -0.88201752339E+01  0.11929811405E+02 -0.14266086920E+02  0.20582447068E+02  0.00000000000E+00 0.  1.
</event>
<event>
 7    1  0.5031164E-009  0.4778722E+02  0.7816164E-02  0.1312668E+00
        -11   -1    0    0    0    0  0.00000000000E+00  0.00000000000E+00  0.45593999997E+02  0.45594000000E+02  0.51100000000E-03 0. -1.
         11   -1    0    0    0    0 -0.00000000000E+00 -0.00000000000E+00 -0.45593999997E+02  0.45594000000E+02  0.51100000000E-03 0.  1.
    9900012    2    1    2    0    0  0.16306496816E+02  0.16476493108E+02 -0.36691297435E+02  0.47787216930E+02  0.19999753271E+02 0.  0.
         12    1    1    2    0    0 -0.16306496816E+02 -0.16476493108E+02  0.36691297435E+02  0.43400783070E+02  0.00000000000E+00 0. -1.
         11    1    3    3    0    0 -0.18510226546E+01 -0.17243215407E+01 -0.62727778293E+00  0.26063475060E+01  0.51100000000E-03 0. -1.
        -11    1    3    3    0    0  0.14081914904E+02  0.10637038860E+02 -0.29470686031E+02  0.34350666056E+02  0.51100000000E-03 0.  1.
         12    1    3    3    0    0  0.40756045663E+01  0.75637757888E+01 -0.65933336219E+01  0.10830203369E+02  0.00000000000E+00 0. -1.
</event>
<event>
 7    1  0.5031164E-009  0.4778727E+02  0.7816164E-02  0.1312668E+00
        -11   -1    0    0    0    0  0.00000000000E+00  0.00000000000E+00  0.45593999997E+02  0.45594000000E+02  0.51100000000E-03 0.  1.
         11   -1    0    0    0    0 -0.00000000000E+00 -0.00000000000E+00 -0.45593999997E+02  0.45594000000E+02  0.51100000000E-03 0. -1.
    9900012    2    1    2    0    0  0.24223065569E+02 -0.34908896932E+02  0.88450730687E+01  0.47787270649E+02  0.19999998197E+02 0.  0.
         12    1    1    2    0    0 -0.24223065569E+02  0.34908896932E+02 -0.88450730687E+01  0.43400729351E+02  0.00000000000E+00 0. -1.
         11    1    3    3    0    0  0.66691544704E+01 -0.10338709405E+02 -0.50943258389E+01  0.13316106395E+02  0.51100000000E-03 0. -1.
        -11    1    3    3    0    0  0.16792005772E+02 -0.25318702246E+02  0.12988091003E+02  0.33040863327E+02  0.51100000000E-03 0.  1.
         12    1    3    3    0    0  0.76190532679E+00  0.74851471859E+00  0.95130790457E+00  0.14303009265E+01  0.00000000000E+00 0. -1.
</event>
<event>
 7    1  0.5031164E-009  0.4778727E+02  0.7816164E-02  0.1312668E+00
        -11   -1    0    0    0    0  0.00000000000E+00  0.00000000000E+00  0.45593999997E+02  0.45594000000E+02  0.51100000000E-03 0.  1.
         11   -1    0    0    0    0 -0.00000000000E+00 -0.00000000000E+00 -0.45593999997E+02  0.45594000000E+02  0.51100000000E-03 0. -1.
    9900012    2    1    2    0    0  0.14177098510E+02 -0.35315620095E+02  0.20867200364E+02  0.47787271943E+02  0.20000004098E+02 0.  0.
         12    1    1    2    0    0 -0.14177098510E+02  0.35315620095E+02 -0.20867200364E+02  0.43400728057E+02  0.00000000000E+00 0. -1.
         11    1    3    3    0    0  0.10965077049E+02 -0.11699169572E+02  0.48023164848E+01  0.16738151847E+02  0.51100000000E-03 0. -1.
        -11    1    3    3    0    0  0.29571458428E+01 -0.11349974588E+02  0.12227805565E+01  0.11792447890E+02  0.51100000000E-03 0.  1.
        -12    1    3    3    0    0  0.25487561784E+00 -0.12266475935E+02  0.14842103322E+02  0.19256672207E+02  0.00000000000E+00 0.  1.
</event>
<event>
 7    1  0.5031164E-009  0.4778727E+02  0.7816164E-02  0.1312668E+00
        -11   -1    0    0    0    0  0.00000000000E+00  0.00000000000E+00  0.45593999997E+02  0.45594000000E+02  0.51100000000E-03 0.  1.
         11   -1    0    0    0    0 -0.00000000000E+00 -0.00000000000E+00 -0.45593999997E+02  0.45594000000E+02  0.51100000000E-03 0. -1.
    9900012    2    1    2    0    0  0.29708868792E+02  0.13782443628E+02  0.28478952600E+02  0.47787269840E+02  0.19999994508E+02 0.  0.
         12    1    1    2    0    0 -0.29708868792E+02 -0.13782443628E+02 -0.28478952600E+02  0.43400730160E+02  0.00000000000E+00 0. -1.
         11    1    3    3    0    0  0.16155103103E+02  0.10588771677E+02  0.86184200810E+01  0.21151515474E+02  0.51100000000E-03 0. -1.
        -11    1    3    3    0    0  0.58976707305E+01  0.33470340260E+01  0.17266977585E+02  0.18550840196E+02  0.51100000000E-03 0.  1.
         12    1    3    3    0    0  0.76560949580E+01 -0.15336207424E+00  0.25935549339E+01  0.80849141694E+01  0.00000000000E+00 0. -1.
</event>
<event>
 7    1  0.5031164E-009  0.4778727E+02  0.7816164E-02  0.1312668E+00
        -11   -1    0    0    0    0  0.00000000000E+00  0.00000000000E+00  0.45593999997E+02  0.45594000000E+02  0.51100000000E-03 0.  1.
         11   -1    0    0    0    0 -0.00000000000E+00 -0.00000000000E+00 -0.45593999997E+02  0.45594000000E+02  0.51100000000E-03 0. -1.
    9900012    2    1    2    0    0 -0.33660089239E+02 -0.25753227946E+02  0.93484093790E+01  0.47787272873E+02  0.20000008339E+02 0.  0.
         12    1    1    2    0    0  0.33660089239E+02  0.25753227946E+02 -0.93484093790E+01  0.43400727127E+02  0.00000000000E+00 0. -1.
         11    1    3    3    0    0 -0.15534488136E+02 -0.20842708600E+02  0.12301419366E+02  0.28758715933E+02  0.51100000000E-03 0. -1.
        -11    1    3    3    0    0 -0.27819312812E+01 -0.51052160565E+00 -0.25240664224E+00  0.28396273236E+01  0.51100000000E-03 0.  1.
         12    1    3    3    0    0 -0.15343669822E+02 -0.43999977402E+01 -0.27006033448E+01  0.16188929617E+02  0.00000000000E+00 0. -1.
</event>
<event>
 7    1  0.5031164E-009  0.4778726E+02  0.7816164E-02  0.1312668E+00
        -11   -1    0    0    0    0  0.00000000000E+00  0.00000000000E+00  0.45593999997E+02  0.45594000000E+02  0.51100000000E-03 0.  1.
         11   -1    0    0    0    0 -0.00000000000E+00 -0.00000000000E+00 -0.45593999997E+02  0.45594000000E+02  0.51100000000E-03 0. -1.
    9900012    2    1    2    0    0 -0.25956751196E+01 -0.32860283798E+02  0.28232755530E+02  0.47787259621E+02  0.19999947917E+02 0.  0.
         12    1    1    2    0    0  0.25956751196E+01  0.32860283798E+02 -0.28232755530E+02  0.43400740379E+02  0.00000000000E+00 0. -1.
         11    1    3    3    0    0  0.21404365254E+00 -0.15914317392E+02  0.52120990112E+01  0.16747456198E+02  0.51100000000E-03 0. -1.
        -11    1    3    3    0    0 -0.42545236828E+01 -0.16416077844E+02  0.23870974711E+02  0.29281598616E+02  0.51100000000E-03 0.  1.
        -12    1    3    3    0    0  0.14448049107E+01 -0.52988856108E+00 -0.85031819207E+00  0.17582048074E+01  0.00000000000E+00 0.  1.
</event>
<event>
 7    1  0.5031164E-009  0.4778728E+02  0.7816164E-02  0.1312668E+00
        -11   -1    0    0    0    0  0.00000000000E+00  0.00000000000E+00  0.45593999997E+02  0.45594000000E+02  0.51100000000E-03 0.  1.
         11   -1    0    0    0    0 -0.00000000000E+00 -0.00000000000E+00 -0.45593999997E+02  0.45594000000E+02  0.51100000000E-03 0. -1.
    9900012    2    1    2    0    0 -0.60806343289E+01 -0.42325873278E+02  0.74275705742E+01  0.47787280338E+02  0.20000042372E+02 0.  0.
         12    1    1    2    0    0  0.60806343289E+01  0.42325873278E+02 -0.74275705742E+01  0.43400719662E+02  0.00000000000E+00 0. -1.
         11    1    3    3    0    0 -0.14780393936E+01 -0.21576565053E+02 -0.46246360505E+01  0.22116057940E+02  0.51100000000E-03 0. -1.
        -11    1    3    3    0    0 -0.20903623090E+01 -0.13684756391E+02  0.34636110551E+01  0.14270205810E+02  0.51100000000E-03 0.  1.
         12    1    3    3    0    0 -0.25122326263E+01 -0.70645518338E+01  0.85885955696E+01  0.11401016588E+02  0.00000000000E+00 0. -1.
</event>
<event>
 7    1  0.5031164E-009  0.4778728E+02  0.7816164E-02  0.1312668E+00
        -11   -1    0    0    0    0  0.00000000000E+00  0.00000000000E+00  0.45593999997E+02  0.45594000000E+02  0.51100000000E-03 0. -1.
         11   -1    0    0    0    0 -0.00000000000E+00 -0.00000000000E+00 -0.45593999997E+02  0.45594000000E+02  0.51100000000E-03 0.  1.
    9900012    2    1    2    0    0 -0.27192974073E+02 -0.14256845348E+02 -0.30674214344E+02  0.47787275308E+02  0.20000019440E+02 0.  0.
         12    1    1    2    0    0  0.27192974073E+02  0.14256845348E+02  0.30674214344E+02  0.43400724692E+02  0.00000000000E+00 0. -1.
         11    1    3    3    0    0  0.35106684295E-01 -0.20098280739E+01 -0.70540727003E+01  0.73348880896E+01  0.51100000000E-03 0. -1.
        -11    1    3    3    0    0 -0.26728341276E+02 -0.70921224883E+01 -0.20215273550E+02  0.34254338612E+02  0.51100000000E-03 0.  1.
        -12    1    3    3    0    0 -0.49973948058E+00 -0.51548947856E+01 -0.34048680932E+01  0.61980486067E+01  0.00000000000E+00 0.  1.
</event>
<event>
 7    1  0.5031164E-009  0.4778727E+02  0.7816164E-02  0.1312668E+00
        -11   -1    0    0    0    0  0.00000000000E+00  0.00000000000E+00  0.45593999997E+02  0.45594000000E+02  0.51100000000E-03 0.  1.
         11   -1    0    0    0    0 -0.00000000000E+00 -0.00000000000E+00 -0.45593999997E+02  0.45594000000E+02  0.51100000000E-03 0. -1.
    9900012    2    1    2    0    0 -0.97975217398E+01  0.16147661459E+02  0.39075377952E+02  0.47787267692E+02  0.19999984714E+02 0.  0.
         12    1    1    2    0    0  0.97975217398E+01 -0.16147661459E+02 -0.39075377952E+02  0.43400732308E+02  0.00000000000E+00 0. -1.
         11    1    3    3    0    0  0.25230042303E+01  0.12133402371E+01 -0.13346412928E+00  0.28027768038E+01  0.51100000000E-03 0. -1.
        -11    1    3    3    0    0 -0.12663828005E+02  0.14706903546E+02  0.39790793229E+02  0.44271579796E+02  0.51100000000E-03 0.  1.
        -12    1    3    3    0    0  0.34330203476E+00  0.22741767548E+00 -0.58195114763E+00  0.71291109152E+00  0.00000000000E+00 0.  1.
</event>
<event>
 7    1  0.5031164E-009  0.4778727E+02  0.7816164E-02  0.1312668E+00
        -11   -1    0    0    0    0  0.00000000000E+00  0.00000000000E+00  0.45593999997E+02  0.45594000000E+02  0.51100000000E-03 0.  1.
         11   -1    0    0    0    0 -0.00000000000E+00 -0.00000000000E+00 -0.45593999997E+02  0.45594000000E+02  0.51100000000E-03 0. -1.
    9900012    2    1    2    0    0 -0.41885622690E+01 -0.38348952631E+02  0.19885597141E+02  0.47787271948E+02  0.20000004120E+02 0.  0.
         12    1    1    2    0    0  0.41885622690E+01  0.38348952631E+02 -0.19885597141E+02  0.43400728052E+02  0.00000000000E+00 0. -1.
         11    1    3    3    0    0 -0.14596697388E+01 -0.22298797886E+02  0.56600568422E+01  0.23052185724E+02  0.51100000000E-03 0. -1.
        -11    1    3    3    0    0 -0.59976902609E+01 -0.10730616350E+02  0.13793663997E+02  0.18476568470E+02  0.51100000000E-03 0.  1.
         12    1    3    3    0    0  0.32687977306E+01 -0.53195383953E+01  0.43187630212E+00  0.62585177544E+01  0.00000000000E+00 0. -1.
</event>
<event>
 7    1  0.5031164E-009  0.4778727E+02  0.7816164E-02  0.1312668E+00
        -11   -1    0    0    0    0  0.00000000000E+00  0.00000000000E+00  0.45593999997E+02  0.45594000000E+02  0.51100000000E-03 0.  1.
         11   -1    0    0    0    0 -0.00000000000E+00 -0.00000000000E+00 -0.45593999997E+02  0.45594000000E+02  0.51100000000E-03 0. -1.
    9900012    2    1    2    0    0 -0.33678929548E+02 -0.15088644239E+02  0.22840445274E+02  0.47787269352E+02  0.19999992284E+02 0.  0.
         12    1    1    2    0    0  0.33678929548E+02  0.15088644239E+02 -0.22840445274E+02  0.43400730648E+02  0.00000000000E+00 0. -1.
         11    1    3    3    0    0 -0.98874118865E+01 -0.36121232272E+01  0.16940278214E+02  0.19944457231E+02  0.51100000000E-03 0. -1.
        -11    1    3    3    0    0 -0.23311011652E+02 -0.96741989457E+01  0.48443102321E+01  0.25699430565E+02  0.51100000000E-03 0.  1.
         12    1    3    3    0    0 -0.48050600977E+00 -0.18023220657E+01  0.10558568289E+01  0.21433815566E+01  0.00000000000E+00 0. -1.
</event>
<event>
 7    1  0.5031164E-009  0.4778727E+02  0.7816164E-02  0.1312668E+00
        -11   -1    0    0    0    0  0.00000000000E+00  0.00000000000E+00  0.45593999997E+02  0.45594000000E+02  0.51100000000E-03 0. -1.
         11   -1    0    0    0    0 -0.00000000000E+00 -0.00000000000E+00 -0.45593999997E+02  0.45594000000E+02  0.51100000000E-03 0.  1.
    9900012    2    1    2    0    0 -0.13579580358E+01  0.11751320653E+02 -0.41757467342E+02  0.47787266527E+02  0.19999979405E+02 0.  0.
         12    1    1    2    0    0  0.13579580358E+01 -0.11751320653E+02  0.41757467342E+02  0.43400733473E+02  0.00000000000E+00 0. -1.
         11    1    3    3    0    0 -0.11378779206E+01  0.10504252014E+02 -0.11411651776E+02  0.15551844683E+02  0.51100000000E-03 0. -1.
        -11    1    3    3    0    0 -0.30813068991E+00 -0.47324719192E+01 -0.10804025044E+02  0.11799075913E+02  0.51100000000E-03 0.  1.
         12    1    3    3    0    0  0.88050574660E-01  0.59795405588E+01 -0.19541790523E+02  0.20436345932E+02  0.00000000000E+00 0. -1.
</event>
<event>
 7    1  0.5031164E-009  0.4778727E+02  0.7816164E-02  0.1312668E+00
        -11   -1    0    0    0    0  0.00000000000E+00  0.00000000000E+00  0.45593999997E+02  0.45594000000E+02  0.51100000000E-03 0.  1.
         11   -1    0    0    0    0 -0.00000000000E+00 -0.00000000000E+00 -0.45593999997E+02  0.45594000000E+02  0.51100000000E-03 0. -1.
    9900012    2    1    2    0    0 -0.24747777759E+02  0.30349658381E+02  0.18710133569E+02  0.47787269983E+02  0.19999995159E+02 0.  0.
         12    1    1    2    0    0  0.24747777759E+02 -0.30349658381E+02 -0.18710133569E+02  0.43400730017E+02  0.00000000000E+00 0. -1.
         11    1    3    3    0    0 -0.38984237119E+01 -0.77213073875E-01 -0.43155268392E+00  0.39229972313E+01  0.51100000000E-03 0. -1.
        -11    1    3    3    0    0 -0.29959409756E+01 -0.81147991673E+00  0.33624961105E+01  0.45760837338E+01  0.51100000000E-03 0.  1.
        -12    1    3    3    0    0 -0.17853413071E+02  0.31238351372E+02  0.15779190143E+02  0.39288189018E+02  0.00000000000E+00 0.  1.
</event>
<event>
 7    1  0.5031164E-009  0.4778727E+02  0.7816164E-02  0.1312668E+00
        -11   -1    0    0    0    0  0.00000000000E+00  0.00000000000E+00  0.45593999997E+02  0.45594000000E+02  0.51100000000E-03 0.  1.
         11   -1    0    0    0    0 -0.00000000000E+00 -0.00000000000E+00 -0.45593999997E+02  0.45594000000E+02  0.51100000000E-03 0. -1.
    9900012    2    1    2    0    0 -0.29746637726E+01  0.40689302824E+02  0.14803898514E+02  0.47787269591E+02  0.19999993372E+02 0.  0.
         12    1    1    2    0    0  0.29746637726E+01 -0.40689302824E+02 -0.14803898514E+02  0.43400730409E+02  0.00000000000E+00 0. -1.
         11    1    3    3    0    0 -0.39868490224E+01  0.63572298756E+01  0.21599636647E+01  0.78086349712E+01  0.51100000000E-03 0. -1.
        -11    1    3    3    0    0 -0.61129070169E+01  0.27071943184E+02  0.93587545126E+01  0.29288974482E+02  0.51100000000E-03 0.  1.
        -12    1    3    3    0    0  0.71250922668E+01  0.72601297646E+01  0.32851803364E+01  0.10689660137E+02  0.00000000000E+00 0.  1.
</event>
<event>
 7    1  0.5031164E-009  0.4778727E+02  0.7816164E-02  0.1312668E+00
        -11   -1    0    0    0    0  0.00000000000E+00  0.00000000000E+00  0.45593999997E+02  0.45594000000E+02  0.51100000000E-03 0. -1.
         11   -1    0    0    0    0 -0.00000000000E+00 -0.00000000000E+00 -0.45593999997E+02  0.45594000000E+02  0.51100000000E-03 0.  1.
    9900012    2    1    2    0    0  0.20590765415E+02  0.75897550256E+01 -0.37443816951E+02  0.47787269251E+02  0.19999991822E+02 0.  0.
         12    1    1    2    0    0 -0.20590765415E+02 -0.75897550256E+01  0.37443816951E+02  0.43400730749E+02  0.00000000000E+00 0. -1.
         11    1    3    3    0    0  0.15446342275E+02  0.76921847038E+01 -0.12152623983E+02  0.21105579005E+02  0.51100000000E-03 0. -1.
        -11    1    3    3    0    0  0.37199438793E+01  0.31976206507E+01 -0.14827749132E+02  0.15618095431E+02  0.51100000000E-03 0.  1.
         12    1    3    3    0    0  0.14244792605E+01 -0.33000503289E+01 -0.10463443835E+02  0.11063594815E+02  0.00000000000E+00 0. -1.
</event>
<event>
 7    1  0.5031164E-009  0.4778724E+02  0.7816164E-02  0.1312668E+00
        -11   -1    0    0    0    0  0.00000000000E+00  0.00000000000E+00  0.45593999997E+02  0.45594000000E+02  0.51100000000E-03 0. -1.
         11   -1    0    0    0    0 -0.00000000000E+00 -0.00000000000E+00 -0.45593999997E+02  0.45594000000E+02  0.51100000000E-03 0.  1.
    9900012    2    1    2    0    0  0.12734024242E+02  0.33478927491E+02 -0.24507796407E+02  0.47787239130E+02  0.19999854488E+02 0.  0.
         12    1    1    2    0    0 -0.12734024242E+02 -0.33478927491E+02  0.24507796407E+02  0.43400760870E+02  0.00000000000E+00 0. -1.
         11    1    3    3    0    0 -0.27466317515E+01  0.14493529506E+02 -0.78553270567E+01  0.16712646318E+02  0.51100000000E-03 0. -1.
        -11    1    3    3    0    0  0.67201791605E+00  0.31441079036E+01 -0.62391559644E+01  0.70188382228E+01  0.51100000000E-03 0.  1.
         12    1    3    3    0    0  0.14808638078E+02  0.15841290082E+02 -0.10413313386E+02  0.24055754589E+02  0.00000000000E+00 0. -1.
</event>
<event>
 7    1  0.5031164E-009  0.4778727E+02  0.7816164E-02  0.1312668E+00
        -11   -1    0    0    0    0  0.00000000000E+00  0.00000000000E+00  0.45593999997E+02  0.45594000000E+02  0.51100000000E-03 0. -1.
         11   -1    0    0    0    0 -0.00000000000E+00 -0.00000000000E+00 -0.45593999997E+02  0.45594000000E+02  0.51100000000E-03 0.  1.
    9900012    2    1    2    0    0 -0.28881400977E+02  0.30019423971E+02 -0.12178747057E+02  0.47787273994E+02  0.20000013450E+02 0.  0.
         12    1    1    2    0    0  0.28881400977E+02 -0.30019423971E+02  0.12178747057E+02  0.43400726006E+02  0.00000000000E+00 0. -1.
         11    1    3    3    0    0  0.71794410794E+00  0.25916474448E+01  0.18542734626E+01  0.32665594370E+01  0.51100000000E-03 0. -1.
        -11    1    3    3    0    0 -0.25922323590E+02  0.27421981667E+02 -0.99474692097E+01  0.39024147432E+02  0.51100000000E-03 0.  1.
        -12    1    3    3    0    0 -0.36770214953E+01  0.57948587768E-02 -0.40855513101E+01  0.54965671255E+01  0.00000000000E+00 0.  1.
</event>
<event>
 7    1  0.5031164E-009  0.4778727E+02  0.7816164E-02  0.1312668E+00
        -11   -1    0    0    0    0  0.00000000000E+00  0.00000000000E+00  0.45593999997E+02  0.45594000000E+02  0.51100000000E-03 0. -1.
         11   -1    0    0    0    0 -0.00000000000E+00 -0.00000000000E+00 -0.45593999997E+02  0.45594000000E+02  0.51100000000E-03 0.  1.
    9900012    2    1    2    0    0 -0.36485558840E+02  0.44078458123E+00 -0.23499633470E+02  0.47787273415E+02  0.20000010808E+02 0.  0.
         12    1    1    2    0    0  0.36485558840E+02 -0.44078458123E+00  0.23499633470E+02  0.43400726585E+02  0.00000000000E+00 0. -1.
         11    1    3    3    0    0 -0.10646581269E+02 -0.23844979750E+01 -0.16849768998E+02  0.20073620472E+02  0.51100000000E-03 0. -1.
        -11    1    3    3    0    0 -0.10520134170E+02 -0.13393719163E+01 -0.28073683070E+00  0.10608767766E+02  0.51100000000E-03 0.  1.
         12    1    3    3    0    0 -0.15318843401E+02  0.41646544725E+01 -0.63691276414E+01  0.17104885177E+02  0.00000000000E+00 0. -1.
</event>
<event>
 7    1  0.5031164E-009  0.4778727E+02  0.7816164E-02  0.1312668E+00
        -11   -1    0    0    0    0  0.00000000000E+00  0.00000000000E+00  0.45593999997E+02  0.45594000000E+02  0.51100000000E-03 0.  1.
         11   -1    0    0    0    0 -0.00000000000E+00 -0.00000000000E+00 -0.45593999997E+02  0.45594000000E+02  0.51100000000E-03 0. -1.
    9900012    2    1    2    0    0  0.17985044678E+02  0.18665970229E+02  0.34810101570E+02  0.47787269039E+02  0.19999990855E+02 0.  0.
         12    1    1    2    0    0 -0.17985044678E+02 -0.18665970229E+02 -0.34810101570E+02  0.43400730961E+02  0.00000000000E+00 0. -1.
         11    1    3    3    0    0  0.61940782849E+01 -0.10151097597E+01  0.27251582584E+01  0.68427729334E+01  0.51100000000E-03 0. -1.
        -11    1    3    3    0    0  0.13892266563E+02  0.18037105291E+02  0.28583299118E+02  0.36542266299E+02  0.51100000000E-03 0.  1.
         12    1    3    3    0    0 -0.21013001698E+01  0.16439746978E+01  0.35016441934E+01  0.44022298064E+01  0.00000000000E+00 0. -1.
</event>
<event>
 7    1  0.5031164E-009  0.4778728E+02  0.7816164E-02  0.1312668E+00
        -11   -1    0    0    0    0  0.00000000000E+00  0.00000000000E+00  0.45593999997E+02  0.45594000000E+02  0.51100000000E-03 0. -1.
         11   -1    0    0    0    0 -0.00000000000E+00 -0.00000000000E+00 -0.45593999997E+02  0.45594000000E+02  0.51100000000E-03 0.  1.
    9900012    2    1    2    0    0 -0.43360500229E+02 -0.88003667626E+00 -0.16477947617E+01  0.47787277976E+02  0.20000031603E+02 0.  0.
         12    1    1    2    0    0  0.43360500229E+02  0.88003667626E+00  0.16477947617E+01  0.43400722024E+02  0.00000000000E+00 0. -1.
         11    1    3    3    0    0 -0.63002049894E+01  0.87850942716E+00  0.62752991543E+01  0.89355325224E+01  0.51100000000E-03 0.  1.
        -11    1    3    3    0    0 -0.62799090358E+01 -0.15062660349E+01  0.15579083946E+01  0.66432803413E+01  0.51100000000E-03 0. -1.
         12    1    3    3    0    0 -0.30780386203E+02 -0.25228006852E+00 -0.94810023105E+01  0.32208465112E+02  0.00000000000E+00 0. -1.
</event>
<event>
 7    1  0.5031164E-009  0.4778727E+02  0.7816164E-02  0.1312668E+00
        -11   -1    0    0    0    0  0.00000000000E+00  0.00000000000E+00  0.45593999997E+02  0.45594000000E+02  0.51100000000E-03 0. -1.
         11   -1    0    0    0    0 -0.00000000000E+00 -0.00000000000E+00 -0.45593999997E+02  0.45594000000E+02  0.51100000000E-03 0.  1.
    9900012    2    1    2    0    0  0.23101838661E+02  0.12163955284E+02 -0.34669385168E+02  0.47787273905E+02  0.20000013042E+02 0.  0.
         12    1    1    2    0    0 -0.23101838661E+02 -0.12163955284E+02  0.34669385168E+02  0.43400726095E+02  0.00000000000E+00 0. -1.
         11    1    3    3    0    0 -0.21809257729E+01 -0.13025858638E+01 -0.74125823062E+00  0.26462485115E+01  0.51100000000E-03 0. -1.
        -11    1    3    3    0    0  0.17770002819E+01  0.77910137842E+00 -0.67930824938E+01  0.70647504548E+01  0.51100000000E-03 0.  1.
         12    1    3    3    0    0  0.23505764152E+02  0.12687439769E+02 -0.27135044443E+02  0.38076274939E+02  0.00000000000E+00 0. -1.
</event>
<event>
 7    1  0.6669451E-009  0.4778727E+02  0.7816164E-02  0.1312668E+00
        -11   -1    0    0    0    0  0.00000000000E+00  0.00000000000E+00  0.45593999997E+02  0.45594000000E+02  0.51100000000E-03 0.  1.
         11   -1    0    0    0    0 -0.00000000000E+00 -0.00000000000E+00 -0.45593999997E+02  0.45594000000E+02  0.51100000000E-03 0. -1.
    9900012    2    1    2    0    0 -0.41491408286E+02 -0.91775326519E+00 -0.12698190479E+02  0.47787271042E+02  0.19999999990E+02 0.  0.
         12    1    1    2    0    0  0.41491408286E+02  0.91775326519E+00  0.12698190479E+02  0.43400728958E+02  0.00000000000E+00 0. -1.
         11    1    3    3    0    0 -0.80896771389E+00 -0.28707853603E+01 -0.41956443705E+01  0.51477440974E+01  0.51100000000E-03 0. -1.
        -11    1    3    3    0    0 -0.27092386001E+02  0.19942013652E+01 -0.10042381414E+02  0.28962452296E+02  0.51100000000E-03 0.  1.
        -12    1    3    3    0    0 -0.13590054572E+02 -0.41169270064E-01  0.15398353063E+01  0.13677074648E+02  0.00000000000E+00 0.  1.
</event>
<event>
 7    1  0.5031164E-009  0.4778726E+02  0.7816164E-02  0.1312668E+00
        -11   -1    0    0    0    0  0.00000000000E+00  0.00000000000E+00  0.45593999997E+02  0.45594000000E+02  0.51100000000E-03 0.  1.
         11   -1    0    0    0    0 -0.00000000000E+00 -0.00000000000E+00 -0.45593999997E+02  0.45594000000E+02  0.51100000000E-03 0. -1.
    9900012    2    1    2    0    0  0.33018607104E+01 -0.41975900523E+01  0.43070893109E+02  0.47787264066E+02  0.19999968183E+02 0.  0.
         12    1    1    2    0    0 -0.33018607104E+01  0.41975900523E+01 -0.43070893109E+02  0.43400735934E+02  0.00000000000E+00 0. -1.
         11    1    3    3    0    0  0.30355689543E-02  0.12370822735E+01  0.11820341237E+01  0.17110191983E+01  0.51100000000E-03 0. -1.
        -11    1    3    3    0    0 -0.23777339020E+01 -0.42450468979E+01  0.12472994955E+01  0.50229272308E+01  0.51100000000E-03 0.  1.
        -12    1    3    3    0    0  0.56765590434E+01 -0.11896254280E+01  0.40641559490E+02  0.41053317637E+02  0.00000000000E+00 0.  1.
</event>
<event>
 7    1  0.5031164E-009  0.4778727E+02  0.7816164E-02  0.1312668E+00
        -11   -1    0    0    0    0  0.00000000000E+00  0.00000000000E+00  0.45593999997E+02  0.45594000000E+02  0.51100000000E-03 0.  1.
         11   -1    0    0    0    0 -0.00000000000E+00 -0.00000000000E+00 -0.45593999997E+02  0.45594000000E+02  0.51100000000E-03 0. -1.
    9900012    2    1    2    0    0  0.12250298037E+02 -0.15112787282E+02  0.38796352801E+02  0.47787272678E+02  0.20000007449E+02 0.  0.
         12    1    1    2    0    0 -0.12250298037E+02  0.15112787282E+02 -0.38796352801E+02  0.43400727322E+02  0.00000000000E+00 0. -1.
         11    1    3    3    0    0  0.12160074942E+02 -0.49524322551E+01  0.13215423116E+02  0.18629047647E+02  0.51100000000E-03 0. -1.
        -11    1    3    3    0    0  0.41414059508E+01 -0.21993657072E+01  0.12196300521E+02  0.13066682801E+02  0.51100000000E-03 0.  1.
         12    1    3    3    0    0 -0.40511828565E+01 -0.79609893203E+01  0.13384629164E+02  0.16091542230E+02  0.00000000000E+00 0. -1.
</event>
<event>
 7    1  0.5031164E-009  0.4778727E+02  0.7816164E-02  0.1312668E+00
        -11   -1    0    0    0    0  0.00000000000E+00  0.00000000000E+00  0.45593999997E+02  0.45594000000E+02  0.51100000000E-03 0.  1.
         11   -1    0    0    0    0 -0.00000000000E+00 -0.00000000000E+00 -0.45593999997E+02  0.45594000000E+02  0.51100000000E-03 0. -1.
    9900012    2    1    2    0    0  0.89958146946E+01 -0.18216752695E+02  0.38351639485E+02  0.47787274061E+02  0.20000013756E+02 0.  0.
         12    1    1    2    0    0 -0.89958146946E+01  0.18216752695E+02 -0.38351639485E+02  0.43400725939E+02  0.00000000000E+00 0. -1.
         11    1    3    3    0    0  0.10755888692E+02 -0.14850208091E+02  0.14274402315E+02  0.23237391928E+02  0.51100000000E-03 0. -1.
        -11    1    3    3    0    0 -0.21304203845E+01 -0.36937686149E+01  0.20509840043E+02  0.20948416561E+02  0.51100000000E-03 0.  1.
         12    1    3    3    0    0  0.37034638758E+00  0.32722401141E+00  0.35673971274E+01  0.36014655719E+01  0.00000000000E+00 0. -1.
</event>
<event>
 7    1  0.5031164E-009  0.4778728E+02  0.7816164E-02  0.1312668E+00
        -11   -1    0    0    0    0  0.00000000000E+00  0.00000000000E+00  0.45593999997E+02  0.45594000000E+02  0.51100000000E-03 0. -1.
         11   -1    0    0    0    0 -0.00000000000E+00 -0.00000000000E+00 -0.45593999997E+02  0.45594000000E+02  0.51100000000E-03 0.  1.
    9900012    2    1    2    0    0  0.41753217936E+02 -0.39749998247E+01 -0.11157556008E+02  0.47787275494E+02  0.20000020285E+02 0.  0.
         12    1    1    2    0    0 -0.41753217936E+02  0.39749998247E+01  0.11157556008E+02  0.43400724506E+02  0.00000000000E+00 0. -1.
         11    1    3    3    0    0  0.33277753733E+01 -0.12642358274E+01 -0.22794359339E+01  0.42270805056E+01  0.51100000000E-03 0. -1.
        -11    1    3    3    0    0  0.30550128003E+02 -0.58419133720E+01  0.24960661806E+00  0.31104671298E+02  0.51100000000E-03 0.  1.
        -12    1    3    3    0    0  0.78753145599E+01  0.31311493747E+01 -0.91277266924E+01  0.12455523690E+02  0.00000000000E+00 0.  1.
</event>
<event>
 7    1  0.5031164E-009  0.4778727E+02  0.7816164E-02  0.1312668E+00
        -11   -1    0    0    0    0  0.00000000000E+00  0.00000000000E+00  0.45593999997E+02  0.45594000000E+02  0.51100000000E-03 0. -1.
         11   -1    0    0    0    0 -0.00000000000E+00 -0.00000000000E+00 -0.45593999997E+02  0.45594000000E+02  0.51100000000E-03 0.  1.
    9900012    2    1    2    0    0 -0.38590886104E+02 -0.38892851195E+01 -0.19474095698E+02  0.47787269219E+02  0.19999991678E+02 0.  0.
         12    1    1    2    0    0  0.38590886104E+02  0.38892851195E+01  0.19474095698E+02  0.43400730781E+02  0.00000000000E+00 0. -1.
         11    1    3    3    0    0  0.12062825838E+01 -0.60024462525E+00  0.15077325778E+01  0.20220457635E+01  0.51100000000E-03 0. -1.
        -11    1    3    3    0    0 -0.37607818610E+02 -0.32717279517E+01 -0.17399352615E+02  0.41566689741E+02  0.51100000000E-03 0.  1.
         12    1    3    3    0    0 -0.21893500784E+01 -0.17312542601E-01 -0.35824756612E+01  0.41985337146E+01  0.00000000000E+00 0. -1.
</event>
<event>
 7    1  0.5031164E-009  0.4778727E+02  0.7816164E-02  0.1312668E+00
        -11   -1    0    0    0    0  0.00000000000E+00  0.00000000000E+00  0.45593999997E+02  0.45594000000E+02  0.51100000000E-03 0. -1.
         11   -1    0    0    0    0 -0.00000000000E+00 -0.00000000000E+00 -0.45593999997E+02  0.45594000000E+02  0.51100000000E-03 0.  1.
    9900012    2    1    2    0    0 -0.23631405460E+02 -0.33657037151E+02  0.13870242640E+02  0.47787272994E+02  0.20000008887E+02 0.  0.
         12    1    1    2    0    0  0.23631405460E+02  0.33657037151E+02 -0.13870242640E+02  0.43400727006E+02  0.00000000000E+00 0. -1.
         11    1    3    3    0    0 -0.11844726168E+02 -0.24275203912E+01  0.32117161117E+01  0.12510216381E+02  0.51100000000E-03 0. -1.
        -11    1    3    3    0    0 -0.29456358900E+01 -0.13174446463E+02  0.36147165387E+01  0.13975299150E+02  0.51100000000E-03 0.  1.
         12    1    3    3    0    0 -0.88410434016E+01 -0.18055070297E+02  0.70438099896E+01  0.21301757463E+02  0.00000000000E+00 0. -1.
</event>
<event>
 7    1  0.5031164E-009  0.4778729E+02  0.7816164E-02  0.1312668E+00
        -11   -1    0    0    0    0  0.00000000000E+00  0.00000000000E+00  0.45593999997E+02  0.45594000000E+02  0.51100000000E-03 0.  1.
         11   -1    0    0    0    0 -0.00000000000E+00 -0.00000000000E+00 -0.45593999997E+02  0.45594000000E+02  0.51100000000E-03 0. -1.
    9900012    2    1    2    0    0  0.69317087049E+01  0.38677326164E+02 -0.18429265904E+02  0.47787285876E+02  0.20000067622E+02 0.  0.
         12    1    1    2    0    0 -0.69317087049E+01 -0.38677326164E+02  0.18429265904E+02  0.43400714124E+02  0.00000000000E+00 0. -1.
         11    1    3    3    0    0  0.20936724238E+01  0.16939983462E+02 -0.13652464991E+02  0.21857179701E+02  0.51100000000E-03 0. -1.
        -11    1    3    3    0    0  0.21090878522E+01  0.68051731017E+00  0.26328863142E+01  0.34414308045E+01  0.51100000000E-03 0.  1.
        -12    1    3    3    0    0  0.27289484290E+01  0.21056825391E+02 -0.74096872269E+01  0.22488675370E+02  0.00000000000E+00 0.  1.
</event>
<event>
 7    1  0.5031164E-009  0.4778725E+02  0.7816164E-02  0.1312668E+00
        -11   -1    0    0    0    0  0.00000000000E+00  0.00000000000E+00  0.45593999997E+02  0.45594000000E+02  0.51100000000E-03 0.  1.
         11   -1    0    0    0    0 -0.00000000000E+00 -0.00000000000E+00 -0.45593999997E+02  0.45594000000E+02  0.51100000000E-03 0. -1.
    9900012    2    1    2    0    0 -0.12019861716E+02 -0.16331890008E+02  0.38372089101E+02  0.47787251978E+02  0.19999913067E+02 0.  0.
         12    1    1    2    0    0  0.12019861716E+02  0.16331890008E+02 -0.38372089101E+02  0.43400748022E+02  0.00000000000E+00 0. -1.
         11    1    3    3    0    0 -0.14412649780E+02 -0.17339699691E+02  0.33054000510E+02  0.40011955826E+02  0.51100000000E-03 0. -1.
        -11    1    3    3    0    0  0.39562129731E+01  0.45525252987E+00  0.41164414421E+01  0.57274746932E+01  0.51100000000E-03 0.  1.
         12    1    3    3    0    0 -0.15634249091E+01  0.55255715333E+00  0.12016471493E+01  0.20478214584E+01  0.00000000000E+00 0. -1.
</event>
<event>
 7    1  0.5031164E-009  0.4778727E+02  0.7816164E-02  0.1312668E+00
        -11   -1    0    0    0    0  0.00000000000E+00  0.00000000000E+00  0.45593999997E+02  0.45594000000E+02  0.51100000000E-03 0. -1.
         11   -1    0    0    0    0 -0.00000000000E+00 -0.00000000000E+00 -0.45593999997E+02  0.45594000000E+02  0.51100000000E-03 0.  1.
    9900012    2    1    2    0    0  0.18594070326E+02 -0.38644329813E+02  0.66707828633E+01  0.47787273946E+02  0.20000013231E+02 0.  0.
         12    1    1    2    0    0 -0.18594070326E+02  0.38644329813E+02 -0.66707828633E+01  0.43400726054E+02  0.00000000000E+00 0. -1.
         11    1    3    3    0    0  0.34462918340E+01 -0.14443104141E+02  0.10847990669E+02  0.18389102383E+02  0.51100000000E-03 0. -1.
        -11    1    3    3    0    0  0.48348656421E+01 -0.12086677441E+02 -0.34718763456E+01  0.13472847619E+02  0.51100000000E-03 0.  1.
         12    1    3    3    0    0  0.10312912849E+02 -0.12114548231E+02 -0.70533145964E+00  0.15925323945E+02  0.00000000000E+00 0. -1.
</event>
<event>
 7    1  0.5031164E-009  0.4778726E+02  0.7816164E-02  0.1312668E+00
        -11   -1    0    0    0    0  0.00000000000E+00  0.00000000000E+00  0.45593999997E+02  0.45594000000E+02  0.51100000000E-03 0.  1.
         11   -1    0    0    0    0 -0.00000000000E+00 -0.00000000000E+00 -0.45593999997E+02  0.45594000000E+02  0.51100000000E-03 0. -1.
    9900012    2    1    2    0    0 -0.12837421735E+02 -0.32721238039E+02  0.25458697037E+02  0.47787261867E+02  0.19999958157E+02 0.  0.
         12    1    1    2    0    0  0.12837421735E+02  0.32721238039E+02 -0.25458697037E+02  0.43400738133E+02  0.00000000000E+00 0. -1.
         11    1    3    3    0    0 -0.23234574609E+00  0.39079698867E+00  0.26931962153E+01  0.27313024270E+01  0.51100000000E-03 0. -1.
        -11    1    3    3    0    0 -0.13619334902E+02 -0.15925554436E+02  0.16723439619E+02  0.26810128688E+02  0.51100000000E-03 0.  1.
        -12    1    3    3    0    0  0.10142589131E+01 -0.17186480592E+02  0.60420612026E+01  0.18245830753E+02  0.00000000000E+00 0.  1.
</event>
<event>
 7    1  0.5031164E-009  0.4778727E+02  0.7816164E-02  0.1312668E+00
        -11   -1    0    0    0    0  0.00000000000E+00  0.00000000000E+00  0.45593999997E+02  0.45594000000E+02  0.51100000000E-03 0.  1.
         11   -1    0    0    0    0 -0.00000000000E+00 -0.00000000000E+00 -0.45593999997E+02  0.45594000000E+02  0.51100000000E-03 0. -1.
    9900012    2    1    2    0    0 -0.42747649511E+02 -0.64950588274E+01 -0.37518054856E+01  0.47787269911E+02  0.19999994831E+02 0.  0.
         12    1    1    2    0    0  0.42747649511E+02  0.64950588274E+01  0.37518054856E+01  0.43400730089E+02  0.00000000000E+00 0. -1.
         11    1    3    3    0    0 -0.18047365700E+01 -0.11263908539E+01  0.37054669027E+00  0.21594294510E+01  0.51100000000E-03 0. -1.
        -11    1    3    3    0    0 -0.42247628018E+02 -0.27265620482E+01 -0.47924557247E+01  0.42605913274E+02  0.51100000000E-03 0.  1.
        -12    1    3    3    0    0  0.13047150769E+01 -0.26421059253E+01  0.67010354885E+00  0.30219271862E+01  0.00000000000E+00 0.  1.
</event>
<event>
 7    1  0.5031164E-009  0.4778727E+02  0.7816164E-02  0.1312668E+00
        -11   -1    0    0    0    0  0.00000000000E+00  0.00000000000E+00  0.45593999997E+02  0.45594000000E+02  0.51100000000E-03 0.  1.
         11   -1    0    0    0    0 -0.00000000000E+00 -0.00000000000E+00 -0.45593999997E+02  0.45594000000E+02  0.51100000000E-03 0. -1.
    9900012    2    1    2    0    0 -0.33854121220E+02  0.27148671635E+02 -0.68661609534E+00  0.47787270320E+02  0.19999996696E+02 0.  0.
         12    1    1    2    0    0  0.33854121220E+02 -0.27148671635E+02  0.68661609534E+00  0.43400729680E+02  0.00000000000E+00 0. -1.
         11    1    3    3    0    0 -0.58392759175E+01  0.14101059823E+02  0.48128207082E+01  0.16003133281E+02  0.51100000000E-03 0. -1.
        -11    1    3    3    0    0 -0.23808783798E+02  0.11124571571E+02 -0.27978557336E+01  0.26428058490E+02  0.51100000000E-03 0.  1.
         12    1    3    3    0    0 -0.42060615042E+01  0.19230402407E+01 -0.27015810699E+01  0.53560785488E+01  0.00000000000E+00 0. -1.
</event>
<event>
 7    1  0.5031164E-009  0.4778727E+02  0.7816164E-02  0.1312668E+00
        -11   -1    0    0    0    0  0.00000000000E+00  0.00000000000E+00  0.45593999997E+02  0.45594000000E+02  0.51100000000E-03 0. -1.
         11   -1    0    0    0    0 -0.00000000000E+00 -0.00000000000E+00 -0.45593999997E+02  0.45594000000E+02  0.51100000000E-03 0.  1.
    9900012    2    1    2    0    0  0.29194524553E+02  0.28818427246E+02 -0.14170433479E+02  0.47787271921E+02  0.20000003996E+02 0.  0.
         12    1    1    2    0    0 -0.29194524553E+02 -0.28818427246E+02  0.14170433479E+02  0.43400728079E+02  0.00000000000E+00 0. -1.
         11    1    3    3    0    0  0.24604507104E+02  0.14706686643E+02 -0.75595505596E+01  0.29644817537E+02  0.51100000000E-03 0. -1.
        -11    1    3    3    0    0  0.72562844337E+00  0.79197796155E+01  0.47848993063E+00  0.79673332220E+01  0.51100000000E-03 0.  1.
         12    1    3    3    0    0  0.38643890058E+01  0.61919609876E+01 -0.70893728499E+01  0.10175121162E+02  0.00000000000E+00 0. -1.
</event>
<event>
 7    1  0.5031164E-009  0.4778727E+02  0.7816164E-02  0.1312668E+00
        -11   -1    0    0    0    0  0.00000000000E+00  0.00000000000E+00  0.45593999997E+02  0.45594000000E+02  0.51100000000E-03 0.  1.
         11   -1    0    0    0    0 -0.00000000000E+00 -0.00000000000E+00 -0.45593999997E+02  0.45594000000E+02  0.51100000000E-03 0. -1.
    9900012    2    1    2    0    0 -0.41932268068E+02 -0.10627642054E+02  0.35159513647E+01  0.47787265041E+02  0.19999972630E+02 0.  0.
         12    1    1    2    0    0  0.41932268068E+02  0.10627642054E+02 -0.35159513647E+01  0.43400734959E+02  0.00000000000E+00 0. -1.
         11    1    3    3    0    0 -0.22792315250E+01 -0.68342177046E+01  0.23258714293E+01  0.75704099060E+01  0.51100000000E-03 0. -1.
        -11    1    3    3    0    0 -0.14429568205E+02  0.95012798385E+00 -0.73217829650E+00  0.14479339319E+02  0.51100000000E-03 0.  1.
        -12    1    3    3    0    0 -0.25223468337E+02 -0.47435523333E+01  0.19222582320E+01  0.25737515817E+02  0.00000000000E+00 0.  1.
</event>
<event>
 7    1  0.5031164E-009  0.4778726E+02  0.7816164E-02  0.1312668E+00
        -11   -1    0    0    0    0  0.00000000000E+00  0.00000000000E+00  0.45593999997E+02  0.45594000000E+02  0.51100000000E-03 0. -1.
         11   -1    0    0    0    0 -0.00000000000E+00 -0.00000000000E+00 -0.45593999997E+02  0.45594000000E+02  0.51100000000E-03 0.  1.
    9900012    2    1    2    0    0  0.16852862269E+02 -0.11192718402E+02 -0.38396983893E+02  0.47787259408E+02  0.19999946943E+02 0.  0.
         12    1    1    2    0    0 -0.16852862269E+02  0.11192718402E+02  0.38396983893E+02  0.43400740592E+02  0.00000000000E+00 0. -1.
         11    1    3    3    0    0  0.11359740286E+01 -0.48437895544E+01 -0.21935826870E+02  0.22492959676E+02  0.51100000000E-03 0. -1.
        -11    1    3    3    0    0  0.93406770195E+01 -0.78661329311E+01 -0.80300071177E+01  0.14615242353E+02  0.51100000000E-03 0.  1.
        -12    1    3    3    0    0  0.63762112211E+01  0.15172040837E+01 -0.84311499056E+01  0.10679057379E+02  0.00000000000E+00 0.  1.
</event>
<event>
 7    1  0.5031164E-009  0.4778727E+02  0.7816164E-02  0.1312668E+00
        -11   -1    0    0    0    0  0.00000000000E+00  0.00000000000E+00  0.45593999997E+02  0.45594000000E+02  0.51100000000E-03 0. -1.
         11   -1    0    0    0    0 -0.00000000000E+00 -0.00000000000E+00 -0.45593999997E+02  0.45594000000E+02  0.51100000000E-03 0.  1.
    9900012    2    1    2    0    0 -0.14860204820E+02  0.19976930391E+02 -0.35548838407E+02  0.47787270200E+02  0.19999996149E+02 0.  0.
         12    1    1    2    0    0  0.14860204820E+02 -0.19976930391E+02  0.35548838407E+02  0.43400729800E+02  0.00000000000E+00 0. -1.
         11    1    3    3    0    0 -0.13709287153E+02  0.34378491911E+01 -0.11015257024E+02  0.17919242419E+02  0.51100000000E-03 0. -1.
        -11    1    3    3    0    0  0.50899886199E+00  0.12977511902E+02 -0.20232906330E+02  0.24042574610E+02  0.51100000000E-03 0.  1.
         12    1    3    3    0    0 -0.16599165284E+01  0.35615692973E+01 -0.43006750524E+01  0.58254531710E+01  0.00000000000E+00 0. -1.
</event>
<event>
 7    1  0.5031164E-009  0.4778727E+02  0.7816164E-02  0.1312668E+00
        -11   -1    0    0    0    0  0.00000000000E+00  0.00000000000E+00  0.45593999997E+02  0.45594000000E+02  0.51100000000E-03 0. -1.
         11   -1    0    0    0    0 -0.00000000000E+00 -0.00000000000E+00 -0.45593999997E+02  0.45594000000E+02  0.51100000000E-03 0.  1.
    9900012    2    1    2    0    0  0.22329101548E+02  0.22119126185E+02 -0.29929564001E+02  0.47787270508E+02  0.19999997554E+02 0.  0.
         12    1    1    2    0    0 -0.22329101548E+02 -0.22119126185E+02  0.29929564001E+02  0.43400729492E+02  0.00000000000E+00 0. -1.
         11    1    3    3    0    0  0.11046480842E+02  0.13943787844E+01 -0.13282373997E+02  0.17331776898E+02  0.51100000000E-03 0. -1.
        -11    1    3    3    0    0  0.10955939385E+02  0.16865207216E+02 -0.17298889554E+02  0.26527710084E+02  0.51100000000E-03 0.  1.
         12    1    3    3    0    0  0.32668132026E+00  0.38595401845E+01  0.65169954911E+00  0.39277835255E+01  0.00000000000E+00 0. -1.
</event>
<event>
 7    1  0.5031164E-009  0.4778727E+02  0.7816164E-02  0.1312668E+00
        -11   -1    0    0    0    0  0.00000000000E+00  0.00000000000E+00  0.45593999997E+02  0.45594000000E+02  0.51100000000E-03 0.  1.
         11   -1    0    0    0    0 -0.00000000000E+00 -0.00000000000E+00 -0.45593999997E+02  0.45594000000E+02  0.51100000000E-03 0. -1.
    9900012    2    1    2    0    0 -0.16396993468E+02  0.38900776148E+02  0.10074301927E+02  0.47787270294E+02  0.19999996579E+02 0.  0.
         12    1    1    2    0    0  0.16396993468E+02 -0.38900776148E+02 -0.10074301927E+02  0.43400729706E+02  0.00000000000E+00 0. -1.
         11    1    3    3    0    0 -0.40722765693E+01  0.75020585818E+00  0.31712716591E+01  0.52156696103E+01  0.51100000000E-03 0. -1.
        -11    1    3    3    0    0 -0.12487617852E+02  0.37946327776E+02  0.85926202069E+01  0.40861932328E+02  0.51100000000E-03 0.  1.
        -12    1    3    3    0    0  0.16290095303E+00  0.20424251370E+00 -0.16895899390E+01  0.17096683558E+01  0.00000000000E+00 0.  1.
</event>
<event>
 7    1  0.5031164E-009  0.4778727E+02  0.7816164E-02  0.1312668E+00
        -11   -1    0    0    0    0  0.00000000000E+00  0.00000000000E+00  0.45593999997E+02  0.45594000000E+02  0.51100000000E-03 0.  1.
         11   -1    0    0    0    0 -0.00000000000E+00 -0.00000000000E+00 -0.45593999997E+02  0.45594000000E+02  0.51100000000E-03 0. -1.
    9900012    2    1    2    0    0 -0.34878863327E+02 -0.16437458539E+02  0.19922297682E+02  0.47787273103E+02  0.20000009388E+02 0.  0.
         12    1    1    2    0    0  0.34878863327E+02  0.16437458539E+02 -0.19922297682E+02  0.43400726897E+02  0.00000000000E+00 0. -1.
         11    1    3    3    0    0 -0.21682513809E+01  0.21225237732E+01 -0.37140375780E+00  0.30568549575E+01  0.51100000000E-03 0. -1.
        -11    1    3    3    0    0 -0.33535386525E+02 -0.17813193056E+02  0.17674323096E+02  0.41884528091E+02  0.51100000000E-03 0.  1.
        -12    1    3    3    0    0  0.82477457833E+00 -0.74678925544E+00  0.26193783438E+01  0.28458900550E+01  0.00000000000E+00 0.  1.
</event>
<event>
 7    1  0.5031164E-009  0.4778727E+02  0.7816164E-02  0.1312668E+00
        -11   -1    0    0    0    0  0.00000000000E+00  0.00000000000E+00  0.45593999997E+02  0.45594000000E+02  0.51100000000E-03 0.  1.
         11   -1    0    0    0    0 -0.00000000000E+00 -0.00000000000E+00 -0.45593999997E+02  0.45594000000E+02  0.51100000000E-03 0. -1.
    9900012    2    1    2    0    0  0.19404983996E+02 -0.13428166710E+02  0.36424634528E+02  0.47787273444E+02  0.20000010941E+02 0.  0.
         12    1    1    2    0    0 -0.19404983996E+02  0.13428166710E+02 -0.36424634528E+02  0.43400726556E+02  0.00000000000E+00 0. -1.
         11    1    3    3    0    0 -0.27560523337E+00  0.66204836767E+00 -0.16472028805E+01  0.17965366338E+01  0.51100000000E-03 0. -1.
        -11    1    3    3    0    0  0.20070833218E+02 -0.12135760229E+02  0.32548536976E+02  0.40118851952E+02  0.51100000000E-03 0.  1.
         12    1    3    3    0    0 -0.39024398841E+00 -0.19544548479E+01  0.55233004329E+01  0.58718848588E+01  0.00000000000E+00 0. -1.
</event>
<event>
 7    1  0.5031164E-009  0.4778727E+02  0.7816164E-02  0.1312668E+00
        -11   -1    0    0    0    0  0.00000000000E+00  0.00000000000E+00  0.45593999997E+02  0.45594000000E+02  0.51100000000E-03 0.  1.
         11   -1    0    0    0    0 -0.00000000000E+00 -0.00000000000E+00 -0.45593999997E+02  0.45594000000E+02  0.51100000000E-03 0. -1.
    9900012    2    1    2    0    0 -0.34718690438E+01 -0.13175604577E+02  0.41206466385E+02  0.47787270714E+02  0.19999998492E+02 0.  0.
         12    1    1    2    0    0  0.34718690438E+01  0.13175604577E+02 -0.41206466385E+02  0.43400729286E+02  0.00000000000E+00 0. -1.
         11    1    3    3    0    0 -0.11158072852E+02 -0.92473791101E+01  0.24159414925E+02  0.28172574252E+02  0.51100000000E-03 0. -1.
        -11    1    3    3    0    0  0.23942656471E+01  0.62636038256E+00  0.66050529798E+01  0.70534786060E+01  0.51100000000E-03 0.  1.
         12    1    3    3    0    0  0.52919381614E+01 -0.45545858494E+01  0.10441998481E+02  0.12561217856E+02  0.00000000000E+00 0. -1.
</event>
<event>
 7    1  0.6819314E-009  0.4778724E+02  0.7816164E-02  0.1312668E+00
        -11   -1    0    0    0    0  0.00000000000E+00  0.00000000000E+00  0.45593999997E+02  0.45594000000E+02  0.51100000000E-03 0. -1.
         11   -1    0    0    0    0 -0.00000000000E+00 -0.00000000000E+00 -0.45593999997E+02  0.45594000000E+02  0.51100000000E-03 0.  1.
    9900012    2    1    2    0    0  0.24988991021E+02  0.40522573040E+01 -0.35252733777E+02  0.47787243091E+02  0.19999872550E+02 0.  0.
         12    1    1    2    0    0 -0.24988991021E+02 -0.40522573040E+01  0.35252733777E+02  0.43400756909E+02  0.00000000000E+00 0. -1.
         11    1    3    3    0    0  0.17316327781E+01 -0.15334194335E+01 -0.16936359627E+01  0.28667630304E+01  0.51100000000E-03 0. -1.
        -11    1    3    3    0    0  0.25984184243E+01  0.12972477994E+01 -0.19153453952E+02  0.19372388307E+02  0.51100000000E-03 0.  1.
        -12    1    3    3    0    0  0.20658939819E+02  0.42884289382E+01 -0.14405643862E+02  0.25548091754E+02  0.00000000000E+00 0.  1.
</event>
<event>
 7    1  0.5031164E-009  0.4778728E+02  0.7816164E-02  0.1312668E+00
        -11   -1    0    0    0    0  0.00000000000E+00  0.00000000000E+00  0.45593999997E+02  0.45594000000E+02  0.51100000000E-03 0.  1.
         11   -1    0    0    0    0 -0.00000000000E+00 -0.00000000000E+00 -0.45593999997E+02  0.45594000000E+02  0.51100000000E-03 0. -1.
    9900012    2    1    2    0    0  0.35863932115E+02  0.57835713559E+01  0.23747663219E+02  0.47787276127E+02  0.20000023171E+02 0.  0.
         12    1    1    2    0    0 -0.35863932115E+02 -0.57835713559E+01 -0.23747663219E+02  0.43400723873E+02  0.00000000000E+00 0. -1.
         11    1    3    3    0    0  0.87970597529E+01  0.45601029526E+01  0.15544912596E+02  0.18434400102E+02  0.51100000000E-03 0. -1.
        -11    1    3    3    0    0  0.19439928256E+02  0.17622358395E+01  0.93116940645E+01  0.21626926096E+02  0.51100000000E-03 0.  1.
         12    1    3    3    0    0  0.76269441057E+01 -0.53876743615E+00 -0.11089434411E+01  0.77259499285E+01  0.00000000000E+00 0. -1.
</event>
<event>
 7    1  0.5031164E-009  0.4778727E+02  0.7816164E-02  0.1312668E+00
        -11   -1    0    0    0    0  0.00000000000E+00  0.00000000000E+00  0.45593999997E+02  0.45594000000E+02  0.51100000000E-03 0.  1.
         11   -1    0    0    0    0 -0.00000000000E+00 -0.00000000000E+00 -0.45593999997E+02  0.45594000000E+02  0.51100000000E-03 0. -1.
    9900012    2    1    2    0    0  0.42752085690E+02  0.30191776127E+01  0.68386267399E+01  0.47787273278E+02  0.20000010184E+02 0.  0.
         12    1    1    2    0    0 -0.42752085690E+02 -0.30191776127E+01 -0.68386267399E+01  0.43400726722E+02  0.00000000000E+00 0. -1.
         11    1    3    3    0    0  0.85735456114E+01  0.65362820991E+01  0.24139577714E+01  0.11047889410E+02  0.51100000000E-03 0.  1.
        -11    1    3    3    0    0  0.21843707490E+02 -0.69120998394E+01  0.64140550457E+01  0.23792115994E+02  0.51100000000E-03 0. -1.
         12    1    3    3    0    0  0.12334832589E+02  0.33949953530E+01 -0.19893860772E+01  0.12947267874E+02  0.00000000000E+00 0. -1.
</event>
<event>
 7    1  0.5031164E-009  0.4778727E+02  0.7816164E-02  0.1312668E+00
        -11   -1    0    0    0    0  0.00000000000E+00  0.00000000000E+00  0.45593999997E+02  0.45594000000E+02  0.51100000000E-03 0. -1.
         11   -1    0    0    0    0 -0.00000000000E+00 -0.00000000000E+00 -0.45593999997E+02  0.45594000000E+02  0.51100000000E-03 0.  1.
    9900012    2    1    2    0    0  0.55340672779E+01  0.34416212407E+02  0.25855785934E+02  0.47787271396E+02  0.20000001604E+02 0.  0.
         12    1    1    2    0    0 -0.55340672779E+01 -0.34416212407E+02 -0.25855785934E+02  0.43400728604E+02  0.00000000000E+00 0. -1.
         11    1    3    3    0    0  0.15842458272E+01  0.68985441432E+01 -0.74954222052E+00  0.71176934423E+01  0.51100000000E-03 0. -1.
        -11    1    3    3    0    0  0.13873569397E+00  0.24308545202E+02  0.26091694520E+02  0.35660918954E+02  0.51100000000E-03 0.  1.
        -12    1    3    3    0    0  0.38110857567E+01  0.32091230622E+01  0.51363363393E+00  0.50086590005E+01  0.00000000000E+00 0.  1.
</event>
<event>
 7    1  0.5031164E-009  0.4778727E+02  0.7816164E-02  0.1312668E+00
        -11   -1    0    0    0    0  0.00000000000E+00  0.00000000000E+00  0.45593999997E+02  0.45594000000E+02  0.51100000000E-03 0. -1.
         11   -1    0    0    0    0 -0.00000000000E+00 -0.00000000000E+00 -0.45593999997E+02  0.45594000000E+02  0.51100000000E-03 0.  1.
    9900012    2    1    2    0    0  0.13079461698E+02  0.23777287791E+02  0.33870215353E+02  0.47787271653E+02  0.20000002775E+02 0.  0.
         12    1    1    2    0    0 -0.13079461698E+02 -0.23777287791E+02 -0.33870215353E+02  0.43400728347E+02  0.00000000000E+00 0. -1.
         11    1    3    3    0    0  0.10548109081E+02  0.22936697628E+02  0.30248433798E+02  0.39399523484E+02  0.51100000000E-03 0. -1.
        -11    1    3    3    0    0 -0.10620876601E+01  0.25085229050E+01 -0.38728064938E+00  0.27514912184E+01  0.51100000000E-03 0.  1.
         12    1    3    3    0    0  0.35934402770E+01 -0.16679327421E+01  0.40090622044E+01  0.56362569508E+01  0.00000000000E+00 0. -1.
</event>
<event>
 7    1  0.5031164E-009  0.4778727E+02  0.7816164E-02  0.1312668E+00
        -11   -1    0    0    0    0  0.00000000000E+00  0.00000000000E+00  0.45593999997E+02  0.45594000000E+02  0.51100000000E-03 0.  1.
         11   -1    0    0    0    0 -0.00000000000E+00 -0.00000000000E+00 -0.45593999997E+02  0.45594000000E+02  0.51100000000E-03 0. -1.
    9900012    2    1    2    0    0 -0.21398140040E+02  0.66873244297E+01  0.37162112117E+02  0.47787270949E+02  0.19999999563E+02 0.  0.
         12    1    1    2    0    0  0.21398140040E+02 -0.66873244297E+01 -0.37162112117E+02  0.43400729051E+02  0.00000000000E+00 0. -1.
         11    1    3    3    0    0 -0.12558317455E+02  0.40150982557E+01  0.30836869362E+02  0.33537216098E+02  0.51100000000E-03 0.  1.
        -11    1    3    3    0    0  0.10471694882E+01 -0.15556191312E+00 -0.11300418523E+01  0.15484696622E+01  0.51100000000E-03 0. -1.
         12    1    3    3    0    0 -0.98869920731E+01  0.28277880872E+01  0.74552846068E+01  0.12701585188E+02  0.00000000000E+00 0. -1.
</event>
<event>
 7    1  0.5031164E-009  0.4778727E+02  0.7816164E-02  0.1312668E+00
        -11   -1    0    0    0    0  0.00000000000E+00  0.00000000000E+00  0.45593999997E+02  0.45594000000E+02  0.51100000000E-03 0.  1.
         11   -1    0    0    0    0 -0.00000000000E+00 -0.00000000000E+00 -0.45593999997E+02  0.45594000000E+02  0.51100000000E-03 0. -1.
    9900012    2    1    2    0    0  0.23069274720E+02 -0.35747757783E+02  0.85749499661E+01  0.47787269711E+02  0.19999993922E+02 0.  0.
         12    1    1    2    0    0 -0.23069274720E+02  0.35747757783E+02 -0.85749499661E+01  0.43400730289E+02  0.00000000000E+00 0. -1.
         11    1    3    3    0    0  0.65034924784E+01 -0.21466332953E+02  0.20367419901E+01  0.22522148722E+02  0.51100000000E-03 0.  1.
        -11    1    3    3    0    0  0.12934160171E+02 -0.42899825066E+01  0.22966364363E+01  0.13819225319E+02  0.51100000000E-03 0. -1.
         12    1    3    3    0    0  0.36316220711E+01 -0.99914423241E+01  0.42415715398E+01  0.11445895671E+02  0.00000000000E+00 0. -1.
</event>
<event>
 7    1  0.5031164E-009  0.4778728E+02  0.7816164E-02  0.1312668E+00
        -11   -1    0    0    0    0  0.00000000000E+00  0.00000000000E+00  0.45593999997E+02  0.45594000000E+02  0.51100000000E-03 0.  1.
         11   -1    0    0    0    0 -0.00000000000E+00 -0.00000000000E+00 -0.45593999997E+02  0.45594000000E+02  0.51100000000E-03 0. -1.
    9900012    2    1    2    0    0  0.19114019246E+02  0.16208590342E+02  0.35433859030E+02  0.47787279979E+02  0.20000040738E+02 0.  0.
         12    1    1    2    0    0 -0.19114019246E+02 -0.16208590342E+02 -0.35433859030E+02  0.43400720021E+02  0.00000000000E+00 0. -1.
         11    1    3    3    0    0 -0.24307025901E+01  0.41299963217E+01  0.86086098569E+00  0.48689081524E+01  0.51100000000E-03 0. -1.
        -11    1    3    3    0    0  0.17412151320E+02  0.67510554565E+01  0.24797054974E+02  0.31042772090E+02  0.51100000000E-03 0.  1.
         12    1    3    3    0    0  0.41325705157E+01  0.53275385637E+01  0.97759430695E+01  0.11875599737E+02  0.00000000000E+00 0. -1.
</event>
<event>
 7    1  0.5031164E-009  0.4778727E+02  0.7816164E-02  0.1312668E+00
        -11   -1    0    0    0    0  0.00000000000E+00  0.00000000000E+00  0.45593999997E+02  0.45594000000E+02  0.51100000000E-03 0.  1.
         11   -1    0    0    0    0 -0.00000000000E+00 -0.00000000000E+00 -0.45593999997E+02  0.45594000000E+02  0.51100000000E-03 0. -1.
    9900012    2    1    2    0    0 -0.38343614940E+02 -0.52237490460E+01  0.19649496049E+02  0.47787273557E+02  0.20000011457E+02 0.  0.
         12    1    1    2    0    0  0.38343614940E+02  0.52237490460E+01 -0.19649496049E+02  0.43400726443E+02  0.00000000000E+00 0. -1.
         11    1    3    3    0    0 -0.13920219067E+02  0.59824604110E+01  0.94058678780E+01  0.17833470841E+02  0.51100000000E-03 0.  1.
        -11    1    3    3    0    0 -0.10107406001E+02 -0.44470630695E+01 -0.99872136435E-01  0.11042916314E+02  0.51100000000E-03 0. -1.
         12    1    3    3    0    0 -0.14315989873E+02 -0.67591463876E+01  0.10343500307E+02  0.18910886403E+02  0.00000000000E+00 0. -1.
</event>
<event>
 7    1  0.5031164E-009  0.4778727E+02  0.7816164E-02  0.1312668E+00
        -11   -1    0    0    0    0  0.00000000000E+00  0.00000000000E+00  0.45593999997E+02  0.45594000000E+02  0.51100000000E-03 0.  1.
         11   -1    0    0    0    0 -0.00000000000E+00 -0.00000000000E+00 -0.45593999997E+02  0.45594000000E+02  0.51100000000E-03 0. -1.
    9900012    2    1    2    0    0  0.41750787882E+02  0.11203774661E+02 -0.38691855788E+01  0.47787268987E+02  0.19999990621E+02 0.  0.
         12    1    1    2    0    0 -0.41750787882E+02 -0.11203774661E+02  0.38691855788E+01  0.43400731013E+02  0.00000000000E+00 0. -1.
         11    1    3    3    0    0  0.98104636369E+01  0.11049599325E+02 -0.87001864819E+00  0.14801884161E+02  0.51100000000E-03 0. -1.
        -11    1    3    3    0    0  0.11009687121E+02 -0.22850471250E+01 -0.38793935482E+01  0.11894719224E+02  0.51100000000E-03 0.  1.
        -12    1    3    3    0    0  0.20930637124E+02  0.24392224611E+01  0.88022661756E+00  0.21090665602E+02  0.00000000000E+00 0.  1.
</event>
<event>
 7    1  0.5031164E-009  0.4778728E+02  0.7816164E-02  0.1312668E+00
        -11   -1    0    0    0    0  0.00000000000E+00  0.00000000000E+00  0.45593999997E+02  0.45594000000E+02  0.51100000000E-03 0.  1.
         11   -1    0    0    0    0 -0.00000000000E+00 -0.00000000000E+00 -0.45593999997E+02  0.45594000000E+02  0.51100000000E-03 0. -1.
    9900012    2    1    2    0    0 -0.10166622494E+02  0.37821158027E+02  0.18703538326E+02  0.47787279345E+02  0.20000037847E+02 0.  0.
         12    1    1    2    0    0  0.10166622494E+02 -0.37821158027E+02 -0.18703538326E+02  0.43400720655E+02  0.00000000000E+00 0. -1.
         11    1    3    3    0    0  0.69630220764E+00 -0.80290560052E+00 -0.95347689319E+00  0.14277999211E+01  0.51100000000E-03 0. -1.
        -11    1    3    3    0    0 -0.90606953682E+01  0.26473103805E+02  0.72599677663E+01  0.28907240579E+02  0.51100000000E-03 0.  1.
        -12    1    3    3    0    0 -0.18022293339E+01  0.12150959822E+02  0.12397047453E+02  0.17452238845E+02  0.00000000000E+00 0.  1.
</event>
<event>
 7    1  0.5031164E-009  0.4778727E+02  0.7816164E-02  0.1312668E+00
        -11   -1    0    0    0    0  0.00000000000E+00  0.00000000000E+00  0.45593999997E+02  0.45594000000E+02  0.51100000000E-03 0. -1.
         11   -1    0    0    0    0 -0.00000000000E+00 -0.00000000000E+00 -0.45593999997E+02  0.45594000000E+02  0.51100000000E-03 0.  1.
    9900012    2    1    2    0    0  0.32255069400E+02  0.21511254880E+02 -0.19506410213E+02  0.47787266966E+02  0.19999981404E+02 0.  0.
         12    1    1    2    0    0 -0.32255069400E+02 -0.21511254880E+02  0.19506410213E+02  0.43400733034E+02  0.00000000000E+00 0. -1.
         11    1    3    3    0    0  0.30121696814E+02  0.12923650859E+02 -0.10774799867E+02  0.34502661968E+02  0.51100000000E-03 0. -1.
        -11    1    3    3    0    0 -0.54641567671E+00  0.53747951847E+01 -0.29724801929E+01  0.61662494377E+01  0.51100000000E-03 0.  1.
         12    1    3    3    0    0  0.26797882630E+01  0.32128088356E+01 -0.57591301540E+01  0.71183555600E+01  0.00000000000E+00 0. -1.
</event>
<event>
 7    1  0.5031164E-009  0.4778726E+02  0.7816164E-02  0.1312668E+00
        -11   -1    0    0    0    0  0.00000000000E+00  0.00000000000E+00  0.45593999997E+02  0.45594000000E+02  0.51100000000E-03 0.  1.
         11   -1    0    0    0    0 -0.00000000000E+00 -0.00000000000E+00 -0.45593999997E+02  0.45594000000E+02  0.51100000000E-03 0. -1.
    9900012    2    1    2    0    0 -0.69492380601E+00 -0.40269225510E+02  0.16171925312E+02  0.47787255645E+02  0.19999929786E+02 0.  0.
         12    1    1    2    0    0  0.69492380601E+00  0.40269225510E+02 -0.16171925312E+02  0.43400744355E+02  0.00000000000E+00 0. -1.
         11    1    3    3    0    0 -0.61460055183E+01 -0.28195568469E+02  0.33327605078E+01  0.29049453660E+02  0.51100000000E-03 0. -1.
        -11    1    3    3    0    0  0.14372675330E+01 -0.28604718600E+01  0.13517032578E+01  0.34749300974E+01  0.51100000000E-03 0.  1.
         12    1    3    3    0    0  0.40138141793E+01 -0.92131851815E+01  0.11487461547E+02  0.15262871887E+02  0.00000000000E+00 0. -1.
</event>
<event>
 7    1  0.5031164E-009  0.4778727E+02  0.7816164E-02  0.1312668E+00
        -11   -1    0    0    0    0  0.00000000000E+00  0.00000000000E+00  0.45593999997E+02  0.45594000000E+02  0.51100000000E-03 0. -1.
         11   -1    0    0    0    0 -0.00000000000E+00 -0.00000000000E+00 -0.45593999997E+02  0.45594000000E+02  0.51100000000E-03 0.  1.
    9900012    2    1    2    0    0 -0.44698365574E+01  0.37266767807E+02 -0.21790633581E+02  0.47787272662E+02  0.20000007374E+02 0.  0.
         12    1    1    2    0    0  0.44698365574E+01 -0.37266767807E+02  0.21790633581E+02  0.43400727338E+02  0.00000000000E+00 0. -1.
         11    1    3    3    0    0  0.55522612875E+01  0.12563042866E+02 -0.14501099351E+02  0.19973470757E+02  0.51100000000E-03 0. -1.
        -11    1    3    3    0    0 -0.90006607601E+01  0.20500192050E+02 -0.70841340443E+01  0.23483073130E+02  0.51100000000E-03 0.  1.
         12    1    3    3    0    0 -0.10214370848E+01  0.42035328903E+01 -0.20540018645E+00  0.43307287740E+01  0.00000000000E+00 0. -1.
</event>
<event>
 7    1  0.5031164E-009  0.4778727E+02  0.7816164E-02  0.1312668E+00
        -11   -1    0    0    0    0  0.00000000000E+00  0.00000000000E+00  0.45593999997E+02  0.45594000000E+02  0.51100000000E-03 0.  1.
         11   -1    0    0    0    0 -0.00000000000E+00 -0.00000000000E+00 -0.45593999997E+02  0.45594000000E+02  0.51100000000E-03 0. -1.
    9900012    2    1    2    0    0 -0.27792514736E+02  0.54843557225E+01  0.32880408127E+02  0.47787271070E+02  0.20000000117E+02 0.  0.
         12    1    1    2    0    0  0.27792514736E+02 -0.54843557225E+01 -0.32880408127E+02  0.43400728930E+02  0.00000000000E+00 0. -1.
         11    1    3    3    0    0 -0.48451684732E+01 -0.28513672451E+01  0.19667125494E+01  0.59559979192E+01  0.51100000000E-03 0. -1.
        -11    1    3    3    0    0 -0.12159400192E+02  0.10873319736E+01  0.24422186931E+02  0.27303415878E+02  0.51100000000E-03 0.  1.
        -12    1    3    3    0    0 -0.10787946071E+02  0.72483909940E+01  0.64915086467E+01  0.14527857273E+02  0.00000000000E+00 0.  1.
</event>
<event>
 7    1  0.5031164E-009  0.4778727E+02  0.7816164E-02  0.1312668E+00
        -11   -1    0    0    0    0  0.00000000000E+00  0.00000000000E+00  0.45593999997E+02  0.45594000000E+02  0.51100000000E-03 0.  1.
         11   -1    0    0    0    0 -0.00000000000E+00 -0.00000000000E+00 -0.45593999997E+02  0.45594000000E+02  0.51100000000E-03 0. -1.
    9900012    2    1    2    0    0  0.19037153430E+02  0.33853184662E+02  0.19369354957E+02  0.47787271504E+02  0.20000002097E+02 0.  0.
         12    1    1    2    0    0 -0.19037153430E+02 -0.33853184662E+02 -0.19369354957E+02  0.43400728496E+02  0.00000000000E+00 0. -1.
         11    1    3    3    0    0  0.35848499362E+01  0.16251120213E+01  0.50183234388E+01  0.63777510570E+01  0.51100000000E-03 0. -1.
        -11    1    3    3    0    0  0.64752094051E+01  0.22565155577E+01 -0.29626712357E+00  0.68635248796E+01  0.51100000000E-03 0.  1.
        -12    1    3    3    0    0  0.89770940885E+01  0.29971557083E+02  0.14647298642E+02  0.34545995568E+02  0.00000000000E+00 0.  1.
</event>
<event>
 7    1  0.5031164E-009  0.4778726E+02  0.7816164E-02  0.1312668E+00
        -11   -1    0    0    0    0  0.00000000000E+00  0.00000000000E+00  0.45593999997E+02  0.45594000000E+02  0.51100000000E-03 0. -1.
         11   -1    0    0    0    0 -0.00000000000E+00 -0.00000000000E+00 -0.45593999997E+02  0.45594000000E+02  0.51100000000E-03 0.  1.
    9900012    2    1    2    0    0  0.37067394668E+01 -0.30284643897E+02 -0.30866242408E+02  0.47787256990E+02  0.19999935922E+02 0.  0.
         12    1    1    2    0    0 -0.37067394668E+01  0.30284643897E+02  0.30866242408E+02  0.43400743010E+02  0.00000000000E+00 0. -1.
         11    1    3    3    0    0 -0.45832851140E+01 -0.79645420141E+01 -0.14052779603E+02  0.16790504661E+02  0.51100000000E-03 0. -1.
        -11    1    3    3    0    0  0.32305444786E+01 -0.20341489862E+02 -0.12926551623E+02  0.24316832947E+02  0.51100000000E-03 0.  1.
         12    1    3    3    0    0  0.50594801022E+01 -0.19786120211E+01 -0.38869111811E+01  0.66799193830E+01  0.00000000000E+00 0. -1.
</event>
<event>
 7    1  0.5031164E-009  0.4778727E+02  0.7816164E-02  0.1312668E+00
        -11   -1    0    0    0    0  0.00000000000E+00  0.00000000000E+00  0.45593999997E+02  0.45594000000E+02  0.51100000000E-03 0.  1.
         11   -1    0    0    0    0 -0.00000000000E+00 -0.00000000000E+00 -0.45593999997E+02  0.45594000000E+02  0.51100000000E-03 0. -1.
    9900012    2    1    2    0    0 -0.14305940188E+02 -0.35519004280E+02  0.20429472704E+02  0.47787274837E+02  0.20000017292E+02 0.  0.
         12    1    1    2    0    0  0.14305940188E+02  0.35519004280E+02 -0.20429472704E+02  0.43400725163E+02  0.00000000000E+00 0. -1.
         11    1    3    3    0    0 -0.11371940738E+02 -0.14655680756E+02  0.32007120044E+01  0.18824308013E+02  0.51100000000E-03 0. -1.
        -11    1    3    3    0    0 -0.19611785001E+01 -0.20946151393E+02  0.18024637277E+02  0.27703339664E+02  0.51100000000E-03 0.  1.
         12    1    3    3    0    0 -0.97282094989E+00  0.82827868391E-01 -0.79587657786E+00  0.12596271605E+01  0.00000000000E+00 0. -1.
</event>
<event>
 7    1  0.5031164E-009  0.4778731E+02  0.7816164E-02  0.1312668E+00
        -11   -1    0    0    0    0  0.00000000000E+00  0.00000000000E+00  0.45593999997E+02  0.45594000000E+02  0.51100000000E-03 0.  1.
         11   -1    0    0    0    0 -0.00000000000E+00 -0.00000000000E+00 -0.45593999997E+02  0.45594000000E+02  0.51100000000E-03 0. -1.
    9900012    2    1    2    0    0 -0.93445766007E+01 -0.41260873956E+02 -0.96870639953E+01  0.47787308297E+02  0.20000169847E+02 0.  0.
         12    1    1    2    0    0  0.93445766007E+01  0.41260873956E+02  0.96870639953E+01  0.43400691703E+02  0.00000000000E+00 0. -1.
         11    1    3    3    0    0 -0.82415068185E+01 -0.34936572795E+02 -0.57711586279E+01  0.36356468825E+02  0.51100000000E-03 0.  1.
        -11    1    3    3    0    0 -0.29989662290E+01  0.77257125323E+00 -0.24296938745E+01  0.39362516902E+01  0.51100000000E-03 0. -1.
        -12    1    3    3    0    0  0.18958964468E+01 -0.70968724146E+01 -0.14862114928E+01  0.74945877810E+01  0.00000000000E+00 0.  1.
</event>
<event>
 7    1  0.5031164E-009  0.4778727E+02  0.7816164E-02  0.1312668E+00
        -11   -1    0    0    0    0  0.00000000000E+00  0.00000000000E+00  0.45593999997E+02  0.45594000000E+02  0.51100000000E-03 0.  1.
         11   -1    0    0    0    0 -0.00000000000E+00 -0.00000000000E+00 -0.45593999997E+02  0.45594000000E+02  0.51100000000E-03 0. -1.
    9900012    2    1    2    0    0 -0.13337982863E+02 -0.19278131903E+02  0.36524992448E+02  0.47787271551E+02  0.20000002310E+02 0.  0.
         12    1    1    2    0    0  0.13337982863E+02  0.19278131903E+02 -0.36524992448E+02  0.43400728449E+02  0.00000000000E+00 0. -1.
         11    1    3    3    0    0  0.25988364722E+01 -0.94977139894E+01  0.86078309343E+01  0.13078810179E+02  0.51100000000E-03 0. -1.
        -11    1    3    3    0    0 -0.40710645180E+01 -0.59448335079E+00  0.16013274931E+01  0.44148869481E+01  0.51100000000E-03 0.  1.
         12    1    3    3    0    0 -0.11865754817E+02 -0.91859345630E+01  0.26315834021E+02  0.30293574424E+02  0.00000000000E+00 0. -1.
</event>
<event>
 7    1  0.5031164E-009  0.4778727E+02  0.7816164E-02  0.1312668E+00
        -11   -1    0    0    0    0  0.00000000000E+00  0.00000000000E+00  0.45593999997E+02  0.45594000000E+02  0.51100000000E-03 0.  1.
         11   -1    0    0    0    0 -0.00000000000E+00 -0.00000000000E+00 -0.45593999997E+02  0.45594000000E+02  0.51100000000E-03 0. -1.
    9900012    2    1    2    0    0  0.15830717455E+02 -0.23260169834E+02  0.33045068269E+02  0.47787266680E+02  0.19999980099E+02 0.  0.
         12    1    1    2    0    0 -0.15830717455E+02  0.23260169834E+02 -0.33045068269E+02  0.43400733320E+02  0.00000000000E+00 0. -1.
         11    1    3    3    0    0  0.71935446364E+01 -0.61178341453E+01  0.19360403913E+01  0.96396696896E+01  0.51100000000E-03 0. -1.
        -11    1    3    3    0    0  0.80188750320E+01 -0.12268816182E+02  0.29563931483E+02  0.32997761322E+02  0.51100000000E-03 0.  1.
        -12    1    3    3    0    0  0.61829778621E+00 -0.48735195069E+01  0.15450963948E+01  0.51498356678E+01  0.00000000000E+00 0.  1.
</event>
<event>
 7    1  0.5031164E-009  0.4778727E+02  0.7816164E-02  0.1312668E+00
        -11   -1    0    0    0    0  0.00000000000E+00  0.00000000000E+00  0.45593999997E+02  0.45594000000E+02  0.51100000000E-03 0.  1.
         11   -1    0    0    0    0 -0.00000000000E+00 -0.00000000000E+00 -0.45593999997E+02  0.45594000000E+02  0.51100000000E-03 0. -1.
    9900012    2    1    2    0    0  0.15243883705E+02 -0.22046062518E+02  0.34135293432E+02  0.47787272810E+02  0.20000008048E+02 0.  0.
         12    1    1    2    0    0 -0.15243883705E+02  0.22046062518E+02 -0.34135293432E+02  0.43400727190E+02  0.00000000000E+00 0. -1.
         11    1    3    3    0    0  0.28867200150E+01 -0.89953800282E+01  0.21198223070E+02  0.23208073507E+02  0.51100000000E-03 0.  1.
        -11    1    3    3    0    0  0.18940321580E+01 -0.29576335409E+01 -0.17412500630E+01  0.39200645429E+01  0.51100000000E-03 0. -1.
        -12    1    3    3    0    0  0.10463131532E+02 -0.10093048949E+02  0.14678320424E+02  0.20659134760E+02  0.00000000000E+00 0.  1.
</event>
<event>
 7    1  0.5031164E-009  0.4778727E+02  0.7816164E-02  0.1312668E+00
        -11   -1    0    0    0    0  0.00000000000E+00  0.00000000000E+00  0.45593999997E+02  0.45594000000E+02  0.51100000000E-03 0. -1.
         11   -1    0    0    0    0 -0.00000000000E+00 -0.00000000000E+00 -0.45593999997E+02  0.45594000000E+02  0.51100000000E-03 0.  1.
    9900012    2    1    2    0    0 -0.21356997453E+02  0.10969980149E+02 -0.36154690478E+02  0.47787269035E+02  0.19999990839E+02 0.  0.
         12    1    1    2    0    0  0.21356997453E+02 -0.10969980149E+02  0.36154690478E+02  0.43400730965E+02  0.00000000000E+00 0. -1.
         11    1    3    3    0    0 -0.22904313549E+02  0.87463947719E+01 -0.25945435820E+02  0.35696955624E+02  0.51100000000E-03 0.  1.
        -11    1    3    3    0    0  0.23372187437E+01  0.54175403455E-02 -0.92746678286E+00  0.25145209683E+01  0.51100000000E-03 0. -1.
        -12    1    3    3    0    0 -0.78990264766E+00  0.22181678366E+01 -0.92817878751E+01  0.95757924426E+01  0.00000000000E+00 0.  1.
</event>
<event>
 7    1  0.5031164E-009  0.4778726E+02  0.7816164E-02  0.1312668E+00
        -11   -1    0    0    0    0  0.00000000000E+00  0.00000000000E+00  0.45593999997E+02  0.45594000000E+02  0.51100000000E-03 0. -1.
         11   -1    0    0    0    0 -0.00000000000E+00 -0.00000000000E+00 -0.45593999997E+02  0.45594000000E+02  0.51100000000E-03 0.  1.
    9900012    2    1    2    0    0  0.78291539052E+00 -0.27713108663E+02 -0.33391536941E+02  0.47787261671E+02  0.19999957261E+02 0.  0.
         12    1    1    2    0    0 -0.78291539052E+00  0.27713108663E+02  0.33391536941E+02  0.43400738329E+02  0.00000000000E+00 0. -1.
         11    1    3    3    0    0 -0.77520241268E+01 -0.10047906203E+02 -0.17496927119E+02  0.21614734696E+02  0.51100000000E-03 0. -1.
        -11    1    3    3    0    0  0.66724156002E+01 -0.15549993245E+02 -0.16086892678E+02  0.23347623780E+02  0.51100000000E-03 0.  1.
        -12    1    3    3    0    0  0.18625239171E+01 -0.21152092148E+01  0.19228285574E+00  0.28249031949E+01  0.00000000000E+00 0.  1.
</event>
<event>
 7    1  0.5031164E-009  0.4778727E+02  0.7816164E-02  0.1312668E+00
        -11   -1    0    0    0    0  0.00000000000E+00  0.00000000000E+00  0.45593999997E+02  0.45594000000E+02  0.51100000000E-03 0.  1.
         11   -1    0    0    0    0 -0.00000000000E+00 -0.00000000000E+00 -0.45593999997E+02  0.45594000000E+02  0.51100000000E-03 0. -1.
    9900012    2    1    2    0    0  0.63104262170E+01 -0.40701008760E+02  0.13683191466E+02  0.47787270492E+02  0.19999997481E+02 0.  0.
         12    1    1    2    0    0 -0.63104262170E+01  0.40701008760E+02 -0.13683191466E+02  0.43400729508E+02  0.00000000000E+00 0. -1.
         11    1    3    3    0    0 -0.24280809399E+01 -0.27137103182E+02  0.31927132697E+01  0.27431940588E+02  0.51100000000E-03 0. -1.
        -11    1    3    3    0    0  0.88936553284E+01 -0.12465001851E+02  0.11258255234E+02  0.19005832984E+02  0.51100000000E-03 0.  1.
         12    1    3    3    0    0 -0.15514817151E+00 -0.10989037275E+01 -0.76777703772E+00  0.13494969200E+01  0.00000000000E+00 0. -1.
</event>
<event>
 7    1  0.5031164E-009  0.4778726E+02  0.7816164E-02  0.1312668E+00
        -11   -1    0    0    0    0  0.00000000000E+00  0.00000000000E+00  0.45593999997E+02  0.45594000000E+02  0.51100000000E-03 0.  1.
         11   -1    0    0    0    0 -0.00000000000E+00 -0.00000000000E+00 -0.45593999997E+02  0.45594000000E+02  0.51100000000E-03 0. -1.
    9900012    2    1    2    0    0  0.28457470076E+02  0.13771247198E+02  0.29734643715E+02  0.47787263954E+02  0.19999967670E+02 0.  0.
         12    1    1    2    0    0 -0.28457470076E+02 -0.13771247198E+02 -0.29734643715E+02  0.43400736046E+02  0.00000000000E+00 0. -1.
         11    1    3    3    0    0 -0.51418817745E+00  0.21454012358E+01 -0.14786192422E+01  0.26558334039E+01  0.51100000000E-03 0. -1.
        -11    1    3    3    0    0  0.16442477205E+02  0.22923267005E+01  0.19468165409E+02  0.25585528780E+02  0.51100000000E-03 0.  1.
        -12    1    3    3    0    0  0.12529181049E+02  0.93335192616E+01  0.11745097549E+02  0.19545901770E+02  0.00000000000E+00 0.  1.
</event>
<event>
 7    1  0.5031164E-009  0.4778727E+02  0.7816164E-02  0.1312668E+00
        -11   -1    0    0    0    0  0.00000000000E+00  0.00000000000E+00  0.45593999997E+02  0.45594000000E+02  0.51100000000E-03 0.  1.
         11   -1    0    0    0    0 -0.00000000000E+00 -0.00000000000E+00 -0.45593999997E+02  0.45594000000E+02  0.51100000000E-03 0. -1.
    9900012    2    1    2    0    0  0.23326779856E+02 -0.11771615878E+02  0.34654204149E+02  0.47787268853E+02  0.19999990010E+02 0.  0.
         12    1    1    2    0    0 -0.23326779856E+02  0.11771615878E+02 -0.34654204149E+02  0.43400731147E+02  0.00000000000E+00 0. -1.
         11    1    3    3    0    0  0.30408619528E+01 -0.27368020031E+01  0.22427160844E+01  0.46654798592E+01  0.51100000000E-03 0. -1.
        -11    1    3    3    0    0  0.15393071479E+02 -0.51347904202E+01  0.83288309315E+01  0.18239576398E+02  0.51100000000E-03 0.  1.
        -12    1    3    3    0    0  0.48928464239E+01 -0.39000234547E+01  0.24082657133E+02  0.24882212596E+02  0.00000000000E+00 0.  1.
</event>
<event>
 7    1  0.5031164E-009  0.4778725E+02  0.7816164E-02  0.1312668E+00
        -11   -1    0    0    0    0  0.00000000000E+00  0.00000000000E+00  0.45593999997E+02  0.45594000000E+02  0.51100000000E-03 0.  1.
         11   -1    0    0    0    0 -0.00000000000E+00 -0.00000000000E+00 -0.45593999997E+02  0.45594000000E+02  0.51100000000E-03 0. -1.
    9900012    2    1    2    0    0  0.15297348085E+01  0.43372684375E+02  0.30801568221E+00  0.47787254475E+02  0.19999924452E+02 0.  0.
         12    1    1    2    0    0 -0.15297348085E+01 -0.43372684375E+02 -0.30801568221E+00  0.43400745525E+02  0.00000000000E+00 0. -1.
         11    1    3    3    0    0  0.14670396632E+01  0.81952163719E+00 -0.29944558555E+01  0.34337424509E+01  0.51100000000E-03 0. -1.
        -11    1    3    3    0    0  0.19698859279E+01  0.41866623025E+02  0.20338585048E+01  0.41962258694E+02  0.51100000000E-03 0.  1.
        -12    1    3    3    0    0 -0.19071907826E+01  0.68653971321E+00  0.12686130329E+01  0.23912533296E+01  0.00000000000E+00 0.  1.
</event>
<event>
 7    1  0.5031164E-009  0.4778727E+02  0.7816164E-02  0.1312668E+00
        -11   -1    0    0    0    0  0.00000000000E+00  0.00000000000E+00  0.45593999997E+02  0.45594000000E+02  0.51100000000E-03 0.  1.
         11   -1    0    0    0    0 -0.00000000000E+00 -0.00000000000E+00 -0.45593999997E+02  0.45594000000E+02  0.51100000000E-03 0. -1.
    9900012    2    1    2    0    0 -0.28847020128E+01  0.43299723367E+02  0.65991783591E+00  0.47787273728E+02  0.20000012238E+02 0.  0.
         12    1    1    2    0    0  0.28847020128E+01 -0.43299723367E+02 -0.65991783591E+00  0.43400726272E+02  0.00000000000E+00 0. -1.
         11    1    3    3    0    0 -0.31142036404E+01 -0.48159176066E+00 -0.29286482903E+00  0.31648009427E+01  0.51100000000E-03 0. -1.
        -11    1    3    3    0    0  0.40073973431E+01  0.22761129107E+02 -0.12953774136E+01  0.23147488732E+02  0.51100000000E-03 0.  1.
        -12    1    3    3    0    0 -0.37778957155E+01  0.21020186021E+02  0.22481600786E+01  0.21474984054E+02  0.00000000000E+00 0.  1.
</event>
<event>
 7    1  0.5031164E-009  0.4778727E+02  0.7816164E-02  0.1312668E+00
        -11   -1    0    0    0    0  0.00000000000E+00  0.00000000000E+00  0.45593999997E+02  0.45594000000E+02  0.51100000000E-03 0.  1.
         11   -1    0    0    0    0 -0.00000000000E+00 -0.00000000000E+00 -0.45593999997E+02  0.45594000000E+02  0.51100000000E-03 0. -1.
    9900012    2    1    2    0    0 -0.40134669939E+02  0.13459009826E+02  0.95752969736E+01  0.47787274329E+02  0.20000014977E+02 0.  0.
         12    1    1    2    0    0  0.40134669939E+02 -0.13459009826E+02 -0.95752969736E+01  0.43400725671E+02  0.00000000000E+00 0. -1.
         11    1    3    3    0    0 -0.16554299784E+02  0.68035773395E-01 -0.39146089972E+01  0.17010985688E+02  0.51100000000E-03 0. -1.
        -11    1    3    3    0    0 -0.22784412169E+02  0.11321401107E+02  0.12525664109E+02  0.28358346612E+02  0.51100000000E-03 0.  1.
         12    1    3    3    0    0 -0.79595798531E+00  0.20695729449E+01  0.96424186191E+00  0.24179420293E+01  0.00000000000E+00 0. -1.
</event>
<event>
 7    1  0.5031164E-009  0.4778728E+02  0.7816164E-02  0.1312668E+00
        -11   -1    0    0    0    0  0.00000000000E+00  0.00000000000E+00  0.45593999997E+02  0.45594000000E+02  0.51100000000E-03 0.  1.
         11   -1    0    0    0    0 -0.00000000000E+00 -0.00000000000E+00 -0.45593999997E+02  0.45594000000E+02  0.51100000000E-03 0. -1.
    9900012    2    1    2    0    0  0.29875561520E+02  0.27374375502E+02  0.15547256134E+02  0.47787276694E+02  0.20000025756E+02 0.  0.
         12    1    1    2    0    0 -0.29875561520E+02 -0.27374375502E+02 -0.15547256134E+02  0.43400723306E+02  0.00000000000E+00 0. -1.
         11    1    3    3    0    0  0.12283845164E+02  0.69394525025E+01  0.95447798841E+01  0.17033839154E+02  0.51100000000E-03 0.  1.
        -11    1    3    3    0    0  0.10468293018E+02  0.66101633529E+01 -0.30605409185E+01  0.12753286997E+02  0.51100000000E-03 0. -1.
        -12    1    3    3    0    0  0.71234233381E+01  0.13824759647E+02  0.90630171681E+01  0.18000150542E+02  0.00000000000E+00 0.  1.
</event>
<event>
 7    1  0.5031164E-009  0.4778727E+02  0.7816164E-02  0.1312668E+00
        -11   -1    0    0    0    0  0.00000000000E+00  0.00000000000E+00  0.45593999997E+02  0.45594000000E+02  0.51100000000E-03 0.  1.
         11   -1    0    0    0    0 -0.00000000000E+00 -0.00000000000E+00 -0.45593999997E+02  0.45594000000E+02  0.51100000000E-03 0. -1.
    9900012    2    1    2    0    0 -0.34215890963E+02  0.26682855240E+02 -0.95969327535E+00  0.47787274553E+02  0.20000015998E+02 0.  0.
         12    1    1    2    0    0  0.34215890963E+02 -0.26682855240E+02  0.95969327535E+00  0.43400725447E+02  0.00000000000E+00 0. -1.
         11    1    3    3    0    0 -0.16713244086E+02  0.32242921051E+01 -0.42287900081E+01  0.17538849809E+02  0.51100000000E-03 0. -1.
        -11    1    3    3    0    0 -0.53426222118E+01  0.12900450504E+02  0.12654021439E+01  0.14020216766E+02  0.51100000000E-03 0.  1.
         12    1    3    3    0    0 -0.12160024665E+02  0.10558112630E+02  0.20036945888E+01  0.16228207978E+02  0.00000000000E+00 0. -1.
</event>
<event>
 7    1  0.5031164E-009  0.4778727E+02  0.7816164E-02  0.1312668E+00
        -11   -1    0    0    0    0  0.00000000000E+00  0.00000000000E+00  0.45593999997E+02  0.45594000000E+02  0.51100000000E-03 0.  1.
         11   -1    0    0    0    0 -0.00000000000E+00 -0.00000000000E+00 -0.45593999997E+02  0.45594000000E+02  0.51100000000E-03 0. -1.
    9900012    2    1    2    0    0 -0.28405172125E+02 -0.40124419546E+01  0.32567924750E+02  0.47787271706E+02  0.20000003018E+02 0.  0.
         12    1    1    2    0    0  0.28405172125E+02  0.40124419546E+01 -0.32567924750E+02  0.43400728294E+02  0.00000000000E+00 0. -1.
         11    1    3    3    0    0 -0.22345449761E+01  0.58150977126E+01  0.27555078545E+01  0.68118555809E+01  0.51100000000E-03 0. -1.
        -11    1    3    3    0    0 -0.11952224261E+02 -0.53076138380E+01  0.12099599362E+02  0.17816473681E+02  0.51100000000E-03 0.  1.
         12    1    3    3    0    0 -0.14218402887E+02 -0.45199258292E+01  0.17712817533E+02  0.23158942444E+02  0.00000000000E+00 0. -1.
</event>
<event>
 7    1  0.5031164E-009  0.4778727E+02  0.7816164E-02  0.1312668E+00
        -11   -1    0    0    0    0  0.00000000000E+00  0.00000000000E+00  0.45593999997E+02  0.45594000000E+02  0.51100000000E-03 0.  1.
         11   -1    0    0    0    0 -0.00000000000E+00 -0.00000000000E+00 -0.45593999997E+02  0.45594000000E+02  0.51100000000E-03 0. -1.
    9900012    2    1    2    0    0  0.32755674012E+02  0.23246661996E+02  0.16440244262E+02  0.47787272986E+02  0.20000008853E+02 0.  0.
         12    1    1    2    0    0 -0.32755674012E+02 -0.23246661996E+02 -0.16440244262E+02  0.43400727014E+02  0.00000000000E+00 0. -1.
         11    1    3    3    0    0  0.28079601514E+00  0.25976714604E+01  0.67593307337E+01  0.72467437962E+01  0.51100000000E-03 0. -1.
        -11    1    3    3    0    0  0.12770389141E+02  0.11532606511E+02  0.73270375329E+01  0.18702121030E+02  0.51100000000E-03 0.  1.
         12    1    3    3    0    0  0.19704488856E+02  0.91163840248E+01  0.23538759953E+01  0.21838408160E+02  0.00000000000E+00 0. -1.
</event>
<event>
 7    1  0.5031164E-009  0.4778727E+02  0.7816164E-02  0.1312668E+00
        -11   -1    0    0    0    0  0.00000000000E+00  0.00000000000E+00  0.45593999997E+02  0.45594000000E+02  0.51100000000E-03 0. -1.
         11   -1    0    0    0    0 -0.00000000000E+00 -0.00000000000E+00 -0.45593999997E+02  0.45594000000E+02  0.51100000000E-03 0.  1.
    9900012    2    1    2    0    0 -0.23479703273E+02  0.18320892867E+02 -0.31570107179E+02  0.47787271336E+02  0.20000001331E+02 0.  0.
         12    1    1    2    0    0  0.23479703273E+02 -0.18320892867E+02  0.31570107179E+02  0.43400728664E+02  0.00000000000E+00 0. -1.
         11    1    3    3    0    0 -0.13245905126E+02  0.62767934429E+01 -0.21193274484E+02  0.25768333709E+02  0.51100000000E-03 0.  1.
        -11    1    3    3    0    0 -0.51108843026E+01  0.34052003952E+01  0.16409436553E+01  0.63568250272E+01  0.51100000000E-03 0. -1.
        -12    1    3    3    0    0 -0.51229138447E+01  0.86388990290E+01 -0.12017776350E+02  0.15662112600E+02  0.00000000000E+00 0.  1.
</event>
<event>
 7    1  0.5031164E-009  0.4778723E+02  0.7816164E-02  0.1312668E+00
        -11   -1    0    0    0    0  0.00000000000E+00  0.00000000000E+00  0.45593999997E+02  0.45594000000E+02  0.51100000000E-03 0.  1.
         11   -1    0    0    0    0 -0.00000000000E+00 -0.00000000000E+00 -0.45593999997E+02  0.45594000000E+02  0.51100000000E-03 0. -1.
    9900012    2    1    2    0    0 -0.22916008639E+02  0.27452310239E+02  0.24593780078E+02  0.47787230330E+02  0.19999814366E+02 0.  0.
         12    1    1    2    0    0  0.22916008639E+02 -0.27452310239E+02 -0.24593780078E+02  0.43400769670E+02  0.00000000000E+00 0. -1.
         11    1    3    3    0    0 -0.14951519981E+02  0.86150045938E+01  0.17934338267E+02  0.24887883462E+02  0.51100000000E-03 0.  1.
        -11    1    3    3    0    0 -0.92514118002E+01  0.17216342467E+02  0.70798281531E+01  0.20787376823E+02  0.51100000000E-03 0. -1.
        -12    1    3    3    0    0  0.12869231416E+01  0.16209631773E+01 -0.42038634147E+00  0.21119700449E+01  0.00000000000E+00 0.  1.
</event>
<event>
 7    1  0.5031164E-009  0.4778727E+02  0.7816164E-02  0.1312668E+00
        -11   -1    0    0    0    0  0.00000000000E+00  0.00000000000E+00  0.45593999997E+02  0.45594000000E+02  0.51100000000E-03 0.  1.
         11   -1    0    0    0    0 -0.00000000000E+00 -0.00000000000E+00 -0.45593999997E+02  0.45594000000E+02  0.51100000000E-03 0. -1.
    9900012    2    1    2    0    0 -0.23811677066E+02  0.25301641431E+02  0.26008731224E+02  0.47787272775E+02  0.20000007889E+02 0.  0.
         12    1    1    2    0    0  0.23811677066E+02 -0.25301641431E+02 -0.26008731224E+02  0.43400727225E+02  0.00000000000E+00 0. -1.
         11    1    3    3    0    0 -0.82451063931E+00  0.12432459729E+00 -0.10499108960E+01  0.13407414182E+01  0.51100000000E-03 0. -1.
        -11    1    3    3    0    0 -0.93331601705E+01  0.83382435621E+00  0.10146084167E+02  0.13811088516E+02  0.51100000000E-03 0.  1.
        -12    1    3    3    0    0 -0.13654006256E+02  0.24343492477E+02  0.16912557954E+02  0.32635442840E+02  0.00000000000E+00 0.  1.
</event>
<event>
 7    1  0.5031164E-009  0.4778727E+02  0.7816164E-02  0.1312668E+00
        -11   -1    0    0    0    0  0.00000000000E+00  0.00000000000E+00  0.45593999997E+02  0.45594000000E+02  0.51100000000E-03 0.  1.
         11   -1    0    0    0    0 -0.00000000000E+00 -0.00000000000E+00 -0.45593999997E+02  0.45594000000E+02  0.51100000000E-03 0. -1.
    9900012    2    1    2    0    0 -0.15325179483E+02 -0.56357976599E+01  0.40211938351E+02  0.47787270428E+02  0.19999997188E+02 0.  0.
         12    1    1    2    0    0  0.15325179483E+02  0.56357976599E+01 -0.40211938351E+02  0.43400729572E+02  0.00000000000E+00 0. -1.
         11    1    3    3    0    0 -0.10524678949E+02  0.17731541190E+01  0.19472118487E+02  0.22205322360E+02  0.51100000000E-03 0. -1.
        -11    1    3    3    0    0 -0.40170949180E+01 -0.89512159787E+01  0.78189743416E+01  0.12545823173E+02  0.51100000000E-03 0.  1.
        -12    1    3    3    0    0 -0.78340561553E+00  0.15422641998E+01  0.12920845523E+02  0.13036124894E+02  0.00000000000E+00 0.  1.
</event>
<event>
 7    1  0.7127980E-009  0.4778727E+02  0.7816164E-02  0.1312668E+00
        -11   -1    0    0    0    0  0.00000000000E+00  0.00000000000E+00  0.45593999997E+02  0.45594000000E+02  0.51100000000E-03 0.  1.
         11   -1    0    0    0    0 -0.00000000000E+00 -0.00000000000E+00 -0.45593999997E+02  0.45594000000E+02  0.51100000000E-03 0. -1.
    9900012    2    1    2    0    0 -0.26014939881E+02  0.30539103081E+02  0.16559268757E+02  0.47787270793E+02  0.19999998852E+02 0.  0.
         12    1    1    2    0    0  0.26014939881E+02 -0.30539103081E+02 -0.16559268757E+02  0.43400729207E+02  0.00000000000E+00 0. -1.
         11    1    3    3    0    0 -0.19566877434E+01  0.48217675439E+01 -0.12694328657E+01  0.53562607512E+01  0.51100000000E-03 0. -1.
        -11    1    3    3    0    0 -0.21541418780E+02  0.20067167474E+02  0.74813873729E+01  0.30375896543E+02  0.51100000000E-03 0.  1.
        -12    1    3    3    0    0 -0.25168333567E+01  0.56501680633E+01  0.10347314250E+02  0.12055113499E+02  0.00000000000E+00 0.  1.
</event>
<event>
 7    1  0.5031164E-009  0.4778727E+02  0.7816164E-02  0.1312668E+00
        -11   -1    0    0    0    0  0.00000000000E+00  0.00000000000E+00  0.45593999997E+02  0.45594000000E+02  0.51100000000E-03 0.  1.
         11   -1    0    0    0    0 -0.00000000000E+00 -0.00000000000E+00 -0.45593999997E+02  0.45594000000E+02  0.51100000000E-03 0. -1.
    9900012    2    1    2    0    0 -0.33657536219E+02 -0.14906492740E+01  0.27360030904E+02  0.47787273386E+02  0.20000010674E+02 0.  0.
         12    1    1    2    0    0  0.33657536219E+02  0.14906492740E+01 -0.27360030904E+02  0.43400726614E+02  0.00000000000E+00 0. -1.
         11    1    3    3    0    0 -0.87022870678E+01  0.58418914551E+01  0.13908734726E+02  0.17415808850E+02  0.51100000000E-03 0. -1.
        -11    1    3    3    0    0 -0.19835526735E+02 -0.89756986393E+01  0.11700537160E+02  0.24716671641E+02  0.51100000000E-03 0.  1.
         12    1    3    3    0    0 -0.51197224156E+01  0.16431579102E+01  0.17507590186E+01  0.56547928939E+01  0.00000000000E+00 0. -1.
</event>
<event>
 7    1  0.5031164E-009  0.4778727E+02  0.7816164E-02  0.1312668E+00
        -11   -1    0    0    0    0  0.00000000000E+00  0.00000000000E+00  0.45593999997E+02  0.45594000000E+02  0.51100000000E-03 0.  1.
         11   -1    0    0    0    0 -0.00000000000E+00 -0.00000000000E+00 -0.45593999997E+02  0.45594000000E+02  0.51100000000E-03 0. -1.
    9900012    2    1    2    0    0  0.36291214295E+02 -0.12719200796E+02  0.20119473425E+02  0.47787268269E+02  0.19999987345E+02 0.  0.
         12    1    1    2    0    0 -0.36291214295E+02  0.12719200796E+02 -0.20119473425E+02  0.43400731731E+02  0.00000000000E+00 0. -1.
         11    1    3    3    0    0  0.14769751682E+02 -0.97354121252E+01  0.73649434274E+01  0.19161581509E+02  0.51100000000E-03 0. -1.
        -11    1    3    3    0    0  0.52186234873E+01  0.32846821412E+01 -0.11845070087E+01  0.62790305769E+01  0.51100000000E-03 0.  1.
        -12    1    3    3    0    0  0.16302839126E+02 -0.62684708123E+01  0.13939037006E+02  0.22346656183E+02  0.00000000000E+00 0.  1.
</event>
<event>
 7    1  0.5031164E-009  0.4778728E+02  0.7816164E-02  0.1312668E+00
        -11   -1    0    0    0    0  0.00000000000E+00  0.00000000000E+00  0.45593999997E+02  0.45594000000E+02  0.51100000000E-03 0. -1.
         11   -1    0    0    0    0 -0.00000000000E+00 -0.00000000000E+00 -0.45593999997E+02  0.45594000000E+02  0.51100000000E-03 0.  1.
    9900012    2    1    2    0    0  0.20920062343E+02  0.13496383383E+02 -0.35550266570E+02  0.47787276203E+02  0.20000023522E+02 0.  0.
         12    1    1    2    0    0 -0.20920062343E+02 -0.13496383383E+02  0.35550266570E+02  0.43400723797E+02  0.00000000000E+00 0. -1.
         11    1    3    3    0    0  0.18007798582E+02  0.12539896575E+01 -0.23725553588E+02  0.29811997470E+02  0.51100000000E-03 0. -1.
        -11    1    3    3    0    0  0.30052860122E+01  0.94015668870E+01 -0.11436118073E+02  0.15106488698E+02  0.51100000000E-03 0.  1.
         12    1    3    3    0    0 -0.93022251329E-01  0.28408268384E+01 -0.38859490984E+00  0.28687900357E+01  0.00000000000E+00 0. -1.
</event>
<event>
 7    1  0.5031164E-009  0.4778727E+02  0.7816164E-02  0.1312668E+00
        -11   -1    0    0    0    0  0.00000000000E+00  0.00000000000E+00  0.45593999997E+02  0.45594000000E+02  0.51100000000E-03 0.  1.
         11   -1    0    0    0    0 -0.00000000000E+00 -0.00000000000E+00 -0.45593999997E+02  0.45594000000E+02  0.51100000000E-03 0. -1.
    9900012    2    1    2    0    0 -0.17061653172E+02  0.39803496337E+02  0.28644453090E+01  0.47787269862E+02  0.19999994608E+02 0.  0.
         12    1    1    2    0    0  0.17061653172E+02 -0.39803496337E+02 -0.28644453090E+01  0.43400730138E+02  0.00000000000E+00 0. -1.
         11    1    3    3    0    0  0.11131277559E+01  0.69813969055E+01 -0.50391614442E+01  0.86817109187E+01  0.51100000000E-03 0. -1.
        -11    1    3    3    0    0 -0.59269841795E+01  0.18636857137E+02  0.39105394845E+01  0.19943768568E+02  0.51100000000E-03 0.  1.
         12    1    3    3    0    0 -0.12247796749E+02  0.14185242295E+02  0.39930672687E+01  0.19161790375E+02  0.00000000000E+00 0. -1.
</event>
<event>
 7    1  0.5031164E-009  0.4778728E+02  0.7816164E-02  0.1312668E+00
        -11   -1    0    0    0    0  0.00000000000E+00  0.00000000000E+00  0.45593999997E+02  0.45594000000E+02  0.51100000000E-03 0.  1.
         11   -1    0    0    0    0 -0.00000000000E+00 -0.00000000000E+00 -0.45593999997E+02  0.45594000000E+02  0.51100000000E-03 0. -1.
    9900012    2    1    2    0    0 -0.25430760018E+02  0.18809097292E+02  0.29717287304E+02  0.47787275804E+02  0.20000021700E+02 0.  0.
         12    1    1    2    0    0  0.25430760018E+02 -0.18809097292E+02 -0.29717287304E+02  0.43400724196E+02  0.00000000000E+00 0. -1.
         11    1    3    3    0    0 -0.26491086490E+02  0.13133666212E+02  0.22204343041E+02  0.36977069946E+02  0.51100000000E-03 0. -1.
        -11    1    3    3    0    0  0.31197355721E+01  0.25516165888E+01  0.38142710053E+01  0.55490684640E+01  0.51100000000E-03 0.  1.
         12    1    3    3    0    0 -0.20594090997E+01  0.31238144904E+01  0.36986732582E+01  0.52611373943E+01  0.00000000000E+00 0. -1.
</event>
<event>
 7    1  0.5031164E-009  0.4778727E+02  0.7816164E-02  0.1312668E+00
        -11   -1    0    0    0    0  0.00000000000E+00  0.00000000000E+00  0.45593999997E+02  0.45594000000E+02  0.51100000000E-03 0.  1.
         11   -1    0    0    0    0 -0.00000000000E+00 -0.00000000000E+00 -0.45593999997E+02  0.45594000000E+02  0.51100000000E-03 0. -1.
    9900012    2    1    2    0    0 -0.57931853752E+01  0.32854532019E+02  0.27760438903E+02  0.47787271446E+02  0.20000001831E+02 0.  0.
         12    1    1    2    0    0  0.57931853752E+01 -0.32854532019E+02 -0.27760438903E+02  0.43400728554E+02  0.00000000000E+00 0. -1.
         11    1    3    3    0    0 -0.70569983283E+00  0.49311803826E+01 -0.71053826462E+00  0.50318403299E+01  0.51100000000E-03 0. -1.
        -11    1    3    3    0    0 -0.78735063007E+01  0.20926371652E+02  0.13827797219E+02  0.26289030187E+02  0.51100000000E-03 0.  1.
        -12    1    3    3    0    0  0.27860207582E+01  0.69969799845E+01  0.14643179948E+02  0.16466400929E+02  0.00000000000E+00 0.  1.
</event>
<event>
 7    1  0.5031164E-009  0.4778727E+02  0.7816164E-02  0.1312668E+00
        -11   -1    0    0    0    0  0.00000000000E+00  0.00000000000E+00  0.45593999997E+02  0.45594000000E+02  0.51100000000E-03 0. -1.
         11   -1    0    0    0    0 -0.00000000000E+00 -0.00000000000E+00 -0.45593999997E+02  0.45594000000E+02  0.51100000000E-03 0.  1.
    9900012    2    1    2    0    0  0.27077008082E+02  0.22048569282E+02 -0.25774396047E+02  0.47787271139E+02  0.20000000432E+02 0.  0.
         12    1    1    2    0    0 -0.27077008082E+02 -0.22048569282E+02  0.25774396047E+02  0.43400728861E+02  0.00000000000E+00 0. -1.
         11    1    3    3    0    0 -0.88217906585E+00  0.72352998015E+01 -0.47743533848E+01  0.87133376858E+01  0.51100000000E-03 0. -1.
        -11    1    3    3    0    0  0.26074671076E+02  0.11043897467E+02 -0.15963104528E+02  0.32506566251E+02  0.51100000000E-03 0.  1.
        -12    1    3    3    0    0  0.18845160716E+01  0.37693720135E+01 -0.50369381350E+01  0.65673672028E+01  0.00000000000E+00 0.  1.
</event>
<event>
 7    1  0.5031164E-009  0.4778727E+02  0.7816164E-02  0.1312668E+00
        -11   -1    0    0    0    0  0.00000000000E+00  0.00000000000E+00  0.45593999997E+02  0.45594000000E+02  0.51100000000E-03 0.  1.
         11   -1    0    0    0    0 -0.00000000000E+00 -0.00000000000E+00 -0.45593999997E+02  0.45594000000E+02  0.51100000000E-03 0. -1.
    9900012    2    1    2    0    0  0.36222231516E+02 -0.19231573230E+02  0.14202817307E+02  0.47787268620E+02  0.19999988947E+02 0.  0.
         12    1    1    2    0    0 -0.36222231516E+02  0.19231573230E+02 -0.14202817307E+02  0.43400731380E+02  0.00000000000E+00 0. -1.
         11    1    3    3    0    0  0.10651524131E+02 -0.96204586800E+01 -0.28132101330E+00  0.14355742172E+02  0.51100000000E-03 0.  1.
        -11    1    3    3    0    0  0.17568852807E+02 -0.29803599363E+00  0.62599922673E+01  0.18653174471E+02  0.51100000000E-03 0. -1.
        -12    1    3    3    0    0  0.80018545778E+01 -0.93130785560E+01  0.82241460526E+01  0.14778351977E+02  0.00000000000E+00 0.  1.
</event>
<event>
 7    1  0.5031164E-009  0.4778727E+02  0.7816164E-02  0.1312668E+00
        -11   -1    0    0    0    0  0.00000000000E+00  0.00000000000E+00  0.45593999997E+02  0.45594000000E+02  0.51100000000E-03 0. -1.
         11   -1    0    0    0    0 -0.00000000000E+00 -0.00000000000E+00 -0.45593999997E+02  0.45594000000E+02  0.51100000000E-03 0.  1.
    9900012    2    1    2    0    0  0.26761818848E+01  0.43193178278E+02  0.32879762012E+01  0.47787269745E+02  0.19999994073E+02 0.  0.
         12    1    1    2    0    0 -0.26761818848E+01 -0.43193178278E+02 -0.32879762012E+01  0.43400730255E+02  0.00000000000E+00 0. -1.
         11    1    3    3    0    0 -0.60342961043E+00  0.40042068030E+02  0.27568065182E+01  0.40141391629E+02  0.51100000000E-03 0. -1.
        -11    1    3    3    0    0  0.11693176614E+01  0.43038567604E+01  0.19349112060E+01  0.48615191497E+01  0.51100000000E-03 0.  1.
         12    1    3    3    0    0  0.21102938339E+01 -0.11527465131E+01 -0.14037415231E+01  0.27843589661E+01  0.00000000000E+00 0. -1.
</event>
<event>
 7    1  0.5031164E-009  0.4778728E+02  0.7816164E-02  0.1312668E+00
        -11   -1    0    0    0    0  0.00000000000E+00  0.00000000000E+00  0.45593999997E+02  0.45594000000E+02  0.51100000000E-03 0. -1.
         11   -1    0    0    0    0 -0.00000000000E+00 -0.00000000000E+00 -0.45593999997E+02  0.45594000000E+02  0.51100000000E-03 0.  1.
    9900012    2    1    2    0    0  0.68555973106E+01 -0.15220724679E+02 -0.40061859647E+02  0.47787282579E+02  0.20000052593E+02 0.  0.
         12    1    1    2    0    0 -0.68555973106E+01  0.15220724679E+02  0.40061859647E+02  0.43400717421E+02  0.00000000000E+00 0. -1.
         11    1    3    3    0    0 -0.47364861303E+00 -0.28943067648E+01 -0.12432996642E+01  0.31854589895E+01  0.51100000000E-03 0. -1.
        -11    1    3    3    0    0  0.98088631168E+01 -0.62061915123E+01 -0.10934764785E+02  0.15946776787E+02  0.51100000000E-03 0.  1.
        -12    1    3    3    0    0 -0.24796171932E+01 -0.61202264019E+01 -0.27883795198E+02  0.28655046803E+02  0.00000000000E+00 0.  1.
</event>
<event>
 7    1  0.5031164E-009  0.4778727E+02  0.7816164E-02  0.1312668E+00
        -11   -1    0    0    0    0  0.00000000000E+00  0.00000000000E+00  0.45593999997E+02  0.45594000000E+02  0.51100000000E-03 0.  1.
         11   -1    0    0    0    0 -0.00000000000E+00 -0.00000000000E+00 -0.45593999997E+02  0.45594000000E+02  0.51100000000E-03 0. -1.
    9900012    2    1    2    0    0  0.23193436089E+02 -0.34234511525E+02  0.13179011665E+02  0.47787267224E+02  0.19999982583E+02 0.  0.
         12    1    1    2    0    0 -0.23193436089E+02  0.34234511525E+02 -0.13179011665E+02  0.43400732776E+02  0.00000000000E+00 0. -1.
         11    1    3    3    0    0 -0.19621951049E+01 -0.16723368227E+00  0.21133081156E+01  0.28886412353E+01  0.51100000000E-03 0. -1.
        -11    1    3    3    0    0  0.19186973807E+02 -0.30526862997E+02  0.11757563557E+02  0.37924525434E+02  0.51100000000E-03 0.  1.
         12    1    3    3    0    0  0.59686573870E+01 -0.35404148455E+01 -0.69186000778E+00  0.69741005550E+01  0.00000000000E+00 0. -1.
</event>
<event>
 7    1  0.5031164E-009  0.4778728E+02  0.7816164E-02  0.1312668E+00
        -11   -1    0    0    0    0  0.00000000000E+00  0.00000000000E+00  0.45593999997E+02  0.45594000000E+02  0.51100000000E-03 0.  1.
         11   -1    0    0    0    0 -0.00000000000E+00 -0.00000000000E+00 -0.45593999997E+02  0.45594000000E+02  0.51100000000E-03 0. -1.
    9900012    2    1    2    0    0  0.11775973103E+02  0.26771334882E+01  0.41686712988E+02  0.47787278508E+02  0.20000034031E+02 0.  0.
         12    1    1    2    0    0 -0.11775973103E+02 -0.26771334882E+01 -0.41686712988E+02  0.43400721492E+02  0.00000000000E+00 0. -1.
         11    1    3    3    0    0  0.77530796341E+01 -0.25312575407E+01  0.51667271119E+01  0.96546661186E+01  0.51100000000E-03 0. -1.
        -11    1    3    3    0    0  0.45270323319E+01  0.14163872737E+01  0.31319806248E+02  0.31676970157E+02  0.51100000000E-03 0.  1.
         12    1    3    3    0    0 -0.50413886269E+00  0.37920037553E+01  0.52001796281E+01  0.64556422328E+01  0.00000000000E+00 0. -1.
</event>
<event>
 7    1  0.5031164E-009  0.4778727E+02  0.7816164E-02  0.1312668E+00
        -11   -1    0    0    0    0  0.00000000000E+00  0.00000000000E+00  0.45593999997E+02  0.45594000000E+02  0.51100000000E-03 0. -1.
         11   -1    0    0    0    0 -0.00000000000E+00 -0.00000000000E+00 -0.45593999997E+02  0.45594000000E+02  0.51100000000E-03 0.  1.
    9900012    2    1    2    0    0  0.20476092368E+02  0.38104786407E+02 -0.35182240091E+01  0.47787274131E+02  0.20000014073E+02 0.  0.
         12    1    1    2    0    0 -0.20476092368E+02 -0.38104786407E+02  0.35182240091E+01  0.43400725869E+02  0.00000000000E+00 0. -1.
         11    1    3    3    0    0  0.77134182991E+01  0.56704559293E+01  0.30881520291E+01  0.10059203523E+02  0.51100000000E-03 0. -1.
        -11    1    3    3    0    0  0.13632779092E+02  0.25777474907E+02 -0.91294357703E+01  0.30556136472E+02  0.51100000000E-03 0.  1.
         12    1    3    3    0    0 -0.87010502293E+00  0.66568555701E+01  0.25230597321E+01  0.71719341354E+01  0.00000000000E+00 0. -1.
</event>
<event>
 7    1  0.5031164E-009  0.4778727E+02  0.7816164E-02  0.1312668E+00
        -11   -1    0    0    0    0  0.00000000000E+00  0.00000000000E+00  0.45593999997E+02  0.45594000000E+02  0.51100000000E-03 0. -1.
         11   -1    0    0    0    0 -0.00000000000E+00 -0.00000000000E+00 -0.45593999997E+02  0.45594000000E+02  0.51100000000E-03 0.  1.
    9900012    2    1    2    0    0  0.40367769114E+02 -0.10506368606E+02 -0.11986765809E+02  0.47787272828E+02  0.20000008133E+02 0.  0.
         12    1    1    2    0    0 -0.40367769114E+02  0.10506368606E+02  0.11986765809E+02  0.43400727172E+02  0.00000000000E+00 0. -1.
         11    1    3    3    0    0  0.10269855038E+02 -0.28104842212E+01  0.42129436989E+01  0.11450661070E+02  0.51100000000E-03 0. -1.
        -11    1    3    3    0    0  0.26614802638E+02 -0.50632735623E+01 -0.10271074533E+02  0.28973771431E+02  0.51100000000E-03 0.  1.
         12    1    3    3    0    0  0.34831114380E+01 -0.26326108222E+01 -0.59286349746E+01  0.73628403278E+01  0.00000000000E+00 0. -1.
</event>
<event>
 7    1  0.5031164E-009  0.4778727E+02  0.7816164E-02  0.1312668E+00
        -11   -1    0    0    0    0  0.00000000000E+00  0.00000000000E+00  0.45593999997E+02  0.45594000000E+02  0.51100000000E-03 0.  1.
         11   -1    0    0    0    0 -0.00000000000E+00 -0.00000000000E+00 -0.45593999997E+02  0.45594000000E+02  0.51100000000E-03 0. -1.
    9900012    2    1    2    0    0  0.33123724423E+02 -0.27654995421E+02  0.46522330910E+01  0.47787272309E+02  0.20000005765E+02 0.  0.
         12    1    1    2    0    0 -0.33123724423E+02  0.27654995421E+02 -0.46522330910E+01  0.43400727691E+02  0.00000000000E+00 0. -1.
         11    1    3    3    0    0  0.22947706986E+01 -0.81987931301E+01 -0.32991950035E+01  0.91307649889E+01  0.51100000000E-03 0. -1.
        -11    1    3    3    0    0  0.90568411176E+01 -0.49351441624E+01  0.70069619790E+01  0.12469143329E+02  0.51100000000E-03 0.  1.
         12    1    3    3    0    0  0.21772112607E+02 -0.14521058129E+02  0.94446611543E+00  0.26187363991E+02  0.00000000000E+00 0. -1.
</event>
<event>
 7    1  0.5031164E-009  0.4778727E+02  0.7816164E-02  0.1312668E+00
        -11   -1    0    0    0    0  0.00000000000E+00  0.00000000000E+00  0.45593999997E+02  0.45594000000E+02  0.51100000000E-03 0.  1.
         11   -1    0    0    0    0 -0.00000000000E+00 -0.00000000000E+00 -0.45593999997E+02  0.45594000000E+02  0.51100000000E-03 0. -1.
    9900012    2    1    2    0    0 -0.10409943023E+02 -0.10286381208E+02  0.40858861334E+02  0.47787273029E+02  0.20000009048E+02 0.  0.
         12    1    1    2    0    0  0.10409943023E+02  0.10286381208E+02 -0.40858861334E+02  0.43400726971E+02  0.00000000000E+00 0. -1.
         11    1    3    3    0    0 -0.20200422204E+01 -0.12897173873E+02  0.14196928740E+02  0.19286535469E+02  0.51100000000E-03 0. -1.
        -11    1    3    3    0    0 -0.79193371316E+01  0.31091119697E+01  0.19116268670E+02  0.20924010274E+02  0.51100000000E-03 0.  1.
         12    1    3    3    0    0 -0.47056367134E+00 -0.49831930403E+00  0.75456639246E+01  0.75767272856E+01  0.00000000000E+00 0. -1.
</event>
<event>
 7    1  0.6150912E-009  0.4778727E+02  0.7816164E-02  0.1312668E+00
        -11   -1    0    0    0    0  0.00000000000E+00  0.00000000000E+00  0.45593999997E+02  0.45594000000E+02  0.51100000000E-03 0.  1.
         11   -1    0    0    0    0 -0.00000000000E+00 -0.00000000000E+00 -0.45593999997E+02  0.45594000000E+02  0.51100000000E-03 0. -1.
    9900012    2    1    2    0    0 -0.37682253589E+02  0.14071647027E+02  0.16299070889E+02  0.47787271925E+02  0.20000004015E+02 0.  0.
         12    1    1    2    0    0  0.37682253589E+02 -0.14071647027E+02 -0.16299070889E+02  0.43400728075E+02  0.00000000000E+00 0. -1.
         11    1    3    3    0    0  0.90952357986E-01  0.31459178653E+01  0.90417869542E+00  0.32745398029E+01  0.51100000000E-03 0. -1.
        -11    1    3    3    0    0 -0.36914504802E+02  0.10181971389E+02  0.10810522667E+02  0.39789704784E+02  0.51100000000E-03 0.  1.
        -12    1    3    3    0    0 -0.85870114433E+00  0.74375777245E+00  0.45843695271E+01  0.47230273385E+01  0.00000000000E+00 0.  1.
</event>
<event>
 7    1  0.5031164E-009  0.4778722E+02  0.7816164E-02  0.1312668E+00
        -11   -1    0    0    0    0  0.00000000000E+00  0.00000000000E+00  0.45593999997E+02  0.45594000000E+02  0.51100000000E-03 0.  1.
         11   -1    0    0    0    0 -0.00000000000E+00 -0.00000000000E+00 -0.45593999997E+02  0.45594000000E+02  0.51100000000E-03 0. -1.
    9900012    2    1    2    0    0  0.16182071492E+01 -0.19820774838E+02  0.38576497146E+02  0.47787218422E+02  0.19999760072E+02 0.  0.
         12    1    1    2    0    0 -0.16182071492E+01  0.19820774838E+02 -0.38576497146E+02  0.43400781578E+02  0.00000000000E+00 0. -1.
         11    1    3    3    0    0 -0.33702847955E+01  0.22036833885E+01  0.25250470957E+01  0.47529888677E+01  0.51100000000E-03 0. -1.
        -11    1    3    3    0    0  0.47634314435E+01 -0.12840104655E+02  0.16583931826E+02  0.21507797697E+02  0.51100000000E-03 0.  1.
         12    1    3    3    0    0  0.22506050130E+00 -0.91843535710E+01  0.19467518223E+02  0.21526431858E+02  0.00000000000E+00 0. -1.
</event>
<event>
 7    1  0.5031164E-009  0.4778730E+02  0.7816164E-02  0.1312668E+00
        -11   -1    0    0    0    0  0.00000000000E+00  0.00000000000E+00  0.45593999997E+02  0.45594000000E+02  0.51100000000E-03 0. -1.
         11   -1    0    0    0    0 -0.00000000000E+00 -0.00000000000E+00 -0.45593999997E+02  0.45594000000E+02  0.51100000000E-03 0.  1.
    9900012    2    1    2    0    0  0.24594655728E+02  0.33220351082E+02 -0.13233728139E+02  0.47787304420E+02  0.20000152171E+02 0.  0.
         12    1    1    2    0    0 -0.24594655728E+02 -0.33220351082E+02  0.13233728139E+02  0.43400695580E+02  0.00000000000E+00 0. -1.
         11    1    3    3    0    0 -0.78190130962E+00 -0.10582259002E+01  0.14337244917E+01  0.19459645148E+01  0.51100000000E-03 0. -1.
        -11    1    3    3    0    0  0.16566718952E+02  0.20632596926E+02 -0.49677686337E+01  0.26922833399E+02  0.51100000000E-03 0.  1.
         12    1    3    3    0    0  0.88098380857E+01  0.13645980056E+02 -0.96996839972E+01  0.18918506506E+02  0.00000000000E+00 0. -1.
</event>
<event>
 7    1  0.5031164E-009  0.4778728E+02  0.7816164E-02  0.1312668E+00
        -11   -1    0    0    0    0  0.00000000000E+00  0.00000000000E+00  0.45593999997E+02  0.45594000000E+02  0.51100000000E-03 0.  1.
         11   -1    0    0    0    0 -0.00000000000E+00 -0.00000000000E+00 -0.45593999997E+02  0.45594000000E+02  0.51100000000E-03 0. -1.
    9900012    2    1    2    0    0 -0.34422055378E+02  0.11420267443E+02  0.23839504010E+02  0.47787281615E+02  0.20000048193E+02 0.  0.
         12    1    1    2    0    0  0.34422055378E+02 -0.11420267443E+02 -0.23839504010E+02  0.43400718385E+02  0.00000000000E+00 0. -1.
         11    1    3    3    0    0 -0.23541690694E+02 -0.13217551847E+00  0.18158956063E+02  0.29731739886E+02  0.51100000000E-03 0. -1.
        -11    1    3    3    0    0 -0.11003222175E+02  0.86802838511E+01  0.58247267982E+01  0.15177142962E+02  0.51100000000E-03 0.  1.
        -12    1    3    3    0    0  0.12285749052E+00  0.28721591102E+01 -0.14417885073E+00  0.28783987664E+01  0.00000000000E+00 0.  1.
</event>
<event>
 7    1  0.5031164E-009  0.4778727E+02  0.7816164E-02  0.1312668E+00
        -11   -1    0    0    0    0  0.00000000000E+00  0.00000000000E+00  0.45593999997E+02  0.45594000000E+02  0.51100000000E-03 0. -1.
         11   -1    0    0    0    0 -0.00000000000E+00 -0.00000000000E+00 -0.45593999997E+02  0.45594000000E+02  0.51100000000E-03 0.  1.
    9900012    2    1    2    0    0 -0.22253172766E+02  0.18323714728E+02 -0.32444738941E+02  0.47787270692E+02  0.19999998392E+02 0.  0.
         12    1    1    2    0    0  0.22253172766E+02 -0.18323714728E+02  0.32444738941E+02  0.43400729308E+02  0.00000000000E+00 0. -1.
         11    1    3    3    0    0 -0.97040149121E+01  0.13727829044E+02 -0.26158442079E+02  0.31094779111E+02  0.51100000000E-03 0. -1.
        -11    1    3    3    0    0 -0.12022084350E+02  0.62390914646E+01 -0.63637289966E+01  0.14965086749E+02  0.51100000000E-03 0.  1.
         12    1    3    3    0    0 -0.52707350386E+00 -0.16432057810E+01  0.77432134846E-01  0.17274048318E+01  0.00000000000E+00 0. -1.
</event>
<event>
 7    1  0.5031164E-009  0.4778730E+02  0.7816164E-02  0.1312668E+00
        -11   -1    0    0    0    0  0.00000000000E+00  0.00000000000E+00  0.45593999997E+02  0.45594000000E+02  0.51100000000E-03 0.  1.
         11   -1    0    0    0    0 -0.00000000000E+00 -0.00000000000E+00 -0.45593999997E+02  0.45594000000E+02  0.51100000000E-03 0. -1.
    9900012    2    1    2    0    0 -0.15025659290E+01  0.22462106629E+02  0.37105484103E+02  0.47787298518E+02  0.20000125263E+02 0.  0.
         12    1    1    2    0    0  0.15025659290E+01 -0.22462106629E+02 -0.37105484103E+02  0.43400701482E+02  0.00000000000E+00 0. -1.
         11    1    3    3    0    0 -0.68425503857E+01  0.58773591614E+01  0.18770758214E+02  0.20825590284E+02  0.51100000000E-03 0. -1.
        -11    1    3    3    0    0 -0.18765413920E+01  0.68519902182E+00  0.35892882989E+01  0.41077848105E+01  0.51100000000E-03 0.  1.
         12    1    3    3    0    0  0.72165258487E+01  0.15899548446E+02  0.14745437590E+02  0.22853923423E+02  0.00000000000E+00 0. -1.
</event>
<event>
 7    1  0.5031164E-009  0.4778726E+02  0.7816164E-02  0.1312668E+00
        -11   -1    0    0    0    0  0.00000000000E+00  0.00000000000E+00  0.45593999997E+02  0.45594000000E+02  0.51100000000E-03 0.  1.
         11   -1    0    0    0    0 -0.00000000000E+00 -0.00000000000E+00 -0.45593999997E+02  0.45594000000E+02  0.51100000000E-03 0. -1.
    9900012    2    1    2    0    0  0.34604520731E+02  0.25420625824E+02  0.63200636462E+01  0.47787259491E+02  0.19999947322E+02 0.  0.
         12    1    1    2    0    0 -0.34604520731E+02 -0.25420625824E+02 -0.63200636462E+01  0.43400740509E+02  0.00000000000E+00 0. -1.
         11    1    3    3    0    0 -0.78540098898E-01  0.63870377747E+01 -0.17090068695E+01  0.66121951592E+01  0.51100000000E-03 0. -1.
        -11    1    3    3    0    0  0.12049978492E+02  0.10942530164E+02  0.44488830914E+01  0.16874048390E+02  0.51100000000E-03 0.  1.
         12    1    3    3    0    0  0.22633082337E+02  0.80910578855E+01  0.35801874243E+01  0.24301015941E+02  0.00000000000E+00 0. -1.
</event>
<event>
 7    1  0.5031164E-009  0.4778727E+02  0.7816164E-02  0.1312668E+00
        -11   -1    0    0    0    0  0.00000000000E+00  0.00000000000E+00  0.45593999997E+02  0.45594000000E+02  0.51100000000E-03 0.  1.
         11   -1    0    0    0    0 -0.00000000000E+00 -0.00000000000E+00 -0.45593999997E+02  0.45594000000E+02  0.51100000000E-03 0. -1.
    9900012    2    1    2    0    0  0.10600588291E+02  0.39058072109E+01  0.41904599108E+02  0.47787271567E+02  0.20000002384E+02 0.  0.
         12    1    1    2    0    0 -0.10600588291E+02 -0.39058072109E+01 -0.41904599108E+02  0.43400728433E+02  0.00000000000E+00 0. -1.
         11    1    3    3    0    0  0.73478921393E+01 -0.27805497337E+01  0.37860034117E+01  0.87210548563E+01  0.51100000000E-03 0.  1.
        -11    1    3    3    0    0  0.27552507587E+01  0.68474851542E+01  0.28726934255E+02  0.29660010311E+02  0.51100000000E-03 0. -1.
        -12    1    3    3    0    0  0.49744539303E+00 -0.16112820963E+00  0.93916614409E+01  0.94062064000E+01  0.00000000000E+00 0.  1.
</event>
<event>
 7    1  0.5031164E-009  0.4778727E+02  0.7816164E-02  0.1312668E+00
        -11   -1    0    0    0    0  0.00000000000E+00  0.00000000000E+00  0.45593999997E+02  0.45594000000E+02  0.51100000000E-03 0.  1.
         11   -1    0    0    0    0 -0.00000000000E+00 -0.00000000000E+00 -0.45593999997E+02  0.45594000000E+02  0.51100000000E-03 0. -1.
    9900012    2    1    2    0    0  0.74343340593E+01  0.40040482676E+02  0.15003795513E+02  0.47787268951E+02  0.19999990453E+02 0.  0.
         12    1    1    2    0    0 -0.74343340593E+01 -0.40040482676E+02 -0.15003795513E+02  0.43400731049E+02  0.00000000000E+00 0. -1.
         11    1    3    3    0    0  0.48383213297E+01  0.43564159959E+01 -0.19901330104E+01  0.68079617566E+01  0.51100000000E-03 0. -1.
        -11    1    3    3    0    0  0.52077529890E+01  0.33262549480E+02  0.14659342556E+02  0.36720759980E+02  0.51100000000E-03 0.  1.
        -12    1    3    3    0    0 -0.26117402594E+01  0.24215172004E+01  0.23345859667E+01  0.42585472136E+01  0.00000000000E+00 0.  1.
</event>
<event>
 7    1  0.5031164E-009  0.4778727E+02  0.7816164E-02  0.1312668E+00
        -11   -1    0    0    0    0  0.00000000000E+00  0.00000000000E+00  0.45593999997E+02  0.45594000000E+02  0.51100000000E-03 0. -1.
         11   -1    0    0    0    0 -0.00000000000E+00 -0.00000000000E+00 -0.45593999997E+02  0.45594000000E+02  0.51100000000E-03 0.  1.
    9900012    2    1    2    0    0 -0.19733531745E+02 -0.28110749195E+02 -0.26532937433E+02  0.47787271155E+02  0.20000000505E+02 0.  0.
         12    1    1    2    0    0  0.19733531745E+02  0.28110749195E+02  0.26532937433E+02  0.43400728845E+02  0.00000000000E+00 0. -1.
         11    1    3    3    0    0 -0.76028950334E+01 -0.13555461288E+02 -0.17881465218E+02  0.23691799050E+02  0.51100000000E-03 0. -1.
        -11    1    3    3    0    0 -0.51586284241E+01 -0.19585575374E+01 -0.79547314729E+01  0.96811749242E+01  0.51100000000E-03 0.  1.
         12    1    3    3    0    0 -0.69720082874E+01 -0.12596730369E+02 -0.69674074203E+00  0.14414297181E+02  0.00000000000E+00 0. -1.
</event>
<event>
 7    1  0.5031164E-009  0.4778726E+02  0.7816164E-02  0.1312668E+00
        -11   -1    0    0    0    0  0.00000000000E+00  0.00000000000E+00  0.45593999997E+02  0.45594000000E+02  0.51100000000E-03 0. -1.
         11   -1    0    0    0    0 -0.00000000000E+00 -0.00000000000E+00 -0.45593999997E+02  0.45594000000E+02  0.51100000000E-03 0.  1.
    9900012    2    1    2    0    0  0.26011101567E+02 -0.33820747765E+02 -0.79500965388E+01  0.47787257851E+02  0.19999939844E+02 0.  0.
         12    1    1    2    0    0 -0.26011101567E+02  0.33820747765E+02  0.79500965388E+01  0.43400742149E+02  0.00000000000E+00 0. -1.
         11    1    3    3    0    0 -0.89337351172E-01 -0.80378897467E+01  0.38911776725E+01  0.89306728013E+01  0.51100000000E-03 0. -1.
        -11    1    3    3    0    0  0.23624315816E+02 -0.25032481148E+02 -0.10937596673E+02  0.36115985816E+02  0.51100000000E-03 0.  1.
         12    1    3    3    0    0  0.24761231019E+01 -0.75037687019E+00 -0.90367753863E+00  0.27405992332E+01  0.00000000000E+00 0. -1.
</event>
<event>
 7    1  0.5031164E-009  0.4778727E+02  0.7816164E-02  0.1312668E+00
        -11   -1    0    0    0    0  0.00000000000E+00  0.00000000000E+00  0.45593999997E+02  0.45594000000E+02  0.51100000000E-03 0. -1.
         11   -1    0    0    0    0 -0.00000000000E+00 -0.00000000000E+00 -0.45593999997E+02  0.45594000000E+02  0.51100000000E-03 0.  1.
    9900012    2    1    2    0    0 -0.29205383118E+02 -0.60517973364E+01 -0.31528477136E+02  0.47787268156E+02  0.19999986830E+02 0.  0.
         12    1    1    2    0    0  0.29205383118E+02  0.60517973364E+01  0.31528477136E+02  0.43400731844E+02  0.00000000000E+00 0. -1.
         11    1    3    3    0    0 -0.81601990831E+00  0.25000612912E+01 -0.36751665486E+01  0.45191862510E+01  0.51100000000E-03 0. -1.
        -11    1    3    3    0    0 -0.61216278401E+01 -0.74857999806E+01 -0.35818982836E+01  0.10312202691E+02  0.51100000000E-03 0.  1.
        -12    1    3    3    0    0 -0.22267735370E+02 -0.10660586470E+01 -0.24271412304E+02  0.32955879214E+02  0.00000000000E+00 0.  1.
</event>
<event>
 7    1  0.5031164E-009  0.4778727E+02  0.7816164E-02  0.1312668E+00
        -11   -1    0    0    0    0  0.00000000000E+00  0.00000000000E+00  0.45593999997E+02  0.45594000000E+02  0.51100000000E-03 0. -1.
         11   -1    0    0    0    0 -0.00000000000E+00 -0.00000000000E+00 -0.45593999997E+02  0.45594000000E+02  0.51100000000E-03 0.  1.
    9900012    2    1    2    0    0  0.28023887722E+02  0.21030253585E+02 -0.25612762892E+02  0.47787268763E+02  0.19999989598E+02 0.  0.
         12    1    1    2    0    0 -0.28023887722E+02 -0.21030253585E+02  0.25612762892E+02  0.43400731237E+02  0.00000000000E+00 0. -1.
         11    1    3    3    0    0  0.24879975202E+02  0.14477251666E+02 -0.16881242882E+02  0.33370351262E+02  0.51100000000E-03 0.  1.
        -11    1    3    3    0    0 -0.72108840590E+00  0.60614478258E+01 -0.16320085976E+01  0.63185892854E+01  0.51100000000E-03 0. -1.
         12    1    3    3    0    0  0.38650009257E+01  0.49155409359E+00 -0.70995114126E+01  0.80983282152E+01  0.00000000000E+00 0. -1.
</event>
<event>
 7    1  0.5031164E-009  0.4778727E+02  0.7816164E-02  0.1312668E+00
        -11   -1    0    0    0    0  0.00000000000E+00  0.00000000000E+00  0.45593999997E+02  0.45594000000E+02  0.51100000000E-03 0. -1.
         11   -1    0    0    0    0 -0.00000000000E+00 -0.00000000000E+00 -0.45593999997E+02  0.45594000000E+02  0.51100000000E-03 0.  1.
    9900012    2    1    2    0    0  0.40103998302E+01 -0.11305459028E+02 -0.41710027373E+02  0.47787273116E+02  0.20000009443E+02 0.  0.
         12    1    1    2    0    0 -0.40103998302E+01  0.11305459028E+02  0.41710027373E+02  0.43400726884E+02  0.00000000000E+00 0. -1.
         11    1    3    3    0    0  0.68043620711E+01 -0.40998781706E+01 -0.30592120056E+02  0.31606742223E+02  0.51100000000E-03 0. -1.
        -11    1    3    3    0    0 -0.38020002460E+01  0.61684301540E+00 -0.32438185202E+01  0.50356787060E+01  0.51100000000E-03 0.  1.
        -12    1    3    3    0    0  0.10080380052E+01 -0.78224238733E+01 -0.78740887969E+01  0.11144852186E+02  0.00000000000E+00 0.  1.
</event>
<event>
 7    1  0.5031164E-009  0.4778727E+02  0.7816164E-02  0.1312668E+00
        -11   -1    0    0    0    0  0.00000000000E+00  0.00000000000E+00  0.45593999997E+02  0.45594000000E+02  0.51100000000E-03 0. -1.
         11   -1    0    0    0    0 -0.00000000000E+00 -0.00000000000E+00 -0.45593999997E+02  0.45594000000E+02  0.51100000000E-03 0.  1.
    9900012    2    1    2    0    0  0.41715879442E+02 -0.11931887850E+02 -0.10193359340E+01  0.47787267390E+02  0.19999983339E+02 0.  0.
         12    1    1    2    0    0 -0.41715879442E+02  0.11931887850E+02  0.10193359340E+01  0.43400732610E+02  0.00000000000E+00 0. -1.
         11    1    3    3    0    0  0.16978506176E+01 -0.19921331003E+01 -0.31780616846E+01  0.41172038255E+01  0.51100000000E-03 0. -1.
        -11    1    3    3    0    0  0.19439884136E+02 -0.11809001239E+02 -0.99793283079E+00  0.22767465289E+02  0.51100000000E-03 0.  1.
        -12    1    3    3    0    0  0.20578144689E+02  0.18692464901E+01  0.31566585813E+01  0.20902598275E+02  0.00000000000E+00 0.  1.
</event>
<event>
 7    1  0.5031164E-009  0.4778727E+02  0.7816164E-02  0.1312668E+00
        -11   -1    0    0    0    0  0.00000000000E+00  0.00000000000E+00  0.45593999997E+02  0.45594000000E+02  0.51100000000E-03 0.  1.
         11   -1    0    0    0    0 -0.00000000000E+00 -0.00000000000E+00 -0.45593999997E+02  0.45594000000E+02  0.51100000000E-03 0. -1.
    9900012    2    1    2    0    0 -0.56071754314E+01 -0.15166126565E+02  0.40276191584E+02  0.47787269363E+02  0.19999992335E+02 0.  0.
         12    1    1    2    0    0  0.56071754314E+01  0.15166126565E+02 -0.40276191584E+02  0.43400730637E+02  0.00000000000E+00 0. -1.
         11    1    3    3    0    0 -0.79212429911E+00  0.90817113384E+00 -0.31514990920E-02  0.12050916590E+01  0.51100000000E-03 0. -1.
        -11    1    3    3    0    0  0.41589322709E+01 -0.12627882265E+02  0.27925251099E+02  0.30928623916E+02  0.51100000000E-03 0.  1.
        -12    1    3    3    0    0 -0.89739834031E+01 -0.34464154342E+01  0.12354091984E+02  0.15653553788E+02  0.00000000000E+00 0.  1.
</event>
<event>
 7    1  0.5031164E-009  0.4778727E+02  0.7816164E-02  0.1312668E+00
        -11   -1    0    0    0    0  0.00000000000E+00  0.00000000000E+00  0.45593999997E+02  0.45594000000E+02  0.51100000000E-03 0.  1.
         11   -1    0    0    0    0 -0.00000000000E+00 -0.00000000000E+00 -0.45593999997E+02  0.45594000000E+02  0.51100000000E-03 0. -1.
    9900012    2    1    2    0    0 -0.13295868492E+02 -0.21358263280E+02  0.35364782943E+02  0.47787269569E+02  0.19999993275E+02 0.  0.
         12    1    1    2    0    0  0.13295868492E+02  0.21358263280E+02 -0.35364782943E+02  0.43400730431E+02  0.00000000000E+00 0. -1.
         11    1    3    3    0    0  0.77888181084E+00 -0.35822313623E+00  0.38149306869E+01  0.39100737969E+01  0.51100000000E-03 0. -1.
        -11    1    3    3    0    0 -0.80415435426E+01 -0.12327997688E+02  0.29706905762E+02  0.33153373882E+02  0.51100000000E-03 0.  1.
        -12    1    3    3    0    0 -0.60332067604E+01 -0.86720424553E+01  0.18429464943E+01  0.10723821891E+02  0.00000000000E+00 0.  1.
</event>
<event>
 7    1  0.5031164E-009  0.4778727E+02  0.7816164E-02  0.1312668E+00
        -11   -1    0    0    0    0  0.00000000000E+00  0.00000000000E+00  0.45593999997E+02  0.45594000000E+02  0.51100000000E-03 0.  1.
         11   -1    0    0    0    0 -0.00000000000E+00 -0.00000000000E+00 -0.45593999997E+02  0.45594000000E+02  0.51100000000E-03 0. -1.
    9900012    2    1    2    0    0  0.24594486268E+02  0.35637318545E+02  0.29523311121E+01  0.47787268591E+02  0.19999988812E+02 0.  0.
         12    1    1    2    0    0 -0.24594486268E+02 -0.35637318545E+02 -0.29523311121E+01  0.43400731409E+02  0.00000000000E+00 0. -1.
         11    1    3    3    0    0 -0.13477855124E+01 -0.75585337784E+00 -0.11616904247E+01  0.19332265827E+01  0.51100000000E-03 0. -1.
        -11    1    3    3    0    0  0.14570722856E+02  0.14677049721E+02  0.51705441638E+01  0.21317980211E+02  0.51100000000E-03 0.  1.
        -12    1    3    3    0    0  0.11371548924E+02  0.21716122202E+02 -0.10565226271E+01  0.24536061797E+02  0.00000000000E+00 0.  1.
</event>
<event>
 7    1  0.5031164E-009  0.4778727E+02  0.7816164E-02  0.1312668E+00
        -11   -1    0    0    0    0  0.00000000000E+00  0.00000000000E+00  0.45593999997E+02  0.45594000000E+02  0.51100000000E-03 0.  1.
         11   -1    0    0    0    0 -0.00000000000E+00 -0.00000000000E+00 -0.45593999997E+02  0.45594000000E+02  0.51100000000E-03 0. -1.
    9900012    2    1    2    0    0 -0.42250554039E+02 -0.30310472156E+01  0.94512677822E+01  0.47787273894E+02  0.20000012994E+02 0.  0.
         12    1    1    2    0    0  0.42250554039E+02  0.30310472156E+01 -0.94512677822E+01  0.43400726106E+02  0.00000000000E+00 0. -1.
         11    1    3    3    0    0 -0.16201533505E+02 -0.82219708933E+01 -0.22666108835E+01  0.18309233147E+02  0.51100000000E-03 0. -1.
        -11    1    3    3    0    0 -0.12413752998E+02  0.29199035248E+01  0.83742009618E+01  0.15256288608E+02  0.51100000000E-03 0.  1.
        -12    1    3    3    0    0 -0.13635267536E+02  0.22710201529E+01  0.33436777039E+01  0.14221752139E+02  0.00000000000E+00 0.  1.
</event>
<event>
 7    1  0.5031164E-009  0.4778727E+02  0.7816164E-02  0.1312668E+00
        -11   -1    0    0    0    0  0.00000000000E+00  0.00000000000E+00  0.45593999997E+02  0.45594000000E+02  0.51100000000E-03 0.  1.
         11   -1    0    0    0    0 -0.00000000000E+00 -0.00000000000E+00 -0.45593999997E+02  0.45594000000E+02  0.51100000000E-03 0. -1.
    9900012    2    1    2    0    0 -0.33980530486E+02 -0.26578980741E+02 -0.47439310500E+01  0.47787267850E+02  0.19999985435E+02 0.  0.
         12    1    1    2    0    0  0.33980530486E+02  0.26578980741E+02  0.47439310500E+01  0.43400732150E+02  0.00000000000E+00 0. -1.
         11    1    3    3    0    0 -0.26574644897E+01 -0.38158599675E+00 -0.22979999095E+01  0.35339113221E+01  0.51100000000E-03 0. -1.
        -11    1    3    3    0    0 -0.27499143378E+01 -0.83214016105E+01 -0.56023434652E+01  0.10401634785E+02  0.51100000000E-03 0.  1.
        -12    1    3    3    0    0 -0.28573151658E+02 -0.17875993134E+02  0.31564123247E+01  0.33851721743E+02  0.00000000000E+00 0.  1.
</event>
<event>
 7    1  0.5031164E-009  0.4778727E+02  0.7816164E-02  0.1312668E+00
        -11   -1    0    0    0    0  0.00000000000E+00  0.00000000000E+00  0.45593999997E+02  0.45594000000E+02  0.51100000000E-03 0.  1.
         11   -1    0    0    0    0 -0.00000000000E+00 -0.00000000000E+00 -0.45593999997E+02  0.45594000000E+02  0.51100000000E-03 0. -1.
    9900012    2    1    2    0    0  0.30955213144E+02  0.29404408975E+02  0.77960708824E+01  0.47787271790E+02  0.20000003400E+02 0.  0.
         12    1    1    2    0    0 -0.30955213144E+02 -0.29404408975E+02 -0.77960708824E+01  0.43400728210E+02  0.00000000000E+00 0. -1.
         11    1    3    3    0    0  0.67723118416E+01  0.15606910072E+02  0.28093723235E+01  0.17243329805E+02  0.51100000000E-03 0. -1.
        -11    1    3    3    0    0  0.15087284983E+02  0.31418344060E+01  0.59063988398E+01  0.16504024937E+02  0.51100000000E-03 0.  1.
         12    1    3    3    0    0  0.90956163189E+01  0.10655664498E+02 -0.91970028095E+00  0.14039917048E+02  0.00000000000E+00 0. -1.
</event>
<event>
 7    1  0.5031164E-009  0.4778727E+02  0.7816164E-02  0.1312668E+00
        -11   -1    0    0    0    0  0.00000000000E+00  0.00000000000E+00  0.45593999997E+02  0.45594000000E+02  0.51100000000E-03 0.  1.
         11   -1    0    0    0    0 -0.00000000000E+00 -0.00000000000E+00 -0.45593999997E+02  0.45594000000E+02  0.51100000000E-03 0. -1.
    9900012    2    1    2    0    0  0.31654075497E+02 -0.47375447693E+01  0.29312084102E+02  0.47787273043E+02  0.20000009111E+02 0.  0.
         12    1    1    2    0    0 -0.31654075497E+02  0.47375447693E+01 -0.29312084102E+02  0.43400726957E+02  0.00000000000E+00 0. -1.
         11    1    3    3    0    0  0.61495532918E+01 -0.11515627936E+01  0.44502900763E+00  0.62722526763E+01  0.51100000000E-03 0. -1.
        -11    1    3    3    0    0  0.11786007848E+02  0.44793455962E+01  0.68506238180E+01  0.14349409915E+02  0.51100000000E-03 0.  1.
        -12    1    3    3    0    0  0.13718514357E+02 -0.80653275719E+01  0.22016431277E+02  0.27165610451E+02  0.00000000000E+00 0.  1.
</event>
<event>
 7    1  0.5031164E-009  0.4778727E+02  0.7816164E-02  0.1312668E+00
        -11   -1    0    0    0    0  0.00000000000E+00  0.00000000000E+00  0.45593999997E+02  0.45594000000E+02  0.51100000000E-03 0.  1.
         11   -1    0    0    0    0 -0.00000000000E+00 -0.00000000000E+00 -0.45593999997E+02  0.45594000000E+02  0.51100000000E-03 0. -1.
    9900012    2    1    2    0    0 -0.41229804650E+02  0.81655232710E+01  0.10818987683E+02  0.47787273552E+02  0.20000011433E+02 0.  0.
         12    1    1    2    0    0  0.41229804650E+02 -0.81655232710E+01 -0.10818987683E+02  0.43400726448E+02  0.00000000000E+00 0. -1.
         11    1    3    3    0    0 -0.12231758346E+02  0.90433929313E+01  0.63579225200E+01  0.16487026626E+02  0.51100000000E-03 0. -1.
        -11    1    3    3    0    0 -0.23076164434E+02  0.19705360825E+01 -0.33880983214E+00  0.23162624415E+02  0.51100000000E-03 0.  1.
        -12    1    3    3    0    0 -0.59218818703E+01 -0.28484057428E+01  0.47998749953E+01  0.81376225110E+01  0.00000000000E+00 0.  1.
</event>
<event>
 7    1  0.5031164E-009  0.4778727E+02  0.7816164E-02  0.1312668E+00
        -11   -1    0    0    0    0  0.00000000000E+00  0.00000000000E+00  0.45593999997E+02  0.45594000000E+02  0.51100000000E-03 0.  1.
         11   -1    0    0    0    0 -0.00000000000E+00 -0.00000000000E+00 -0.45593999997E+02  0.45594000000E+02  0.51100000000E-03 0. -1.
    9900012    2    1    2    0    0 -0.37394974984E+01  0.18252562641E+02  0.39198007470E+02  0.47787266434E+02  0.19999978978E+02 0.  0.
         12    1    1    2    0    0  0.37394974984E+01 -0.18252562641E+02 -0.39198007470E+02  0.43400733566E+02  0.00000000000E+00 0. -1.
         11    1    3    3    0    0 -0.42728438327E+01 -0.67708248703E+00  0.70035583933E+00  0.43824803110E+01  0.51100000000E-03 0. -1.
        -11    1    3    3    0    0 -0.14225085368E+01  0.17252986305E+02  0.35139184809E+02  0.39172073934E+02  0.51100000000E-03 0.  1.
        -12    1    3    3    0    0  0.19558548712E+01  0.16766588229E+01  0.33584668211E+01  0.42327121889E+01  0.00000000000E+00 0.  1.
</event>
<event>
 7    1  0.5031164E-009  0.4778727E+02  0.7816164E-02  0.1312668E+00
        -11   -1    0    0    0    0  0.00000000000E+00  0.00000000000E+00  0.45593999997E+02  0.45594000000E+02  0.51100000000E-03 0.  1.
         11   -1    0    0    0    0 -0.00000000000E+00 -0.00000000000E+00 -0.45593999997E+02  0.45594000000E+02  0.51100000000E-03 0. -1.
    9900012    2    1    2    0    0 -0.21017877014E+02  0.90720027084E+01  0.36872359580E+02  0.47787270879E+02  0.19999999244E+02 0.  0.
         12    1    1    2    0    0  0.21017877014E+02 -0.90720027084E+01 -0.36872359580E+02  0.43400729121E+02  0.00000000000E+00 0. -1.
         11    1    3    3    0    0 -0.25809005169E+01 -0.26570556484E+01 -0.29202697275E+00  0.37156792395E+01  0.51100000000E-03 0. -1.
        -11    1    3    3    0    0 -0.79667606997E+01  0.64253114460E+01  0.92715718938E+01  0.13809994528E+02  0.51100000000E-03 0.  1.
         12    1    3    3    0    0 -0.10470215797E+02  0.53037469109E+01  0.27892814659E+02  0.30261597111E+02  0.00000000000E+00 0. -1.
</event>
<event>
 7    1  0.5031164E-009  0.4778727E+02  0.7816164E-02  0.1312668E+00
        -11   -1    0    0    0    0  0.00000000000E+00  0.00000000000E+00  0.45593999997E+02  0.45594000000E+02  0.51100000000E-03 0.  1.
         11   -1    0    0    0    0 -0.00000000000E+00 -0.00000000000E+00 -0.45593999997E+02  0.45594000000E+02  0.51100000000E-03 0. -1.
    9900012    2    1    2    0    0 -0.23336630144E+02  0.35952809745E+02  0.68132628384E+01  0.47787269759E+02  0.19999994137E+02 0.  0.
         12    1    1    2    0    0  0.23336630144E+02 -0.35952809745E+02 -0.68132628384E+01  0.43400730241E+02  0.00000000000E+00 0. -1.
         11    1    3    3    0    0 -0.74057407925E+01  0.23210743070E+02 -0.11801509767E+01  0.24392136994E+02  0.51100000000E-03 0. -1.
        -11    1    3    3    0    0 -0.21004986563E+01  0.12397544760E+01 -0.16886575820E+01  0.29665890272E+01  0.51100000000E-03 0.  1.
         12    1    3    3    0    0 -0.13830390695E+02  0.11502312198E+02  0.96820713971E+01  0.20428543737E+02  0.00000000000E+00 0. -1.
</event>
<event>
 7    1  0.5031164E-009  0.4778727E+02  0.7816164E-02  0.1312668E+00
        -11   -1    0    0    0    0  0.00000000000E+00  0.00000000000E+00  0.45593999997E+02  0.45594000000E+02  0.51100000000E-03 0. -1.
         11   -1    0    0    0    0 -0.00000000000E+00 -0.00000000000E+00 -0.45593999997E+02  0.45594000000E+02  0.51100000000E-03 0.  1.
    9900012    2    1    2    0    0  0.91838313379E+01 -0.41927746931E+02  0.64299664884E+01  0.47787272013E+02  0.20000004415E+02 0.  0.
         12    1    1    2    0    0 -0.91838313379E+01  0.41927746931E+02 -0.64299664884E+01  0.43400727987E+02  0.00000000000E+00 0. -1.
         11    1    3    3    0    0  0.10542020380E+02 -0.14485494918E+02 -0.26510060555E+01  0.18110538095E+02  0.51100000000E-03 0. -1.
        -11    1    3    3    0    0  0.14262899099E+01 -0.20239121713E+02  0.48095511786E+01  0.20851573883E+02  0.51100000000E-03 0.  1.
         12    1    3    3    0    0 -0.27844789519E+01 -0.72031303001E+01  0.42714213653E+01  0.88251600345E+01  0.00000000000E+00 0. -1.
</event>
<event>
 7    1  0.5031164E-009  0.4778727E+02  0.7816164E-02  0.1312668E+00
        -11   -1    0    0    0    0  0.00000000000E+00  0.00000000000E+00  0.45593999997E+02  0.45594000000E+02  0.51100000000E-03 0.  1.
         11   -1    0    0    0    0 -0.00000000000E+00 -0.00000000000E+00 -0.45593999997E+02  0.45594000000E+02  0.51100000000E-03 0. -1.
    9900012    2    1    2    0    0  0.11997697355E+02  0.32024177342E+02  0.26723230671E+02  0.47787265746E+02  0.19999975844E+02 0.  0.
         12    1    1    2    0    0 -0.11997697355E+02 -0.32024177342E+02 -0.26723230671E+02  0.43400734254E+02  0.00000000000E+00 0. -1.
         11    1    3    3    0    0  0.10958644886E+02  0.19727657830E+02  0.56232229797E+01  0.23257106831E+02  0.51100000000E-03 0. -1.
        -11    1    3    3    0    0  0.12585191855E+01  0.62153939450E+01  0.12184391237E+02  0.13735879386E+02  0.51100000000E-03 0.  1.
         12    1    3    3    0    0 -0.21946671618E+00  0.60811255674E+01  0.89156164542E+01  0.10794279530E+02  0.00000000000E+00 0. -1.
</event>
<event>
 7    1  0.5031164E-009  0.4778727E+02  0.7816164E-02  0.1312668E+00
        -11   -1    0    0    0    0  0.00000000000E+00  0.00000000000E+00  0.45593999997E+02  0.45594000000E+02  0.51100000000E-03 0.  1.
         11   -1    0    0    0    0 -0.00000000000E+00 -0.00000000000E+00 -0.45593999997E+02  0.45594000000E+02  0.51100000000E-03 0. -1.
    9900012    2    1    2    0    0  0.70981982904E+01  0.36788931634E+02  0.21904638815E+02  0.47787272917E+02  0.20000008538E+02 0.  0.
         12    1    1    2    0    0 -0.70981982904E+01 -0.36788931634E+02 -0.21904638815E+02  0.43400727083E+02  0.00000000000E+00 0. -1.
         11    1    3    3    0    0 -0.15417546622E+01  0.61492747944E+00 -0.14021642965E+01  0.21728341443E+01  0.51100000000E-03 0. -1.
        -11    1    3    3    0    0  0.11869432251E+02  0.28995309000E+02  0.18998517126E+02  0.36640892718E+02  0.51100000000E-03 0.  1.
        -12    1    3    3    0    0 -0.32294792984E+01  0.71786951544E+01  0.43082859859E+01  0.89735460546E+01  0.00000000000E+00 0.  1.
</event>
<event>
 7    1  0.5031164E-009  0.4778726E+02  0.7816164E-02  0.1312668E+00
        -11   -1    0    0    0    0  0.00000000000E+00  0.00000000000E+00  0.45593999997E+02  0.45594000000E+02  0.51100000000E-03 0.  1.
         11   -1    0    0    0    0 -0.00000000000E+00 -0.00000000000E+00 -0.45593999997E+02  0.45594000000E+02  0.51100000000E-03 0. -1.
    9900012    2    1    2    0    0 -0.39363652713E+02 -0.78743264665E+01  0.16496115206E+02  0.47787262805E+02  0.19999962432E+02 0.  0.
         12    1    1    2    0    0  0.39363652713E+02  0.78743264665E+01 -0.16496115206E+02  0.43400737195E+02  0.00000000000E+00 0. -1.
         11    1    3    3    0    0 -0.72776871163E+01 -0.53257083517E+01  0.67983494020E+01  0.11293602351E+02  0.51100000000E-03 0. -1.
        -11    1    3    3    0    0 -0.12986001121E+02  0.25294410411E+01 -0.22198502298E+01  0.13414992821E+02  0.51100000000E-03 0.  1.
        -12    1    3    3    0    0 -0.19099964476E+02 -0.50780591559E+01  0.11917616034E+02  0.23078667633E+02  0.00000000000E+00 0.  1.
</event>
<event>
 7    1  0.5031164E-009  0.4778727E+02  0.7816164E-02  0.1312668E+00
        -11   -1    0    0    0    0  0.00000000000E+00  0.00000000000E+00  0.45593999997E+02  0.45594000000E+02  0.51100000000E-03 0.  1.
         11   -1    0    0    0    0 -0.00000000000E+00 -0.00000000000E+00 -0.45593999997E+02  0.45594000000E+02  0.51100000000E-03 0. -1.
    9900012    2    1    2    0    0  0.27031093287E+02  0.20768193623E+01  0.33891444766E+02  0.47787271765E+02  0.20000003287E+02 0.  0.
         12    1    1    2    0    0 -0.27031093287E+02 -0.20768193623E+01 -0.33891444766E+02  0.43400728235E+02  0.00000000000E+00 0. -1.
         11    1    3    3    0    0  0.12250935488E+02  0.94079060150E+01  0.11875100936E+02  0.19483637710E+02  0.51100000000E-03 0. -1.
        -11    1    3    3    0    0  0.14160369539E+02 -0.79052290733E+01  0.18123450710E+02  0.24320118793E+02  0.51100000000E-03 0.  1.
        -12    1    3    3    0    0  0.61978826066E+00  0.57414242062E+00  0.38928931194E+01  0.39835152624E+01  0.00000000000E+00 0.  1.
</event>
<event>
 7    1  0.5031164E-009  0.4778727E+02  0.7816164E-02  0.1312668E+00
        -11   -1    0    0    0    0  0.00000000000E+00  0.00000000000E+00  0.45593999997E+02  0.45594000000E+02  0.51100000000E-03 0.  1.
         11   -1    0    0    0    0 -0.00000000000E+00 -0.00000000000E+00 -0.45593999997E+02  0.45594000000E+02  0.51100000000E-03 0. -1.
    9900012    2    1    2    0    0  0.24354338235E+02 -0.30770540022E+02  0.18538157648E+02  0.47787271745E+02  0.20000003194E+02 0.  0.
         12    1    1    2    0    0 -0.24354338235E+02  0.30770540022E+02 -0.18538157648E+02  0.43400728255E+02  0.00000000000E+00 0. -1.
         11    1    3    3    0    0  0.11846447694E+02 -0.21557680909E+02  0.27960207579E+01  0.24756608441E+02  0.51100000000E-03 0. -1.
        -11    1    3    3    0    0  0.12977463995E+02 -0.95886458203E+01  0.14701176468E+02  0.21828451393E+02  0.51100000000E-03 0.  1.
         12    1    3    3    0    0 -0.46957345511E+00  0.37578670716E+00  0.10409604217E+01  0.12022119109E+01  0.00000000000E+00 0. -1.
</event>
<event>
 7    1  0.5031164E-009  0.4778727E+02  0.7816164E-02  0.1312668E+00
        -11   -1    0    0    0    0  0.00000000000E+00  0.00000000000E+00  0.45593999997E+02  0.45594000000E+02  0.51100000000E-03 0.  1.
         11   -1    0    0    0    0 -0.00000000000E+00 -0.00000000000E+00 -0.45593999997E+02  0.45594000000E+02  0.51100000000E-03 0. -1.
    9900012    2    1    2    0    0 -0.19578245832E+02  0.12579624654E+02  0.36634256269E+02  0.47787269607E+02  0.19999993445E+02 0.  0.
         12    1    1    2    0    0  0.19578245832E+02 -0.12579624654E+02 -0.36634256269E+02  0.43400730393E+02  0.00000000000E+00 0. -1.
         11    1    3    3    0    0 -0.16750400855E+02  0.23881415505E+00  0.15664990941E+02  0.22935232775E+02  0.51100000000E-03 0. -1.
        -11    1    3    3    0    0  0.10083425301E+00  0.80524796964E+01  0.11291569346E+02  0.13869107230E+02  0.51100000000E-03 0.  1.
         12    1    3    3    0    0 -0.29286792296E+01  0.42883308023E+01  0.96776959820E+01  0.10982929601E+02  0.00000000000E+00 0. -1.
</event>
<event>
 7    1  0.5031164E-009  0.4778727E+02  0.7816164E-02  0.1312668E+00
        -11   -1    0    0    0    0  0.00000000000E+00  0.00000000000E+00  0.45593999997E+02  0.45594000000E+02  0.51100000000E-03 0. -1.
         11   -1    0    0    0    0 -0.00000000000E+00 -0.00000000000E+00 -0.45593999997E+02  0.45594000000E+02  0.51100000000E-03 0.  1.
    9900012    2    1    2    0    0  0.14341944670E+01 -0.39090835053E+02 -0.18800880342E+02  0.47787269585E+02  0.19999993346E+02 0.  0.
         12    1    1    2    0    0 -0.14341944670E+01  0.39090835053E+02  0.18800880342E+02  0.43400730415E+02  0.00000000000E+00 0. -1.
         11    1    3    3    0    0 -0.47383946778E+01 -0.41406254844E+01 -0.17110277597E-01  0.62926509952E+01  0.51100000000E-03 0. -1.
        -11    1    3    3    0    0 -0.10838369039E+00 -0.22146457924E+02 -0.14971718026E+02  0.26732558548E+02  0.51100000000E-03 0.  1.
         12    1    3    3    0    0  0.62809728351E+01 -0.12803751645E+02 -0.38120520383E+01  0.14762060042E+02  0.00000000000E+00 0. -1.
</event>
<event>
 7    1  0.5031164E-009  0.4778727E+02  0.7816164E-02  0.1312668E+00
        -11   -1    0    0    0    0  0.00000000000E+00  0.00000000000E+00  0.45593999997E+02  0.45594000000E+02  0.51100000000E-03 0.  1.
         11   -1    0    0    0    0 -0.00000000000E+00 -0.00000000000E+00 -0.45593999997E+02  0.45594000000E+02  0.51100000000E-03 0. -1.
    9900012    2    1    2    0    0 -0.13245312208E+02 -0.39984831182E+02  0.10459364915E+02  0.47787270345E+02  0.19999996811E+02 0.  0.
         12    1    1    2    0    0  0.13245312208E+02  0.39984831182E+02 -0.10459364915E+02  0.43400729655E+02  0.00000000000E+00 0. -1.
         11    1    3    3    0    0 -0.18024987151E+01  0.15418496657E+01  0.12597857615E+01  0.26857703616E+01  0.51100000000E-03 0. -1.
        -11    1    3    3    0    0 -0.28392011823E+01 -0.26513361434E+02  0.35581920849E+01  0.26901303483E+02  0.51100000000E-03 0.  1.
        -12    1    3    3    0    0 -0.86036123103E+01 -0.15013319414E+02  0.56413870686E+01  0.18200196501E+02  0.00000000000E+00 0.  1.
</event>
<event>
 7    1  0.5031164E-009  0.4778728E+02  0.7816164E-02  0.1312668E+00
        -11   -1    0    0    0    0  0.00000000000E+00  0.00000000000E+00  0.45593999997E+02  0.45594000000E+02  0.51100000000E-03 0.  1.
         11   -1    0    0    0    0 -0.00000000000E+00 -0.00000000000E+00 -0.45593999997E+02  0.45594000000E+02  0.51100000000E-03 0. -1.
    9900012    2    1    2    0    0 -0.19268423400E+02 -0.30238150912E+02  0.24454136496E+02  0.47787277625E+02  0.20000030004E+02 0.  0.
         12    1    1    2    0    0  0.19268423400E+02  0.30238150912E+02 -0.24454136496E+02  0.43400722375E+02  0.00000000000E+00 0. -1.
         11    1    3    3    0    0 -0.35582285445E+01  0.15639711313E+01  0.10577146662E+01  0.40281207343E+01  0.51100000000E-03 0. -1.
        -11    1    3    3    0    0 -0.13690939926E+02 -0.31177742024E+02  0.23880903207E+02  0.41590755848E+02  0.51100000000E-03 0.  1.
        -12    1    3    3    0    0 -0.20192549291E+01 -0.62438001988E+00 -0.48448137722E+00  0.21684010429E+01  0.00000000000E+00 0.  1.
</event>
<event>
 7    1  0.5031164E-009  0.4778727E+02  0.7816164E-02  0.1312668E+00
        -11   -1    0    0    0    0  0.00000000000E+00  0.00000000000E+00  0.45593999997E+02  0.45594000000E+02  0.51100000000E-03 0.  1.
         11   -1    0    0    0    0 -0.00000000000E+00 -0.00000000000E+00 -0.45593999997E+02  0.45594000000E+02  0.51100000000E-03 0. -1.
    9900012    2    1    2    0    0 -0.97420534176E+01  0.12767049844E+02  0.40320197992E+02  0.47787268063E+02  0.19999986408E+02 0.  0.
         12    1    1    2    0    0  0.97420534176E+01 -0.12767049844E+02 -0.40320197992E+02  0.43400731937E+02  0.00000000000E+00 0. -1.
         11    1    3    3    0    0  0.32700709919E+01  0.26973169322E+01  0.14483438297E+01  0.44795739792E+01  0.51100000000E-03 0. -1.
        -11    1    3    3    0    0 -0.10440327994E+02  0.11372829614E+02  0.36290650310E+02  0.39437963972E+02  0.51100000000E-03 0.  1.
        -12    1    3    3    0    0 -0.25717964150E+01 -0.13030967021E+01  0.25812038525E+01  0.38697301125E+01  0.00000000000E+00 0.  1.
</event>
<event>
 7    1  0.5031164E-009  0.4778727E+02  0.7816164E-02  0.1312668E+00
        -11   -1    0    0    0    0  0.00000000000E+00  0.00000000000E+00  0.45593999997E+02  0.45594000000E+02  0.51100000000E-03 0.  1.
         11   -1    0    0    0    0 -0.00000000000E+00 -0.00000000000E+00 -0.45593999997E+02  0.45594000000E+02  0.51100000000E-03 0. -1.
    9900012    2    1    2    0    0 -0.52087033017E+01  0.26082639794E+02  0.34295607553E+02  0.47787269751E+02  0.19999994104E+02 0.  0.
         12    1    1    2    0    0  0.52087033017E+01 -0.26082639794E+02 -0.34295607553E+02  0.43400730249E+02  0.00000000000E+00 0. -1.
         11    1    3    3    0    0  0.36156185411E+01  0.11505364794E+01  0.75583354420E+01  0.84572375241E+01  0.51100000000E-03 0. -1.
        -11    1    3    3    0    0 -0.90371304286E+01  0.18498449001E+02  0.25502337747E+02  0.32775472120E+02  0.51100000000E-03 0.  1.
        -12    1    3    3    0    0  0.21280858573E+00  0.64336543136E+01  0.12349343633E+01  0.65545601074E+01  0.00000000000E+00 0.  1.
</event>
<event>
 7    1  0.5031164E-009  0.4778728E+02  0.7816164E-02  0.1312668E+00
        -11   -1    0    0    0    0  0.00000000000E+00  0.00000000000E+00  0.45593999997E+02  0.45594000000E+02  0.51100000000E-03 0.  1.
         11   -1    0    0    0    0 -0.00000000000E+00 -0.00000000000E+00 -0.45593999997E+02  0.45594000000E+02  0.51100000000E-03 0. -1.
    9900012    2    1    2    0    0 -0.13627286967E+02 -0.14569946205E+02  0.38543956546E+02  0.47787275712E+02  0.20000021281E+02 0.  0.
         12    1    1    2    0    0  0.13627286967E+02  0.14569946205E+02 -0.38543956546E+02  0.43400724288E+02  0.00000000000E+00 0. -1.
         11    1    3    3    0    0 -0.13888397623E+02 -0.96310201967E+01  0.17067500923E+02  0.24019652924E+02  0.51100000000E-03 0. -1.
        -11    1    3    3    0    0 -0.25440407565E+01 -0.23695513993E+01  0.18794185701E+02  0.19113040931E+02  0.51100000000E-03 0.  1.
         12    1    3    3    0    0  0.28051514127E+01 -0.25693746089E+01  0.26822699215E+01  0.46545818567E+01  0.00000000000E+00 0. -1.
</event>
<event>
 7    1  0.5031164E-009  0.4778727E+02  0.7816164E-02  0.1312668E+00
        -11   -1    0    0    0    0  0.00000000000E+00  0.00000000000E+00  0.45593999997E+02  0.45594000000E+02  0.51100000000E-03 0. -1.
         11   -1    0    0    0    0 -0.00000000000E+00 -0.00000000000E+00 -0.45593999997E+02  0.45594000000E+02  0.51100000000E-03 0.  1.
    9900012    2    1    2    0    0  0.37366079390E+02  0.22075837062E+02  0.23815925042E+00  0.47787272001E+02  0.20000004362E+02 0.  0.
         12    1    1    2    0    0 -0.37366079390E+02 -0.22075837062E+02 -0.23815925042E+00  0.43400727999E+02  0.00000000000E+00 0. -1.
         11    1    3    3    0    0  0.18722869950E+02  0.53816179567E+01 -0.38430132523E+01  0.19856394993E+02  0.51100000000E-03 0. -1.
        -11    1    3    3    0    0  0.15938674651E+02  0.13520753856E+02  0.78342147660E+01  0.22321000330E+02  0.51100000000E-03 0.  1.
        -12    1    3    3    0    0  0.27045347896E+01  0.31734652496E+01 -0.37530422633E+01  0.56098766785E+01  0.00000000000E+00 0.  1.
</event>
<event>
 7    1  0.7800151E-009  0.4778727E+02  0.7816164E-02  0.1312668E+00
        -11   -1    0    0    0    0  0.00000000000E+00  0.00000000000E+00  0.45593999997E+02  0.45594000000E+02  0.51100000000E-03 0. -1.
         11   -1    0    0    0    0 -0.00000000000E+00 -0.00000000000E+00 -0.45593999997E+02  0.45594000000E+02  0.51100000000E-03 0.  1.
    9900012    2    1    2    0    0  0.30493961357E+01 -0.25420907342E+02 -0.35044287238E+02  0.47787269420E+02  0.19999992593E+02 0.  0.
         12    1    1    2    0    0 -0.30493961357E+01  0.25420907342E+02  0.35044287238E+02  0.43400730580E+02  0.00000000000E+00 0. -1.
         11    1    3    3    0    0  0.47027811420E+01  0.55395878301E-01 -0.26446603845E+01  0.53956879064E+01  0.51100000000E-03 0. -1.
        -11    1    3    3    0    0 -0.12415264650E+01 -0.25483998194E+02 -0.27646098692E+02  0.37620238238E+02  0.51100000000E-03 0.  1.
        -12    1    3    3    0    0 -0.41185854130E+00  0.76949742293E-02 -0.47535281617E+01  0.47713432757E+01  0.00000000000E+00 0.  1.
</event>
<event>
 7    1  0.5031164E-009  0.4778727E+02  0.7816164E-02  0.1312668E+00
        -11   -1    0    0    0    0  0.00000000000E+00  0.00000000000E+00  0.45593999997E+02  0.45594000000E+02  0.51100000000E-03 0. -1.
         11   -1    0    0    0    0 -0.00000000000E+00 -0.00000000000E+00 -0.45593999997E+02  0.45594000000E+02  0.51100000000E-03 0.  1.
    9900012    2    1    2    0    0  0.10422803363E+02 -0.42099577627E+02 -0.16167839758E+01  0.47787271242E+02  0.20000000900E+02 0.  0.
         12    1    1    2    0    0 -0.10422803363E+02  0.42099577627E+02  0.16167839758E+01  0.43400728758E+02  0.00000000000E+00 0. -1.
         11    1    3    3    0    0  0.54383627651E+01 -0.31382150075E+02  0.30111319063E+01  0.31991905984E+02  0.51100000000E-03 0. -1.
        -11    1    3    3    0    0  0.34681736120E+01 -0.91879192197E+01 -0.73916424537E+01  0.12291560772E+02  0.51100000000E-03 0.  1.
         12    1    3    3    0    0  0.15162669859E+01 -0.15295083327E+01  0.27637265715E+01  0.35038044857E+01  0.00000000000E+00 0. -1.
</event>
<event>
 7    1  0.5031164E-009  0.4778727E+02  0.7816164E-02  0.1312668E+00
        -11   -1    0    0    0    0  0.00000000000E+00  0.00000000000E+00  0.45593999997E+02  0.45594000000E+02  0.51100000000E-03 0.  1.
         11   -1    0    0    0    0 -0.00000000000E+00 -0.00000000000E+00 -0.45593999997E+02  0.45594000000E+02  0.51100000000E-03 0. -1.
    9900012    2    1    2    0    0  0.22773784195E+02  0.35420305680E+02  0.10506180575E+02  0.47787272687E+02  0.20000007488E+02 0.  0.
         12    1    1    2    0    0 -0.22773784195E+02 -0.35420305680E+02 -0.10506180575E+02  0.43400727313E+02  0.00000000000E+00 0. -1.
         11    1    3    3    0    0  0.73840299246E+01  0.15439637958E+02  0.13019189337E+02  0.21503618520E+02  0.51100000000E-03 0. -1.
        -11    1    3    3    0    0  0.77872124044E+01  0.15453100773E+02 -0.13126700320E+01  0.17354022686E+02  0.51100000000E-03 0.  1.
         12    1    3    3    0    0  0.76025418664E+01  0.45275669496E+01 -0.12003387300E+01  0.89296314807E+01  0.00000000000E+00 0. -1.
</event>
<event>
 7    1  0.5031164E-009  0.4778727E+02  0.7816164E-02  0.1312668E+00
        -11   -1    0    0    0    0  0.00000000000E+00  0.00000000000E+00  0.45593999997E+02  0.45594000000E+02  0.51100000000E-03 0. -1.
         11   -1    0    0    0    0 -0.00000000000E+00 -0.00000000000E+00 -0.45593999997E+02  0.45594000000E+02  0.51100000000E-03 0.  1.
    9900012    2    1    2    0    0 -0.17657325172E+02  0.39543307292E+02  0.28581148801E+01  0.47787272996E+02  0.20000008897E+02 0.  0.
         12    1    1    2    0    0  0.17657325172E+02 -0.39543307292E+02 -0.28581148801E+01  0.43400727004E+02  0.00000000000E+00 0. -1.
         11    1    3    3    0    0 -0.40706178361E+01  0.19942225363E+02 -0.41026621826E+01  0.20762806151E+02  0.51100000000E-03 0. -1.
        -11    1    3    3    0    0 -0.62936723890E+01  0.16769681646E+02  0.26941626907E+01  0.18113283731E+02  0.51100000000E-03 0.  1.
         12    1    3    3    0    0 -0.72930349469E+01  0.28314002827E+01  0.42666143720E+01  0.89111831143E+01  0.00000000000E+00 0. -1.
</event>
<event>
 7    1  0.5031164E-009  0.4778727E+02  0.7816164E-02  0.1312668E+00
        -11   -1    0    0    0    0  0.00000000000E+00  0.00000000000E+00  0.45593999997E+02  0.45594000000E+02  0.51100000000E-03 0.  1.
         11   -1    0    0    0    0 -0.00000000000E+00 -0.00000000000E+00 -0.45593999997E+02  0.45594000000E+02  0.51100000000E-03 0. -1.
    9900012    2    1    2    0    0  0.45325304032E+01 -0.34120011436E+02  0.26436791371E+02  0.47787274772E+02  0.20000016997E+02 0.  0.
         12    1    1    2    0    0 -0.45325304032E+01  0.34120011436E+02 -0.26436791371E+02  0.43400725228E+02  0.00000000000E+00 0. -1.
         11    1    3    3    0    0  0.32474181145E+01 -0.55451622553E+01  0.50163976387E+01  0.81522263449E+01  0.51100000000E-03 0. -1.
        -11    1    3    3    0    0  0.80889826250E+01 -0.13492439499E+02  0.15436958804E+02  0.22040355281E+02  0.51100000000E-03 0.  1.
        -12    1    3    3    0    0 -0.68038703364E+01 -0.15082409682E+02  0.59834349286E+01  0.17594693146E+02  0.00000000000E+00 0.  1.
</event>
<event>
 7    1  0.5031164E-009  0.4778725E+02  0.7816164E-02  0.1312668E+00
        -11   -1    0    0    0    0  0.00000000000E+00  0.00000000000E+00  0.45593999997E+02  0.45594000000E+02  0.51100000000E-03 0.  1.
         11   -1    0    0    0    0 -0.00000000000E+00 -0.00000000000E+00 -0.45593999997E+02  0.45594000000E+02  0.51100000000E-03 0. -1.
    9900012    2    1    2    0    0 -0.19703181907E+02  0.18600852468E+02  0.33903063925E+02  0.47787253079E+02  0.19999918088E+02 0.  0.
         12    1    1    2    0    0  0.19703181907E+02 -0.18600852468E+02 -0.33903063925E+02  0.43400746921E+02  0.00000000000E+00 0. -1.
         11    1    3    3    0    0 -0.13379648205E+02  0.53433596437E+01  0.11715029556E+02  0.18569017102E+02  0.51100000000E-03 0.  1.
        -11    1    3    3    0    0  0.49460676587E+00  0.69988925419E+01  0.17477624126E+02  0.18833387322E+02  0.51100000000E-03 0. -1.
         12    1    3    3    0    0 -0.68181404676E+01  0.62586002828E+01  0.47104102433E+01  0.10384848655E+02  0.00000000000E+00 0. -1.
</event>
<event>
 7    1  0.5031164E-009  0.4778727E+02  0.7816164E-02  0.1312668E+00
        -11   -1    0    0    0    0  0.00000000000E+00  0.00000000000E+00  0.45593999997E+02  0.45594000000E+02  0.51100000000E-03 0. -1.
         11   -1    0    0    0    0 -0.00000000000E+00 -0.00000000000E+00 -0.45593999997E+02  0.45594000000E+02  0.51100000000E-03 0.  1.
    9900012    2    1    2    0    0  0.40818420878E+02 -0.13820008217E+02 -0.51465350935E+01  0.47787274966E+02  0.20000017878E+02 0.  0.
         12    1    1    2    0    0 -0.40818420878E+02  0.13820008217E+02  0.51465350935E+01  0.43400725034E+02  0.00000000000E+00 0. -1.
         11    1    3    3    0    0  0.69371991250E+01 -0.43843770380E+01  0.43209626497E+01  0.92746003791E+01  0.51100000000E-03 0. -1.
        -11    1    3    3    0    0  0.33552600691E+02 -0.62577919722E+01 -0.84816137962E+01  0.35169230108E+02  0.51100000000E-03 0.  1.
        -12    1    3    3    0    0  0.32862106116E+00 -0.31778392066E+01 -0.98588394700E+00  0.33434444786E+01  0.00000000000E+00 0.  1.
</event>
<event>
 7    1  0.5031164E-009  0.4778727E+02  0.7816164E-02  0.1312668E+00
        -11   -1    0    0    0    0  0.00000000000E+00  0.00000000000E+00  0.45593999997E+02  0.45594000000E+02  0.51100000000E-03 0.  1.
         11   -1    0    0    0    0 -0.00000000000E+00 -0.00000000000E+00 -0.45593999997E+02  0.45594000000E+02  0.51100000000E-03 0. -1.
    9900012    2    1    2    0    0 -0.32691998593E+02 -0.18360970552E+02  0.21857063254E+02  0.47787271599E+02  0.20000002531E+02 0.  0.
         12    1    1    2    0    0  0.32691998593E+02  0.18360970552E+02 -0.21857063254E+02  0.43400728401E+02  0.00000000000E+00 0. -1.
         11    1    3    3    0    0 -0.13212397589E+01 -0.18784914028E+01 -0.27062835187E+01  0.35494189941E+01  0.51100000000E-03 0. -1.
        -11    1    3    3    0    0 -0.20604603950E+02 -0.61894785264E+01  0.11338209058E+02  0.24319011766E+02  0.51100000000E-03 0.  1.
         12    1    3    3    0    0 -0.10766154884E+02 -0.10293000623E+02  0.13225137715E+02  0.19918840840E+02  0.00000000000E+00 0. -1.
</event>
<event>
 7    1  0.5031164E-009  0.4778727E+02  0.7816164E-02  0.1312668E+00
        -11   -1    0    0    0    0  0.00000000000E+00  0.00000000000E+00  0.45593999997E+02  0.45594000000E+02  0.51100000000E-03 0. -1.
         11   -1    0    0    0    0 -0.00000000000E+00 -0.00000000000E+00 -0.45593999997E+02  0.45594000000E+02  0.51100000000E-03 0.  1.
    9900012    2    1    2    0    0 -0.33924397910E+02  0.23042647221E+02 -0.14205447740E+02  0.47787272932E+02  0.20000008607E+02 0.  0.
         12    1    1    2    0    0  0.33924397910E+02 -0.23042647221E+02  0.14205447740E+02  0.43400727068E+02  0.00000000000E+00 0. -1.
         11    1    3    3    0    0 -0.12083878266E+02  0.30962558836E+01 -0.36633857196E+01  0.13001050328E+02  0.51100000000E-03 0. -1.
        -11    1    3    3    0    0 -0.57316111656E+01 -0.57579237463E+00  0.16449641493E+01  0.59907270615E+01  0.51100000000E-03 0.  1.
        -12    1    3    3    0    0 -0.16108908478E+02  0.20522183712E+02 -0.12187026169E+02  0.28795495543E+02  0.00000000000E+00 0.  1.
</event>
<event>
 7    1  0.5031164E-009  0.4778726E+02  0.7816164E-02  0.1312668E+00
        -11   -1    0    0    0    0  0.00000000000E+00  0.00000000000E+00  0.45593999997E+02  0.45594000000E+02  0.51100000000E-03 0.  1.
         11   -1    0    0    0    0 -0.00000000000E+00 -0.00000000000E+00 -0.45593999997E+02  0.45594000000E+02  0.51100000000E-03 0. -1.
    9900012    2    1    2    0    0 -0.43059601241E+02 -0.29617382980E+01 -0.45522139021E+01  0.47787264935E+02  0.19999972145E+02 0.  0.
         12    1    1    2    0    0  0.43059601241E+02  0.29617382980E+01  0.45522139021E+01  0.43400735065E+02  0.00000000000E+00 0. -1.
         11    1    3    3    0    0  0.10332739856E+01  0.11738076983E+01  0.20520729877E+01  0.25800161724E+01  0.51100000000E-03 0. -1.
        -11    1    3    3    0    0 -0.43220924778E+02 -0.40811317020E+01 -0.73835218238E+01  0.44036579902E+02  0.51100000000E-03 0.  1.
        -12    1    3    3    0    0 -0.87195044832E+00 -0.54414294316E-01  0.77923493392E+00  0.11706688610E+01  0.00000000000E+00 0.  1.
</event>
<event>
 7    1  0.5031164E-009  0.4778727E+02  0.7816164E-02  0.1312668E+00
        -11   -1    0    0    0    0  0.00000000000E+00  0.00000000000E+00  0.45593999997E+02  0.45594000000E+02  0.51100000000E-03 0.  1.
         11   -1    0    0    0    0 -0.00000000000E+00 -0.00000000000E+00 -0.45593999997E+02  0.45594000000E+02  0.51100000000E-03 0. -1.
    9900012    2    1    2    0    0  0.92486779908E+01 -0.40693434906E+02  0.11921816003E+02  0.47787269754E+02  0.19999994117E+02 0.  0.
         12    1    1    2    0    0 -0.92486779908E+01  0.40693434906E+02 -0.11921816003E+02  0.43400730246E+02  0.00000000000E+00 0. -1.
         11    1    3    3    0    0 -0.41892666026E+01 -0.17541730891E+02  0.34116595597E+01  0.18354882144E+02  0.51100000000E-03 0. -1.
        -11    1    3    3    0    0  0.54864543495E+01 -0.87961083579E+01  0.78585237961E+01  0.13008808558E+02  0.51100000000E-03 0.  1.
         12    1    3    3    0    0  0.79514902440E+01 -0.14355595658E+02  0.65163264707E+00  0.16423579053E+02  0.00000000000E+00 0. -1.
</event>
<event>
 7    1  0.5031164E-009  0.4778727E+02  0.7816164E-02  0.1312668E+00
        -11   -1    0    0    0    0  0.00000000000E+00  0.00000000000E+00  0.45593999997E+02  0.45594000000E+02  0.51100000000E-03 0. -1.
         11   -1    0    0    0    0 -0.00000000000E+00 -0.00000000000E+00 -0.45593999997E+02  0.45594000000E+02  0.51100000000E-03 0.  1.
    9900012    2    1    2    0    0 -0.16278469266E+01  0.43166532266E+02 -0.41980842062E+01  0.47787270692E+02  0.19999998391E+02 0.  0.
         12    1    1    2    0    0  0.16278469266E+01 -0.43166532266E+02  0.41980842062E+01  0.43400729308E+02  0.00000000000E+00 0. -1.
         11    1    3    3    0    0 -0.47644478455E+01  0.70858166569E+01  0.14044832645E+01  0.86534001680E+01  0.51100000000E-03 0. -1.
        -11    1    3    3    0    0  0.51987395098E+01  0.28152331689E+02 -0.93620652847E+01  0.30120241345E+02  0.51100000000E-03 0.  1.
        -12    1    3    3    0    0 -0.20621385909E+01  0.79283839202E+01  0.37594978140E+01  0.90136291785E+01  0.00000000000E+00 0.  1.
</event>
<event>
 7    1  0.5031164E-009  0.4778727E+02  0.7816164E-02  0.1312668E+00
        -11   -1    0    0    0    0  0.00000000000E+00  0.00000000000E+00  0.45593999997E+02  0.45594000000E+02  0.51100000000E-03 0.  1.
         11   -1    0    0    0    0 -0.00000000000E+00 -0.00000000000E+00 -0.45593999997E+02  0.45594000000E+02  0.51100000000E-03 0. -1.
    9900012    2    1    2    0    0  0.31636314293E+02  0.82488789818E+01  0.28543345125E+02  0.47787274921E+02  0.20000017675E+02 0.  0.
         12    1    1    2    0    0 -0.31636314293E+02 -0.82488789818E+01 -0.28543345125E+02  0.43400725079E+02  0.00000000000E+00 0. -1.
         11    1    3    3    0    0  0.50814013624E+00  0.80759753552E+00  0.66380896406E+00  0.11623522613E+01  0.51100000000E-03 0. -1.
        -11    1    3    3    0    0  0.51037317570E+01  0.84347029037E+01  0.13974182721E+02  0.17101756457E+02  0.51100000000E-03 0.  1.
        -12    1    3    3    0    0  0.26024442399E+02 -0.99342145737E+00  0.13905353439E+02  0.29523166203E+02  0.00000000000E+00 0.  1.
</event>
<event>
 7    1  0.5031164E-009  0.4778727E+02  0.7816164E-02  0.1312668E+00
        -11   -1    0    0    0    0  0.00000000000E+00  0.00000000000E+00  0.45593999997E+02  0.45594000000E+02  0.51100000000E-03 0.  1.
         11   -1    0    0    0    0 -0.00000000000E+00 -0.00000000000E+00 -0.45593999997E+02  0.45594000000E+02  0.51100000000E-03 0. -1.
    9900012    2    1    2    0    0 -0.84616157927E+01  0.23188318766E+02  0.35697704981E+02  0.47787271781E+02  0.20000003358E+02 0.  0.
         12    1    1    2    0    0  0.84616157927E+01 -0.23188318766E+02 -0.35697704981E+02  0.43400728219E+02  0.00000000000E+00 0. -1.
         11    1    3    3    0    0 -0.45532422504E+01  0.51901490368E+01  0.75765619239E-01  0.69047376999E+01  0.51100000000E-03 0. -1.
        -11    1    3    3    0    0  0.24680671882E+01  0.55180191775E+01  0.10483719165E+02  0.12101580851E+02  0.51100000000E-03 0.  1.
         12    1    3    3    0    0 -0.63764407305E+01  0.12480150551E+02  0.25138220197E+02  0.28780953230E+02  0.00000000000E+00 0. -1.
</event>
<event>
 7    1  0.5031164E-009  0.4778724E+02  0.7816164E-02  0.1312668E+00
        -11   -1    0    0    0    0  0.00000000000E+00  0.00000000000E+00  0.45593999997E+02  0.45594000000E+02  0.51100000000E-03 0. -1.
         11   -1    0    0    0    0 -0.00000000000E+00 -0.00000000000E+00 -0.45593999997E+02  0.45594000000E+02  0.51100000000E-03 0.  1.
    9900012    2    1    2    0    0 -0.39968006463E+02 -0.79480950374E+01  0.14933581693E+02  0.47787244044E+02  0.19999876895E+02 0.  0.
         12    1    1    2    0    0  0.39968006463E+02  0.79480950374E+01 -0.14933581693E+02  0.43400755956E+02  0.00000000000E+00 0. -1.
         11    1    3    3    0    0 -0.67027915517E+01  0.27464788724E+01  0.74243871747E+01  0.10372660506E+02  0.51100000000E-03 0. -1.
        -11    1    3    3    0    0 -0.20745511054E+02 -0.46472090437E+01 -0.69457613498E+00  0.21270994736E+02  0.51100000000E-03 0.  1.
        -12    1    3    3    0    0 -0.12519703857E+02 -0.60473648661E+01  0.82037706535E+01  0.16143588802E+02  0.00000000000E+00 0.  1.
</event>
<event>
 7    1  0.5031164E-009  0.4778725E+02  0.7816164E-02  0.1312668E+00
        -11   -1    0    0    0    0  0.00000000000E+00  0.00000000000E+00  0.45593999997E+02  0.45594000000E+02  0.51100000000E-03 0. -1.
         11   -1    0    0    0    0 -0.00000000000E+00 -0.00000000000E+00 -0.45593999997E+02  0.45594000000E+02  0.51100000000E-03 0.  1.
    9900012    2    1    2    0    0  0.19264947274E+01 -0.42290273271E+02 -0.95627547295E+01  0.47787252618E+02  0.19999915989E+02 0.  0.
         12    1    1    2    0    0 -0.19264947274E+01  0.42290273271E+02  0.95627547295E+01  0.43400747382E+02  0.00000000000E+00 0. -1.
         11    1    3    3    0    0  0.76883450434E+01 -0.83085294715E+01 -0.60441421537E+01  0.12832535452E+02  0.51100000000E-03 0. -1.
        -11    1    3    3    0    0 -0.16979070142E+01 -0.21009115058E+02 -0.80974239503E+00  0.21093162085E+02  0.51100000000E-03 0.  1.
         12    1    3    3    0    0 -0.40639433018E+01 -0.12972628742E+02 -0.27088701808E+01  0.13861555082E+02  0.00000000000E+00 0. -1.
</event>
<event>
 7    1  0.5031164E-009  0.4778727E+02  0.7816164E-02  0.1312668E+00
        -11   -1    0    0    0    0  0.00000000000E+00  0.00000000000E+00  0.45593999997E+02  0.45594000000E+02  0.51100000000E-03 0. -1.
         11   -1    0    0    0    0 -0.00000000000E+00 -0.00000000000E+00 -0.45593999997E+02  0.45594000000E+02  0.51100000000E-03 0.  1.
    9900012    2    1    2    0    0 -0.18269435770E+02 -0.53456536708E+01 -0.39003524501E+02  0.47787271664E+02  0.20000002827E+02 0.  0.
         12    1    1    2    0    0  0.18269435770E+02  0.53456536708E+01  0.39003524501E+02  0.43400728336E+02  0.00000000000E+00 0. -1.
         11    1    3    3    0    0  0.15985059509E+00  0.43984148392E+01 -0.37620117355E+01  0.57900205414E+01  0.51100000000E-03 0. -1.
        -11    1    3    3    0    0 -0.15565344834E+02 -0.36031890892E+01 -0.22983785232E+02  0.27991379302E+02  0.51100000000E-03 0.  1.
         12    1    3    3    0    0 -0.28639415311E+01 -0.61408794208E+01 -0.12257727534E+02  0.14005871821E+02  0.00000000000E+00 0. -1.
</event>
<event>
 7    1  0.5031164E-009  0.4778729E+02  0.7816164E-02  0.1312668E+00
        -11   -1    0    0    0    0  0.00000000000E+00  0.00000000000E+00  0.45593999997E+02  0.45594000000E+02  0.51100000000E-03 0.  1.
         11   -1    0    0    0    0 -0.00000000000E+00 -0.00000000000E+00 -0.45593999997E+02  0.45594000000E+02  0.51100000000E-03 0. -1.
    9900012    2    1    2    0    0  0.25646607333E+02  0.24952558926E+02  0.24561008543E+02  0.47787287963E+02  0.20000077139E+02 0.  0.
         12    1    1    2    0    0 -0.25646607333E+02 -0.24952558926E+02 -0.24561008543E+02  0.43400712037E+02  0.00000000000E+00 0. -1.
         11    1    3    3    0    0 -0.55375905986E+00 -0.40145849890E-01  0.21370356907E+01  0.22079815647E+01  0.51100000000E-03 0. -1.
        -11    1    3    3    0    0  0.19243892132E+02  0.18240032242E+02  0.23992375450E+02  0.35758359031E+02  0.51100000000E-03 0.  1.
        -12    1    3    3    0    0  0.69564742606E+01  0.67526725342E+01 -0.15684025974E+01  0.98209473677E+01  0.00000000000E+00 0.  1.
</event>
<event>
 7    1  0.5031164E-009  0.4778726E+02  0.7816164E-02  0.1312668E+00
        -11   -1    0    0    0    0  0.00000000000E+00  0.00000000000E+00  0.45593999997E+02  0.45594000000E+02  0.51100000000E-03 0.  1.
         11   -1    0    0    0    0 -0.00000000000E+00 -0.00000000000E+00 -0.45593999997E+02  0.45594000000E+02  0.51100000000E-03 0. -1.
    9900012    2    1    2    0    0  0.22483040149E+02  0.18527463748E+02  0.32169395541E+02  0.47787262486E+02  0.19999960981E+02 0.  0.
         12    1    1    2    0    0 -0.22483040149E+02 -0.18527463748E+02 -0.32169395541E+02  0.43400737514E+02  0.00000000000E+00 0. -1.
         11    1    3    3    0    0  0.10129990398E+02  0.16418677428E+02  0.15811527303E+02  0.24943818269E+02  0.51100000000E-03 0. -1.
        -11    1    3    3    0    0  0.74377532670E+01 -0.94495428494E+00  0.26293918526E+01  0.79452384507E+01  0.51100000000E-03 0.  1.
         12    1    3    3    0    0  0.49152964843E+01  0.30537406054E+01  0.13728476385E+02  0.14898205767E+02  0.00000000000E+00 0. -1.
</event>
<event>
 7    1  0.5031164E-009  0.4778726E+02  0.7816164E-02  0.1312668E+00
        -11   -1    0    0    0    0  0.00000000000E+00  0.00000000000E+00  0.45593999997E+02  0.45594000000E+02  0.51100000000E-03 0.  1.
         11   -1    0    0    0    0 -0.00000000000E+00 -0.00000000000E+00 -0.45593999997E+02  0.45594000000E+02  0.51100000000E-03 0. -1.
    9900012    2    1    2    0    0  0.18464861780E+02 -0.36282918098E+02  0.15040703092E+02  0.47787262498E+02  0.19999961031E+02 0.  0.
         12    1    1    2    0    0 -0.18464861780E+02  0.36282918098E+02 -0.15040703092E+02  0.43400737502E+02  0.00000000000E+00 0. -1.
         11    1    3    3    0    0 -0.47201656650E+00 -0.13678414980E+02  0.19678338962E+01  0.13827299321E+02  0.51100000000E-03 0.  1.
        -11    1    3    3    0    0  0.11650133440E+02 -0.66786348400E+01  0.83782044318E+01  0.15827952560E+02  0.51100000000E-03 0. -1.
         12    1    3    3    0    0  0.72867449061E+01 -0.15925868278E+02  0.46946647636E+01  0.18132010616E+02  0.00000000000E+00 0. -1.
</event>
<event>
 7    1  0.5031164E-009  0.4778727E+02  0.7816164E-02  0.1312668E+00
        -11   -1    0    0    0    0  0.00000000000E+00  0.00000000000E+00  0.45593999997E+02  0.45594000000E+02  0.51100000000E-03 0. -1.
         11   -1    0    0    0    0 -0.00000000000E+00 -0.00000000000E+00 -0.45593999997E+02  0.45594000000E+02  0.51100000000E-03 0.  1.
    9900012    2    1    2    0    0  0.11626100878E+02 -0.41175278923E+02 -0.72837841092E+01  0.47787270433E+02  0.19999997212E+02 0.  0.
         12    1    1    2    0    0 -0.11626100878E+02  0.41175278923E+02  0.72837841092E+01  0.43400729567E+02  0.00000000000E+00 0. -1.
         11    1    3    3    0    0  0.69816645663E+01 -0.34933395861E+02 -0.95360350557E+01  0.36878472736E+02  0.51100000000E-03 0. -1.
        -11    1    3    3    0    0  0.16343403784E+01 -0.22533938731E+01 -0.26968847443E+01  0.38758276542E+01  0.51100000000E-03 0.  1.
         12    1    3    3    0    0  0.30100959336E+01 -0.39884891889E+01  0.49491356908E+01  0.70329700430E+01  0.00000000000E+00 0. -1.
</event>
<event>
 7    1  0.5651661E-009  0.4778727E+02  0.7816164E-02  0.1312668E+00
        -11   -1    0    0    0    0  0.00000000000E+00  0.00000000000E+00  0.45593999997E+02  0.45594000000E+02  0.51100000000E-03 0.  1.
         11   -1    0    0    0    0 -0.00000000000E+00 -0.00000000000E+00 -0.45593999997E+02  0.45594000000E+02  0.51100000000E-03 0. -1.
    9900012    2    1    2    0    0 -0.39698406333E+02  0.12656392065E+02  0.12143946430E+02  0.47787272352E+02  0.20000005963E+02 0.  0.
         12    1    1    2    0    0  0.39698406333E+02 -0.12656392065E+02 -0.12143946430E+02  0.43400727648E+02  0.00000000000E+00 0. -1.
         11    1    3    3    0    0 -0.77138056915E-01  0.36409990040E+00 -0.20371718353E+01  0.20708907177E+01  0.51100000000E-03 0. -1.
        -11    1    3    3    0    0 -0.31605134289E+02  0.74048481989E+01  0.54887946522E+01  0.32921773301E+02  0.51100000000E-03 0.  1.
        -12    1    3    3    0    0 -0.80161339862E+01  0.48874439657E+01  0.86923236134E+01  0.12794608333E+02  0.00000000000E+00 0.  1.
</event>
<event>
 7    1  0.5031164E-009  0.4778727E+02  0.7816164E-02  0.1312668E+00
        -11   -1    0    0    0    0  0.00000000000E+00  0.00000000000E+00  0.45593999997E+02  0.45594000000E+02  0.51100000000E-03 0.  1.
         11   -1    0    0    0    0 -0.00000000000E+00 -0.00000000000E+00 -0.45593999997E+02  0.45594000000E+02  0.51100000000E-03 0. -1.
    9900012    2    1    2    0    0  0.69408815162E+01 -0.15246834903E+02  0.40037251312E+02  0.47787270705E+02  0.19999998450E+02 0.  0.
         12    1    1    2    0    0 -0.69408815162E+01  0.15246834903E+02 -0.40037251312E+02  0.43400729295E+02  0.00000000000E+00 0. -1.
         11    1    3    3    0    0  0.15416727882E+00 -0.32673858602E+01 -0.21476900226E+00  0.32780640468E+01  0.51100000000E-03 0. -1.
        -11    1    3    3    0    0  0.58833777482E+01 -0.14666322145E+02  0.36751733251E+02  0.40005062632E+02  0.51100000000E-03 0.  1.
         12    1    3    3    0    0  0.90333648920E+00  0.26868731022E+01  0.35002870633E+01  0.45041440258E+01  0.00000000000E+00 0. -1.
</event>
<event>
 7    1  0.5031164E-009  0.4778727E+02  0.7816164E-02  0.1312668E+00
        -11   -1    0    0    0    0  0.00000000000E+00  0.00000000000E+00  0.45593999997E+02  0.45594000000E+02  0.51100000000E-03 0.  1.
         11   -1    0    0    0    0 -0.00000000000E+00 -0.00000000000E+00 -0.45593999997E+02  0.45594000000E+02  0.51100000000E-03 0. -1.
    9900012    2    1    2    0    0  0.20218764258E+02 -0.58316210052E+01  0.37958096384E+02  0.47787270596E+02  0.19999997957E+02 0.  0.
         12    1    1    2    0    0 -0.20218764258E+02  0.58316210052E+01 -0.37958096384E+02  0.43400729404E+02  0.00000000000E+00 0. -1.
         11    1    3    3    0    0  0.55836623915E+01 -0.64769152911E+00  0.19108132654E+02  0.19917769047E+02  0.51100000000E-03 0. -1.
        -11    1    3    3    0    0  0.13056102357E+02  0.14192492063E+01  0.90569428605E+01  0.15953190631E+02  0.51100000000E-03 0.  1.
        -12    1    3    3    0    0  0.15789995098E+01 -0.66031786824E+01  0.97930208695E+01  0.11916310919E+02  0.00000000000E+00 0.  1.
</event>
<event>
 7    1  0.5031164E-009  0.4778727E+02  0.7816164E-02  0.1312668E+00
        -11   -1    0    0    0    0  0.00000000000E+00  0.00000000000E+00  0.45593999997E+02  0.45594000000E+02  0.51100000000E-03 0.  1.
         11   -1    0    0    0    0 -0.00000000000E+00 -0.00000000000E+00 -0.45593999997E+02  0.45594000000E+02  0.51100000000E-03 0. -1.
    9900012    2    1    2    0    0  0.15867296283E+02  0.31171039510E+02  0.25694716865E+02  0.47787271086E+02  0.20000000190E+02 0.  0.
         12    1    1    2    0    0 -0.15867296283E+02 -0.31171039510E+02 -0.25694716865E+02  0.43400728914E+02  0.00000000000E+00 0. -1.
         11    1    3    3    0    0  0.50648722670E+01  0.10660480410E+02  0.29218309046E+01  0.12158777477E+02  0.51100000000E-03 0.  1.
        -11    1    3    3    0    0  0.11733549716E+02  0.20192664276E+02  0.14917964570E+02  0.27712191300E+02  0.51100000000E-03 0. -1.
        -12    1    3    3    0    0 -0.93112569964E+00  0.31789482460E+00  0.78549213906E+01  0.79163023086E+01  0.00000000000E+00 0.  1.
</event>
<event>
 7    1  0.5031164E-009  0.4778727E+02  0.7816164E-02  0.1312668E+00
        -11   -1    0    0    0    0  0.00000000000E+00  0.00000000000E+00  0.45593999997E+02  0.45594000000E+02  0.51100000000E-03 0. -1.
         11   -1    0    0    0    0 -0.00000000000E+00 -0.00000000000E+00 -0.45593999997E+02  0.45594000000E+02  0.51100000000E-03 0.  1.
    9900012    2    1    2    0    0 -0.13271593879E+02  0.39394335432E+02 -0.12472945946E+02  0.47787271333E+02  0.20000001317E+02 0.  0.
         12    1    1    2    0    0  0.13271593879E+02 -0.39394335432E+02  0.12472945946E+02  0.43400728667E+02  0.00000000000E+00 0. -1.
         11    1    3    3    0    0 -0.35353919602E+01  0.26434366611E+02 -0.24904858887E+01  0.26785765897E+02  0.51100000000E-03 0. -1.
        -11    1    3    3    0    0 -0.20520836545E+01  0.94321455575E+01 -0.32235934270E+01  0.10176835067E+02  0.51100000000E-03 0.  1.
         12    1    3    3    0    0 -0.76841182644E+01  0.35278232635E+01 -0.67588666302E+01  0.10824670369E+02  0.00000000000E+00 0. -1.
</event>
<event>
 7    1  0.5031164E-009  0.4778728E+02  0.7816164E-02  0.1312668E+00
        -11   -1    0    0    0    0  0.00000000000E+00  0.00000000000E+00  0.45593999997E+02  0.45594000000E+02  0.51100000000E-03 0. -1.
         11   -1    0    0    0    0 -0.00000000000E+00 -0.00000000000E+00 -0.45593999997E+02  0.45594000000E+02  0.51100000000E-03 0.  1.
    9900012    2    1    2    0    0  0.29834993747E+02 -0.31322412201E+02 -0.35216333924E+01  0.47787282728E+02  0.20000053270E+02 0.  0.
         12    1    1    2    0    0 -0.29834993747E+02  0.31322412201E+02  0.35216333924E+01  0.43400717272E+02  0.00000000000E+00 0. -1.
         11    1    3    3    0    0  0.11969287663E+02 -0.25358070177E+01 -0.26621759780E+01  0.12521235785E+02  0.51100000000E-03 0. -1.
        -11    1    3    3    0    0  0.92461447394E+01 -0.17841522584E+02  0.40415539560E+01  0.20497445677E+02  0.51100000000E-03 0.  1.
         12    1    3    3    0    0  0.86195613451E+01 -0.10945082599E+02 -0.49010113704E+01  0.14768601265E+02  0.00000000000E+00 0. -1.
</event>
<event>
 7    1  0.5031164E-009  0.4778727E+02  0.7816164E-02  0.1312668E+00
        -11   -1    0    0    0    0  0.00000000000E+00  0.00000000000E+00  0.45593999997E+02  0.45594000000E+02  0.51100000000E-03 0. -1.
         11   -1    0    0    0    0 -0.00000000000E+00 -0.00000000000E+00 -0.45593999997E+02  0.45594000000E+02  0.51100000000E-03 0.  1.
    9900012    2    1    2    0    0 -0.10322871356E+02 -0.31146573694E+02 -0.28406911082E+02  0.47787270477E+02  0.19999997413E+02 0.  0.
         12    1    1    2    0    0  0.10322871356E+02  0.31146573694E+02  0.28406911082E+02  0.43400729523E+02  0.00000000000E+00 0. -1.
         11    1    3    3    0    0  0.14640987485E+01 -0.61663302814E+01 -0.25149251586E+01  0.68185088618E+01  0.51100000000E-03 0. -1.
        -11    1    3    3    0    0  0.16502789320E+01 -0.11742933071E+02 -0.15228312533E+02  0.19300813468E+02  0.51100000000E-03 0.  1.
        -12    1    3    3    0    0 -0.13437249036E+02 -0.13237310342E+02 -0.10663673390E+02  0.21667948147E+02  0.00000000000E+00 0.  1.
</event>
<event>
 7    1 -0.2071548E-008  0.4778727E+02  0.7816164E-02  0.1312668E+00
        -11   -1    0    0    0    0  0.00000000000E+00  0.00000000000E+00  0.45593999997E+02  0.45594000000E+02  0.51100000000E-03 0. -1.
         11   -1    0    0    0    0 -0.00000000000E+00 -0.00000000000E+00 -0.45593999997E+02  0.45594000000E+02  0.51100000000E-03 0.  1.
    9900012    2    1    2    0    0  0.18341316974E+02 -0.20053670396E+02 -0.33838879166E+02  0.47787270191E+02  0.19999996111E+02 0.  0.
         12    1    1    2    0    0 -0.18341316974E+02  0.20053670396E+02  0.33838879166E+02  0.43400729809E+02  0.00000000000E+00 0. -1.
         11    1    3    3    0    0  0.10826665407E+02 -0.11262913268E+02 -0.97781079403E+01  0.18430444766E+02  0.51100000000E-03 0. -1.
        -11    1    3    3    0    0  0.56294964803E+01  0.15393778361E+01 -0.12144459602E+02  0.13474005122E+02  0.51100000000E-03 0.  1.
        -12    1    3    3    0    0  0.18851550873E+01 -0.10330134964E+02 -0.11916311624E+02  0.15882820303E+02  0.00000000000E+00 0.  1.
</event>
<event>
 7    1  0.5031164E-009  0.4778727E+02  0.7816164E-02  0.1312668E+00
        -11   -1    0    0    0    0  0.00000000000E+00  0.00000000000E+00  0.45593999997E+02  0.45594000000E+02  0.51100000000E-03 0.  1.
         11   -1    0    0    0    0 -0.00000000000E+00 -0.00000000000E+00 -0.45593999997E+02  0.45594000000E+02  0.51100000000E-03 0. -1.
    9900012    2    1    2    0    0  0.24950301617E+02  0.34835399135E+02  0.68993139736E+01  0.47787272852E+02  0.20000008241E+02 0.  0.
         12    1    1    2    0    0 -0.24950301617E+02 -0.34835399135E+02 -0.68993139736E+01  0.43400727148E+02  0.00000000000E+00 0. -1.
         11    1    3    3    0    0  0.20897139200E+02  0.20442831977E+02  0.10496510731E+02  0.31060852271E+02  0.51100000000E-03 0. -1.
        -11    1    3    3    0    0  0.54625523456E+01  0.11968114379E+02 -0.42902902078E+01  0.13837695988E+02  0.51100000000E-03 0.  1.
         12    1    3    3    0    0 -0.14093899283E+01  0.24244527784E+01  0.69309345003E+00  0.28887245932E+01  0.00000000000E+00 0. -1.
</event>
<event>
 7    1  0.5031164E-009  0.4778727E+02  0.7816164E-02  0.1312668E+00
        -11   -1    0    0    0    0  0.00000000000E+00  0.00000000000E+00  0.45593999997E+02  0.45594000000E+02  0.51100000000E-03 0.  1.
         11   -1    0    0    0    0 -0.00000000000E+00 -0.00000000000E+00 -0.45593999997E+02  0.45594000000E+02  0.51100000000E-03 0. -1.
    9900012    2    1    2    0    0 -0.16434429311E+01  0.19195506518E+02  0.38890293882E+02  0.47787270359E+02  0.19999996874E+02 0.  0.
         12    1    1    2    0    0  0.16434429311E+01 -0.19195506518E+02 -0.38890293882E+02  0.43400729641E+02  0.00000000000E+00 0. -1.
         11    1    3    3    0    0  0.23438941341E+01 -0.24493624750E+01  0.10549756768E+02  0.11081091298E+02  0.51100000000E-03 0. -1.
        -11    1    3    3    0    0 -0.44973742118E+00  0.18663350495E+02  0.21921758697E+02  0.28793860805E+02  0.51100000000E-03 0.  1.
         12    1    3    3    0    0 -0.35375996440E+01  0.29815184981E+01  0.64187784175E+01  0.79123182550E+01  0.00000000000E+00 0. -1.
</event>
<event>
 7    1  0.5031164E-009  0.4778728E+02  0.7816164E-02  0.1312668E+00
        -11   -1    0    0    0    0  0.00000000000E+00  0.00000000000E+00  0.45593999997E+02  0.45594000000E+02  0.51100000000E-03 0.  1.
         11   -1    0    0    0    0 -0.00000000000E+00 -0.00000000000E+00 -0.45593999997E+02  0.45594000000E+02  0.51100000000E-03 0. -1.
    9900012    2    1    2    0    0 -0.10471196693E+02  0.94624362185E+01  0.41041913426E+02  0.47787282068E+02  0.20000050260E+02 0.  0.
         12    1    1    2    0    0  0.10471196693E+02 -0.94624362185E+01 -0.41041913426E+02  0.43400717932E+02  0.00000000000E+00 0. -1.
         11    1    3    3    0    0  0.10055764557E+01 -0.67168893457E+00  0.20292938455E+02  0.20328937538E+02  0.51100000000E-03 0. -1.
        -11    1    3    3    0    0 -0.13612936826E+01 -0.82952885669E+00  0.69737465692E+01  0.71536270581E+01  0.51100000000E-03 0.  1.
         12    1    3    3    0    0 -0.10115479466E+02  0.10963654010E+02  0.13775228402E+02  0.20304717471E+02  0.00000000000E+00 0. -1.
</event>
<event>
 7    1  0.5031164E-009  0.4778727E+02  0.7816164E-02  0.1312668E+00
        -11   -1    0    0    0    0  0.00000000000E+00  0.00000000000E+00  0.45593999997E+02  0.45594000000E+02  0.51100000000E-03 0.  1.
         11   -1    0    0    0    0 -0.00000000000E+00 -0.00000000000E+00 -0.45593999997E+02  0.45594000000E+02  0.51100000000E-03 0. -1.
    9900012    2    1    2    0    0  0.28045892530E+02  0.32893410332E+02  0.38826323028E+01  0.47787269998E+02  0.19999995231E+02 0.  0.
         12    1    1    2    0    0 -0.28045892530E+02 -0.32893410332E+02 -0.38826323028E+01  0.43400730002E+02  0.00000000000E+00 0. -1.
         11    1    3    3    0    0 -0.94144959971E+00  0.22986026017E+01  0.25113856448E+01  0.35322739684E+01  0.51100000000E-03 0. -1.
        -11    1    3    3    0    0  0.17829934483E+02  0.10547919716E+02 -0.28994991608E+01  0.20918228167E+02  0.51100000000E-03 0.  1.
        -12    1    3    3    0    0  0.11157407647E+02  0.20046888014E+02  0.42707458187E+01  0.23336767863E+02  0.00000000000E+00 0.  1.
</event>
<event>
 7    1  0.5031164E-009  0.4778727E+02  0.7816164E-02  0.1312668E+00
        -11   -1    0    0    0    0  0.00000000000E+00  0.00000000000E+00  0.45593999997E+02  0.45594000000E+02  0.51100000000E-03 0.  1.
         11   -1    0    0    0    0 -0.00000000000E+00 -0.00000000000E+00 -0.45593999997E+02  0.45594000000E+02  0.51100000000E-03 0. -1.
    9900012    2    1    2    0    0 -0.59433257814E+01 -0.22687263152E+02  0.36518334452E+02  0.47787265192E+02  0.19999973319E+02 0.  0.
         12    1    1    2    0    0  0.59433257814E+01  0.22687263152E+02 -0.36518334452E+02  0.43400734808E+02  0.00000000000E+00 0. -1.
         11    1    3    3    0    0 -0.18764364740E+00  0.73961452930E+00 -0.21723897495E+00  0.79336802539E+00  0.51100000000E-03 0. -1.
        -11    1    3    3    0    0 -0.10937189986E+02 -0.10742276570E+02  0.16172296695E+02  0.22283666919E+02  0.51100000000E-03 0.  1.
        -12    1    3    3    0    0  0.51815078516E+01 -0.12684601111E+02  0.20563276732E+02  0.24710230249E+02  0.00000000000E+00 0.  1.
</event>
<event>
 7    1  0.5031164E-009  0.4778727E+02  0.7816164E-02  0.1312668E+00
        -11   -1    0    0    0    0  0.00000000000E+00  0.00000000000E+00  0.45593999997E+02  0.45594000000E+02  0.51100000000E-03 0.  1.
         11   -1    0    0    0    0 -0.00000000000E+00 -0.00000000000E+00 -0.45593999997E+02  0.45594000000E+02  0.51100000000E-03 0. -1.
    9900012    2    1    2    0    0 -0.26778832844E+02 -0.16233480153E+02  0.30049822089E+02  0.47787267587E+02  0.19999984237E+02 0.  0.
         12    1    1    2    0    0  0.26778832844E+02  0.16233480153E+02 -0.30049822089E+02  0.43400732413E+02  0.00000000000E+00 0. -1.
         11    1    3    3    0    0 -0.85074929891E+01  0.34895096830E+01  0.82032483210E+01  0.12322637626E+02  0.51100000000E-03 0. -1.
        -11    1    3    3    0    0 -0.16007770704E+02 -0.13013199478E+02  0.18144959037E+02  0.27474199211E+02  0.51100000000E-03 0.  1.
         12    1    3    3    0    0 -0.22635691507E+01 -0.67097903580E+01  0.37016147310E+01  0.79904307496E+01  0.00000000000E+00 0. -1.
</event>
<event>
 7    1  0.5031164E-009  0.4778727E+02  0.7816164E-02  0.1312668E+00
        -11   -1    0    0    0    0  0.00000000000E+00  0.00000000000E+00  0.45593999997E+02  0.45594000000E+02  0.51100000000E-03 0. -1.
         11   -1    0    0    0    0 -0.00000000000E+00 -0.00000000000E+00 -0.45593999997E+02  0.45594000000E+02  0.51100000000E-03 0.  1.
    9900012    2    1    2    0    0  0.15342943449E+02  0.39756051559E+02 -0.82264033005E+01  0.47787271198E+02  0.20000000701E+02 0.  0.
         12    1    1    2    0    0 -0.15342943449E+02 -0.39756051559E+02  0.82264033005E+01  0.43400728802E+02  0.00000000000E+00 0. -1.
         11    1    3    3    0    0 -0.30600571482E+01  0.68241804884E+01 -0.68291170702E+00  0.75099772136E+01  0.51100000000E-03 0. -1.
        -11    1    3    3    0    0  0.17588788104E+02  0.29379997660E+02 -0.28863528239E+01  0.34363945675E+02  0.51100000000E-03 0.  1.
         12    1    3    3    0    0  0.81421249298E+00  0.35518734110E+01 -0.46571387695E+01  0.59133483096E+01  0.00000000000E+00 0. -1.
</event>
<event>
 7    1  0.5031164E-009  0.4778727E+02  0.7816164E-02  0.1312668E+00
        -11   -1    0    0    0    0  0.00000000000E+00  0.00000000000E+00  0.45593999997E+02  0.45594000000E+02  0.51100000000E-03 0.  1.
         11   -1    0    0    0    0 -0.00000000000E+00 -0.00000000000E+00 -0.45593999997E+02  0.45594000000E+02  0.51100000000E-03 0. -1.
    9900012    2    1    2    0    0  0.43240896283E+02  0.37201505457E+01  0.94351052809E-01  0.47787268052E+02  0.19999986357E+02 0.  0.
         12    1    1    2    0    0 -0.43240896283E+02 -0.37201505457E+01 -0.94351052809E-01  0.43400731948E+02  0.00000000000E+00 0. -1.
         11    1    3    3    0    0  0.34141155862E+01 -0.47008583076E+01  0.17213092204E+01  0.60594686035E+01  0.51100000000E-03 0. -1.
        -11    1    3    3    0    0  0.33736459261E+02  0.44779660774E+01  0.90216633053E+00  0.34044305955E+02  0.51100000000E-03 0.  1.
        -12    1    3    3    0    0  0.60903214368E+01  0.39430427759E+01 -0.25291244981E+01  0.76834934934E+01  0.00000000000E+00 0.  1.
</event>
<event>
 7    1  0.5031164E-009  0.4778725E+02  0.7816164E-02  0.1312668E+00
        -11   -1    0    0    0    0  0.00000000000E+00  0.00000000000E+00  0.45593999997E+02  0.45594000000E+02  0.51100000000E-03 0.  1.
         11   -1    0    0    0    0 -0.00000000000E+00 -0.00000000000E+00 -0.45593999997E+02  0.45594000000E+02  0.51100000000E-03 0. -1.
    9900012    2    1    2    0    0 -0.35310919338E+02 -0.17719716076E+02  0.17965967670E+02  0.47787247050E+02  0.19999890597E+02 0.  0.
         12    1    1    2    0    0  0.35310919338E+02  0.17719716076E+02 -0.17965967670E+02  0.43400752950E+02  0.00000000000E+00 0. -1.
         11    1    3    3    0    0 -0.58523018040E+00  0.23155861908E+01 -0.13884523374E+01  0.27626498014E+01  0.51100000000E-03 0. -1.
        -11    1    3    3    0    0 -0.29787855726E+02 -0.19643401362E+02  0.17420498974E+02  0.39707094461E+02  0.51100000000E-03 0.  1.
        -12    1    3    3    0    0 -0.49378334322E+01 -0.39190090538E+00  0.19339210334E+01  0.53175027868E+01  0.00000000000E+00 0.  1.
</event>
<event>
 7    1  0.5031164E-009  0.4778727E+02  0.7816164E-02  0.1312668E+00
        -11   -1    0    0    0    0  0.00000000000E+00  0.00000000000E+00  0.45593999997E+02  0.45594000000E+02  0.51100000000E-03 0.  1.
         11   -1    0    0    0    0 -0.00000000000E+00 -0.00000000000E+00 -0.45593999997E+02  0.45594000000E+02  0.51100000000E-03 0. -1.
    9900012    2    1    2    0    0  0.36944748209E+02  0.22117638751E+02 -0.54331254791E+01  0.47787271704E+02  0.20000003008E+02 0.  0.
         12    1    1    2    0    0 -0.36944748209E+02 -0.22117638751E+02  0.54331254791E+01  0.43400728296E+02  0.00000000000E+00 0. -1.
         11    1    3    3    0    0  0.17068172842E+02  0.17168306922E+02  0.12251265652E+01  0.24239930324E+02  0.51100000000E-03 0.  1.
        -11    1    3    3    0    0  0.95682430565E+01  0.72645778807E+01 -0.32356790426E+01  0.12441663317E+02  0.51100000000E-03 0. -1.
         12    1    3    3    0    0  0.10308332310E+02 -0.23152460510E+01 -0.34225730017E+01  0.11105678063E+02  0.00000000000E+00 0. -1.
</event>
<event>
 7    1  0.5031164E-009  0.4778727E+02  0.7816164E-02  0.1312668E+00
        -11   -1    0    0    0    0  0.00000000000E+00  0.00000000000E+00  0.45593999997E+02  0.45594000000E+02  0.51100000000E-03 0. -1.
         11   -1    0    0    0    0 -0.00000000000E+00 -0.00000000000E+00 -0.45593999997E+02  0.45594000000E+02  0.51100000000E-03 0.  1.
    9900012    2    1    2    0    0  0.40033276484E+02 -0.30671355853E+01 -0.16478859059E+02  0.47787270253E+02  0.19999996389E+02 0.  0.
         12    1    1    2    0    0 -0.40033276484E+02  0.30671355853E+01  0.16478859059E+02  0.43400729747E+02  0.00000000000E+00 0. -1.
         11    1    3    3    0    0  0.36297928558E+02 -0.51139265698E+00 -0.10751386070E+02  0.37860182815E+02  0.51100000000E-03 0. -1.
        -11    1    3    3    0    0  0.50546505747E+01 -0.22594823627E+01 -0.18771396693E+01  0.58462301168E+01  0.51100000000E-03 0.  1.
         12    1    3    3    0    0 -0.13193026490E+01 -0.29626056555E+00 -0.38503333198E+01  0.40808573212E+01  0.00000000000E+00 0. -1.
</event>
<event>
 7    1  0.5031164E-009  0.4778727E+02  0.7816164E-02  0.1312668E+00
        -11   -1    0    0    0    0  0.00000000000E+00  0.00000000000E+00  0.45593999997E+02  0.45594000000E+02  0.51100000000E-03 0.  1.
         11   -1    0    0    0    0 -0.00000000000E+00 -0.00000000000E+00 -0.45593999997E+02  0.45594000000E+02  0.51100000000E-03 0. -1.
    9900012    2    1    2    0    0 -0.39678372942E+02  0.17451865394E+02  0.21638876290E+01  0.47787270804E+02  0.19999998904E+02 0.  0.
         12    1    1    2    0    0  0.39678372942E+02 -0.17451865394E+02 -0.21638876290E+01  0.43400729196E+02  0.00000000000E+00 0. -1.
         11    1    3    3    0    0 -0.78986145225E+01  0.11305961638E+02 -0.25165146781E+01  0.14019476678E+02  0.51100000000E-03 0. -1.
        -11    1    3    3    0    0 -0.23905378427E+02  0.81941069522E+01  0.41984538725E+01  0.25617133362E+02  0.51100000000E-03 0.  1.
         12    1    3    3    0    0 -0.78743799925E+01 -0.20482031965E+01  0.48194843469E+00  0.81506607642E+01  0.00000000000E+00 0. -1.
</event>
<event>
 7    1  0.5031164E-009  0.4778728E+02  0.7816164E-02  0.1312668E+00
        -11   -1    0    0    0    0  0.00000000000E+00  0.00000000000E+00  0.45593999997E+02  0.45594000000E+02  0.51100000000E-03 0.  1.
         11   -1    0    0    0    0 -0.00000000000E+00 -0.00000000000E+00 -0.45593999997E+02  0.45594000000E+02  0.51100000000E-03 0. -1.
    9900012    2    1    2    0    0  0.90581599405E+01 -0.87829672118E+01  0.41526280454E+02  0.47787277162E+02  0.20000027892E+02 0.  0.
         12    1    1    2    0    0 -0.90581599405E+01  0.87829672118E+01 -0.41526280454E+02  0.43400722838E+02  0.00000000000E+00 0. -1.
         11    1    3    3    0    0 -0.10838476583E+01  0.38683873510E+01  0.74729316373E+01  0.84843299064E+01  0.51100000000E-03 0. -1.
        -11    1    3    3    0    0  0.42740270829E+01 -0.11787354780E+02  0.28674608895E+02  0.31296041854E+02  0.51100000000E-03 0.  1.
        -12    1    3    3    0    0  0.58679805159E+01 -0.86399978320E+00  0.53787399214E+01  0.80069054011E+01  0.00000000000E+00 0.  1.
</event>
<event>
 7    1  0.7032358E-009  0.4778727E+02  0.7816164E-02  0.1312668E+00
        -11   -1    0    0    0    0  0.00000000000E+00  0.00000000000E+00  0.45593999997E+02  0.45594000000E+02  0.51100000000E-03 0. -1.
         11   -1    0    0    0    0 -0.00000000000E+00 -0.00000000000E+00 -0.45593999997E+02  0.45594000000E+02  0.51100000000E-03 0.  1.
    9900012    2    1    2    0    0 -0.19876699165E+02  0.17300265640E+02 -0.34485374064E+02  0.47787269762E+02  0.19999994151E+02 0.  0.
         12    1    1    2    0    0  0.19876699165E+02 -0.17300265640E+02  0.34485374064E+02  0.43400730238E+02  0.00000000000E+00 0. -1.
         11    1    3    3    0    0  0.71653398455E+00  0.85399554744E+01 -0.41224298116E+01  0.95099257762E+01  0.51100000000E-03 0. -1.
        -11    1    3    3    0    0 -0.16032916366E+02  0.90258424115E+01 -0.21434272170E+02  0.28247978019E+02  0.51100000000E-03 0.  1.
         12    1    3    3    0    0 -0.45603167836E+01 -0.26553224630E+00 -0.89286720824E+01  0.10029365967E+02  0.00000000000E+00 0. -1.
</event>
<event>
 7    1  0.5031164E-009  0.4778727E+02  0.7816164E-02  0.1312668E+00
        -11   -1    0    0    0    0  0.00000000000E+00  0.00000000000E+00  0.45593999997E+02  0.45594000000E+02  0.51100000000E-03 0.  1.
         11   -1    0    0    0    0 -0.00000000000E+00 -0.00000000000E+00 -0.45593999997E+02  0.45594000000E+02  0.51100000000E-03 0. -1.
    9900012    2    1    2    0    0  0.39044109443E+02 -0.10610275336E+02  0.15703597358E+02  0.47787269651E+02  0.19999993645E+02 0.  0.
         12    1    1    2    0    0 -0.39044109443E+02  0.10610275336E+02 -0.15703597358E+02  0.43400730349E+02  0.00000000000E+00 0. -1.
         11    1    3    3    0    0  0.46382735662E+00  0.24058054660E+00 -0.29093949809E+01  0.29559421903E+01  0.51100000000E-03 0. -1.
        -11    1    3    3    0    0  0.24985520392E+02 -0.57445528095E+01  0.80417151035E+01  0.26869039772E+02  0.51100000000E-03 0.  1.
         12    1    3    3    0    0  0.13594761694E+02 -0.51063030730E+01  0.10571277235E+02  0.17962287688E+02  0.00000000000E+00 0. -1.
</event>
<event>
 7    1  0.5031164E-009  0.4778727E+02  0.7816164E-02  0.1312668E+00
        -11   -1    0    0    0    0  0.00000000000E+00  0.00000000000E+00  0.45593999997E+02  0.45594000000E+02  0.51100000000E-03 0. -1.
         11   -1    0    0    0    0 -0.00000000000E+00 -0.00000000000E+00 -0.45593999997E+02  0.45594000000E+02  0.51100000000E-03 0.  1.
    9900012    2    1    2    0    0 -0.24274224051E+02  0.32630775122E+02 -0.15153148910E+02  0.47787270050E+02  0.19999995464E+02 0.  0.
         12    1    1    2    0    0  0.24274224051E+02 -0.32630775122E+02  0.15153148910E+02  0.43400729950E+02  0.00000000000E+00 0. -1.
         11    1    3    3    0    0 -0.79472356619E+01  0.15273398218E+02 -0.11764038477E+02  0.20852526211E+02  0.51100000000E-03 0. -1.
        -11    1    3    3    0    0 -0.17940278610E+02  0.13529874333E+02 -0.20179099612E+01  0.22560652848E+02  0.51100000000E-03 0.  1.
         12    1    3    3    0    0  0.16132902205E+01  0.38275025707E+01 -0.13712004715E+01  0.43740909910E+01  0.00000000000E+00 0. -1.
</event>
<event>
 7    1  0.5031164E-009  0.4778726E+02  0.7816164E-02  0.1312668E+00
        -11   -1    0    0    0    0  0.00000000000E+00  0.00000000000E+00  0.45593999997E+02  0.45594000000E+02  0.51100000000E-03 0.  1.
         11   -1    0    0    0    0 -0.00000000000E+00 -0.00000000000E+00 -0.45593999997E+02  0.45594000000E+02  0.51100000000E-03 0. -1.
    9900012    2    1    2    0    0  0.55855440344E+01 -0.41730134902E+02 -0.10536683090E+02  0.47787260932E+02  0.19999953894E+02 0.  0.
         12    1    1    2    0    0 -0.55855440344E+01  0.41730134902E+02  0.10536683090E+02  0.43400739068E+02  0.00000000000E+00 0. -1.
         11    1    3    3    0    0  0.15359555149E+01 -0.15030984024E+02 -0.98681667068E+01  0.18046339088E+02  0.51100000000E-03 0. -1.
        -11    1    3    3    0    0  0.40836009718E+01 -0.32032128484E+01  0.29470991374E+01  0.59683970240E+01  0.51100000000E-03 0.  1.
        -12    1    3    3    0    0 -0.34012452236E-01 -0.23495938029E+02 -0.36156155210E+01  0.23772524820E+02  0.00000000000E+00 0.  1.
</event>
<event>
 7    1  0.5031164E-009  0.4778727E+02  0.7816164E-02  0.1312668E+00
        -11   -1    0    0    0    0  0.00000000000E+00  0.00000000000E+00  0.45593999997E+02  0.45594000000E+02  0.51100000000E-03 0. -1.
         11   -1    0    0    0    0 -0.00000000000E+00 -0.00000000000E+00 -0.45593999997E+02  0.45594000000E+02  0.51100000000E-03 0.  1.
    9900012    2    1    2    0    0  0.28927373103E+02 -0.25468273934E+02 -0.19954884029E+02  0.47787270877E+02  0.19999999237E+02 0.  0.
         12    1    1    2    0    0 -0.28927373103E+02  0.25468273934E+02  0.19954884029E+02  0.43400729123E+02  0.00000000000E+00 0. -1.
         11    1    3    3    0    0  0.31824627897E+00  0.13025461856E+01  0.18817450527E+01  0.23105999144E+01  0.51100000000E-03 0. -1.
        -11    1    3    3    0    0  0.14755642147E+02 -0.88426232366E+01 -0.10323234171E+02  0.20062156536E+02  0.51100000000E-03 0.  1.
         12    1    3    3    0    0  0.13853484677E+02 -0.17928196883E+02 -0.11513394911E+02  0.25414514426E+02  0.00000000000E+00 0. -1.
</event>
<event>
 7    1  0.5031164E-009  0.4778728E+02  0.7816164E-02  0.1312668E+00
        -11   -1    0    0    0    0  0.00000000000E+00  0.00000000000E+00  0.45593999997E+02  0.45594000000E+02  0.51100000000E-03 0.  1.
         11   -1    0    0    0    0 -0.00000000000E+00 -0.00000000000E+00 -0.45593999997E+02  0.45594000000E+02  0.51100000000E-03 0. -1.
    9900012    2    1    2    0    0 -0.11763990921E+02  0.26286269910E+02  0.32469420926E+02  0.47787276925E+02  0.20000026811E+02 0.  0.
         12    1    1    2    0    0  0.11763990921E+02 -0.26286269910E+02 -0.32469420926E+02  0.43400723075E+02  0.00000000000E+00 0. -1.
         11    1    3    3    0    0  0.42913371307E+01  0.16912772255E+01  0.22964311265E+01  0.51526293484E+01  0.51100000000E-03 0. -1.
        -11    1    3    3    0    0 -0.10806639515E+02  0.18965118255E+02  0.18295814659E+02  0.28481502810E+02  0.51100000000E-03 0.  1.
         12    1    3    3    0    0 -0.52486885366E+01  0.56298744287E+01  0.11877175141E+02  0.14153144766E+02  0.00000000000E+00 0. -1.
</event>
<event>
 7    1  0.5031164E-009  0.4778726E+02  0.7816164E-02  0.1312668E+00
        -11   -1    0    0    0    0  0.00000000000E+00  0.00000000000E+00  0.45593999997E+02  0.45594000000E+02  0.51100000000E-03 0.  1.
         11   -1    0    0    0    0 -0.00000000000E+00 -0.00000000000E+00 -0.45593999997E+02  0.45594000000E+02  0.51100000000E-03 0. -1.
    9900012    2    1    2    0    0 -0.31584925396E+02  0.20971755441E+02  0.21123495289E+02  0.47787261622E+02  0.19999957039E+02 0.  0.
         12    1    1    2    0    0  0.31584925396E+02 -0.20971755441E+02 -0.21123495289E+02  0.43400738378E+02  0.00000000000E+00 0. -1.
         11    1    3    3    0    0 -0.13009862178E+02  0.15365274744E+02  0.30185127607E+01  0.20358280904E+02  0.51100000000E-03 0. -1.
        -11    1    3    3    0    0 -0.94151308940E+01  0.56826910439E+01  0.12673108058E+02  0.16779312721E+02  0.51100000000E-03 0.  1.
         12    1    3    3    0    0 -0.91599323238E+01 -0.76210345943E-01  0.54318744696E+01  0.10649667997E+02  0.00000000000E+00 0. -1.
</event>
<event>
 7    1  0.5031164E-009  0.4778727E+02  0.7816164E-02  0.1312668E+00
        -11   -1    0    0    0    0  0.00000000000E+00  0.00000000000E+00  0.45593999997E+02  0.45594000000E+02  0.51100000000E-03 0.  1.
         11   -1    0    0    0    0 -0.00000000000E+00 -0.00000000000E+00 -0.45593999997E+02  0.45594000000E+02  0.51100000000E-03 0. -1.
    9900012    2    1    2    0    0  0.42590859116E+01 -0.20704672919E+01  0.43141588035E+02  0.47787271137E+02  0.20000000424E+02 0.  0.
         12    1    1    2    0    0 -0.42590859116E+01  0.20704672919E+01 -0.43141588035E+02  0.43400728863E+02  0.00000000000E+00 0. -1.
         11    1    3    3    0    0  0.13715224165E+00 -0.57667718339E+01  0.29367511828E+02  0.29928668854E+02  0.51100000000E-03 0. -1.
        -11    1    3    3    0    0  0.25215975713E+01  0.25853970494E+01  0.15084469475E+02  0.15510768899E+02  0.51100000000E-03 0.  1.
         12    1    3    3    0    0  0.16003360987E+01  0.11109074926E+01 -0.13103932683E+01  0.23478333849E+01  0.00000000000E+00 0. -1.
</event>
<event>
 7    1  0.5031164E-009  0.4778728E+02  0.7816164E-02  0.1312668E+00
        -11   -1    0    0    0    0  0.00000000000E+00  0.00000000000E+00  0.45593999997E+02  0.45594000000E+02  0.51100000000E-03 0.  1.
         11   -1    0    0    0    0 -0.00000000000E+00 -0.00000000000E+00 -0.45593999997E+02  0.45594000000E+02  0.51100000000E-03 0. -1.
    9900012    2    1    2    0    0 -0.83643822116E+01 -0.24306718144E+02  0.34969178361E+02  0.47787275674E+02  0.20000021109E+02 0.  0.
         12    1    1    2    0    0  0.83643822116E+01  0.24306718144E+02 -0.34969178361E+02  0.43400724326E+02  0.00000000000E+00 0. -1.
         11    1    3    3    0    0  0.15148141057E+01 -0.14163851546E+02  0.16306572119E+02  0.21652104907E+02  0.51100000000E-03 0. -1.
        -11    1    3    3    0    0 -0.10854338282E+02 -0.45231904865E+01  0.15958539416E+02  0.19822988984E+02  0.51100000000E-03 0.  1.
        -12    1    3    3    0    0  0.97514196467E+00 -0.56196761123E+01  0.27040668268E+01  0.63121817830E+01  0.00000000000E+00 0.  1.
</event>
<event>
 7    1  0.5031164E-009  0.4778727E+02  0.7816164E-02  0.1312668E+00
        -11   -1    0    0    0    0  0.00000000000E+00  0.00000000000E+00  0.45593999997E+02  0.45594000000E+02  0.51100000000E-03 0.  1.
         11   -1    0    0    0    0 -0.00000000000E+00 -0.00000000000E+00 -0.45593999997E+02  0.45594000000E+02  0.51100000000E-03 0. -1.
    9900012    2    1    2    0    0  0.30356956393E+02  0.28831485427E+02  0.11437836942E+02  0.47787268816E+02  0.19999989840E+02 0.  0.
         12    1    1    2    0    0 -0.30356956393E+02 -0.28831485427E+02 -0.11437836942E+02  0.43400731184E+02  0.00000000000E+00 0. -1.
         11    1    3    3    0    0  0.11116349475E+02  0.22259790474E+02  0.52574659775E+01  0.25430541606E+02  0.51100000000E-03 0. -1.
        -11    1    3    3    0    0  0.15060578961E+02  0.47764965612E+01  0.76788983486E+01  0.17567055477E+02  0.51100000000E-03 0.  1.
        -12    1    3    3    0    0  0.41800279572E+01  0.17951983917E+01 -0.14985273838E+01  0.47896717328E+01  0.00000000000E+00 0.  1.
</event>
<event>
 7    1  0.5031164E-009  0.4778727E+02  0.7816164E-02  0.1312668E+00
        -11   -1    0    0    0    0  0.00000000000E+00  0.00000000000E+00  0.45593999997E+02  0.45594000000E+02  0.51100000000E-03 0.  1.
         11   -1    0    0    0    0 -0.00000000000E+00 -0.00000000000E+00 -0.45593999997E+02  0.45594000000E+02  0.51100000000E-03 0. -1.
    9900012    2    1    2    0    0  0.33865858489E+02 -0.15029250306E+02  0.22601958988E+02  0.47787270905E+02  0.19999999362E+02 0.  0.
         12    1    1    2    0    0 -0.33865858489E+02  0.15029250306E+02 -0.22601958988E+02  0.43400729095E+02  0.00000000000E+00 0. -1.
         11    1    3    3    0    0  0.40418821152E+01  0.11429197117E+01  0.45037647582E+00  0.42244426534E+01  0.51100000000E-03 0. -1.
        -11    1    3    3    0    0  0.22355565543E+02 -0.49573241233E+01  0.18927232398E+02  0.29708357405E+02  0.51100000000E-03 0.  1.
        -12    1    3    3    0    0  0.74684108307E+01 -0.11214845894E+02  0.32243501139E+01  0.13854470846E+02  0.00000000000E+00 0.  1.
</event>
<event>
 7    1  0.5031164E-009  0.4778727E+02  0.7816164E-02  0.1312668E+00
        -11   -1    0    0    0    0  0.00000000000E+00  0.00000000000E+00  0.45593999997E+02  0.45594000000E+02  0.51100000000E-03 0.  1.
         11   -1    0    0    0    0 -0.00000000000E+00 -0.00000000000E+00 -0.45593999997E+02  0.45594000000E+02  0.51100000000E-03 0. -1.
    9900012    2    1    2    0    0  0.16411545168E+02  0.37006442132E+02  0.15646330478E+02  0.47787271532E+02  0.20000002225E+02 0.  0.
         12    1    1    2    0    0 -0.16411545168E+02 -0.37006442132E+02 -0.15646330478E+02  0.43400728468E+02  0.00000000000E+00 0. -1.
         11    1    3    3    0    0 -0.14538910192E+00 -0.12193388865E+01 -0.13222287890E+01  0.18044984185E+01  0.51100000000E-03 0. -1.
        -11    1    3    3    0    0  0.11361412877E+02  0.24814111373E+02  0.61249830665E+01  0.27970292161E+02  0.51100000000E-03 0.  1.
         12    1    3    3    0    0  0.51955213931E+01  0.13411669646E+02  0.10843576201E+02  0.18012480953E+02  0.00000000000E+00 0. -1.
</event>
<event>
 7    1  0.5031164E-009  0.4778727E+02  0.7816164E-02  0.1312668E+00
        -11   -1    0    0    0    0  0.00000000000E+00  0.00000000000E+00  0.45593999997E+02  0.45594000000E+02  0.51100000000E-03 0.  1.
         11   -1    0    0    0    0 -0.00000000000E+00 -0.00000000000E+00 -0.45593999997E+02  0.45594000000E+02  0.51100000000E-03 0. -1.
    9900012    2    1    2    0    0  0.11415970586E+02  0.24599070008E+02  0.33884877011E+02  0.47787268212E+02  0.19999987088E+02 0.  0.
         12    1    1    2    0    0 -0.11415970586E+02 -0.24599070008E+02 -0.33884877011E+02  0.43400731788E+02  0.00000000000E+00 0. -1.
         11    1    3    3    0    0  0.81426182774E+01  0.11992207898E+02  0.13741564724E+02  0.19973629715E+02  0.51100000000E-03 0. -1.
        -11    1    3    3    0    0 -0.46360258930E+01  0.92471980048E+01  0.87878260707E+01  0.13573109236E+02  0.51100000000E-03 0.  1.
        -12    1    3    3    0    0  0.79093782014E+01  0.33596641046E+01  0.11355486216E+02  0.14240529261E+02  0.00000000000E+00 0.  1.
</event>
<event>
 7    1  0.5031164E-009  0.4778728E+02  0.7816164E-02  0.1312668E+00
        -11   -1    0    0    0    0  0.00000000000E+00  0.00000000000E+00  0.45593999997E+02  0.45594000000E+02  0.51100000000E-03 0. -1.
         11   -1    0    0    0    0 -0.00000000000E+00 -0.00000000000E+00 -0.45593999997E+02  0.45594000000E+02  0.51100000000E-03 0.  1.
    9900012    2    1    2    0    0 -0.34091695778E+02  0.54849063458E+01 -0.26292481083E+02  0.47787280189E+02  0.20000041692E+02 0.  0.
         12    1    1    2    0    0  0.34091695778E+02 -0.54849063458E+01  0.26292481083E+02  0.43400719811E+02  0.00000000000E+00 0. -1.
         11    1    3    3    0    0 -0.15567386031E+02  0.56570416702E+01 -0.39037235627E+01  0.17017187964E+02  0.51100000000E-03 0. -1.
        -11    1    3    3    0    0 -0.14206537205E+02 -0.33021786035E+01 -0.20401525008E+02  0.25078921544E+02  0.51100000000E-03 0.  1.
        -12    1    3    3    0    0 -0.43177725424E+01  0.31300432792E+01 -0.19872325119E+01  0.56911706805E+01  0.00000000000E+00 0.  1.
</event>
<event>
 7    1  0.5031164E-009  0.4778727E+02  0.7816164E-02  0.1312668E+00
        -11   -1    0    0    0    0  0.00000000000E+00  0.00000000000E+00  0.45593999997E+02  0.45594000000E+02  0.51100000000E-03 0.  1.
         11   -1    0    0    0    0 -0.00000000000E+00 -0.00000000000E+00 -0.45593999997E+02  0.45594000000E+02  0.51100000000E-03 0. -1.
    9900012    2    1    2    0    0  0.83396636541E+01  0.40063923157E+02  0.14455287649E+02  0.47787271094E+02  0.20000000225E+02 0.  0.
         12    1    1    2    0    0 -0.83396636541E+01 -0.40063923157E+02 -0.14455287649E+02  0.43400728906E+02  0.00000000000E+00 0. -1.
         11    1    3    3    0    0 -0.19462414568E+00  0.31261578663E+02  0.12478900412E+02  0.33660765511E+02  0.51100000000E-03 0. -1.
        -11    1    3    3    0    0  0.89784244688E+01  0.79714237526E+01  0.77509618241E-01  0.12006736051E+02  0.51100000000E-03 0.  1.
         12    1    3    3    0    0 -0.44413666897E+00  0.83092074147E+00  0.18988776182E+01  0.21197695319E+01  0.00000000000E+00 0. -1.
</event>
<event>
 7    1  0.5031164E-009  0.4778724E+02  0.7816164E-02  0.1312668E+00
        -11   -1    0    0    0    0  0.00000000000E+00  0.00000000000E+00  0.45593999997E+02  0.45594000000E+02  0.51100000000E-03 0.  1.
         11   -1    0    0    0    0 -0.00000000000E+00 -0.00000000000E+00 -0.45593999997E+02  0.45594000000E+02  0.51100000000E-03 0. -1.
    9900012    2    1    2    0    0  0.27546256600E+02  0.11412046504E+02  0.31537192785E+02  0.47787244398E+02  0.19999878507E+02 0.  0.
         12    1    1    2    0    0 -0.27546256600E+02 -0.11412046504E+02 -0.31537192785E+02  0.43400755602E+02  0.00000000000E+00 0. -1.
         11    1    3    3    0    0  0.53767302873E+01 -0.18740056809E+01  0.35197411082E+01  0.66940050496E+01  0.51100000000E-03 0. -1.
        -11    1    3    3    0    0  0.24329008754E+01  0.15614277787E+01  0.13780437084E+02  0.14080394521E+02  0.51100000000E-03 0.  1.
        -12    1    3    3    0    0  0.19736625438E+02  0.11724624407E+02  0.14237014592E+02  0.27012844827E+02  0.00000000000E+00 0.  1.
</event>
<event>
 7    1  0.5031164E-009  0.4778727E+02  0.7816164E-02  0.1312668E+00
        -11   -1    0    0    0    0  0.00000000000E+00  0.00000000000E+00  0.45593999997E+02  0.45594000000E+02  0.51100000000E-03 0.  1.
         11   -1    0    0    0    0 -0.00000000000E+00 -0.00000000000E+00 -0.45593999997E+02  0.45594000000E+02  0.51100000000E-03 0. -1.
    9900012    2    1    2    0    0 -0.22885330484E+01 -0.28099526849E+02  0.32997005860E+02  0.47787272029E+02  0.20000004490E+02 0.  0.
         12    1    1    2    0    0  0.22885330484E+01  0.28099526849E+02 -0.32997005860E+02  0.43400727971E+02  0.00000000000E+00 0. -1.
         11    1    3    3    0    0 -0.28600945347E+01 -0.17669831462E+01  0.12860580361E+02  0.13292738532E+02  0.51100000000E-03 0. -1.
        -11    1    3    3    0    0  0.44426064903E+01 -0.15235256480E+02  0.14344026448E+02  0.21391607874E+02  0.51100000000E-03 0.  1.
         12    1    3    3    0    0 -0.38710450041E+01 -0.11097287223E+02  0.57923990515E+01  0.13102925624E+02  0.00000000000E+00 0. -1.
</event>
<event>
 7    1  0.5031164E-009  0.4778727E+02  0.7816164E-02  0.1312668E+00
        -11   -1    0    0    0    0  0.00000000000E+00  0.00000000000E+00  0.45593999997E+02  0.45594000000E+02  0.51100000000E-03 0.  1.
         11   -1    0    0    0    0 -0.00000000000E+00 -0.00000000000E+00 -0.45593999997E+02  0.45594000000E+02  0.51100000000E-03 0. -1.
    9900012    2    1    2    0    0  0.62238283932E+01  0.31022740406E+02  0.29706509107E+02  0.47787272524E+02  0.20000006745E+02 0.  0.
         12    1    1    2    0    0 -0.62238283932E+01 -0.31022740406E+02 -0.29706509107E+02  0.43400727476E+02  0.00000000000E+00 0. -1.
         11    1    3    3    0    0  0.35427187954E+01  0.24328392033E+01  0.18778971605E+01  0.46899958485E+01  0.51100000000E-03 0. -1.
        -11    1    3    3    0    0 -0.16804553857E+01  0.23515317967E+01  0.11564970891E+02  0.11920662065E+02  0.51100000000E-03 0.  1.
        -12    1    3    3    0    0  0.43615649836E+01  0.26238369406E+02  0.16263641055E+02  0.31176614610E+02  0.00000000000E+00 0.  1.
</event>
<event>
 7    1  0.5031164E-009  0.4778727E+02  0.7816164E-02  0.1312668E+00
        -11   -1    0    0    0    0  0.00000000000E+00  0.00000000000E+00  0.45593999997E+02  0.45594000000E+02  0.51100000000E-03 0. -1.
         11   -1    0    0    0    0 -0.00000000000E+00 -0.00000000000E+00 -0.45593999997E+02  0.45594000000E+02  0.51100000000E-03 0.  1.
    9900012    2    1    2    0    0  0.13206250575E+02  0.79141080370E+01 -0.40578131948E+02  0.47787274745E+02  0.20000016872E+02 0.  0.
         12    1    1    2    0    0 -0.13206250575E+02 -0.79141080370E+01  0.40578131948E+02  0.43400725255E+02  0.00000000000E+00 0. -1.
         11    1    3    3    0    0 -0.49905615370E+01  0.12721769108E+01 -0.84209174816E+01  0.98709670266E+01  0.51100000000E-03 0. -1.
        -11    1    3    3    0    0  0.11296160612E+01 -0.84122462968E+00 -0.16706279955E+01  0.21851062866E+01  0.51100000000E-03 0.  1.
         12    1    3    3    0    0  0.17067196051E+02  0.74831557560E+01 -0.30486586471E+02  0.35731201432E+02  0.00000000000E+00 0. -1.
</event>
<event>
 7    1  0.5031164E-009  0.4778727E+02  0.7816164E-02  0.1312668E+00
        -11   -1    0    0    0    0  0.00000000000E+00  0.00000000000E+00  0.45593999997E+02  0.45594000000E+02  0.51100000000E-03 0. -1.
         11   -1    0    0    0    0 -0.00000000000E+00 -0.00000000000E+00 -0.45593999997E+02  0.45594000000E+02  0.51100000000E-03 0.  1.
    9900012    2    1    2    0    0  0.28652164138E+02 -0.28616232637E+02 -0.15613709223E+02  0.47787271944E+02  0.20000004099E+02 0.  0.
         12    1    1    2    0    0 -0.28652164138E+02  0.28616232637E+02  0.15613709223E+02  0.43400728056E+02  0.00000000000E+00 0. -1.
         11    1    3    3    0    0  0.13315066958E+02 -0.62503862809E+01 -0.23638827223E-02  0.14709124468E+02  0.51100000000E-03 0. -1.
        -11    1    3    3    0    0  0.10818173099E+02 -0.22068960159E+02 -0.13905283267E+02  0.28238781395E+02  0.51100000000E-03 0.  1.
         12    1    3    3    0    0  0.45189240808E+01 -0.29688619739E+00 -0.17060620734E+01  0.48393660804E+01  0.00000000000E+00 0. -1.
</event>
<event>
 7    1  0.5031164E-009  0.4778727E+02  0.7816164E-02  0.1312668E+00
        -11   -1    0    0    0    0  0.00000000000E+00  0.00000000000E+00  0.45593999997E+02  0.45594000000E+02  0.51100000000E-03 0.  1.
         11   -1    0    0    0    0 -0.00000000000E+00 -0.00000000000E+00 -0.45593999997E+02  0.45594000000E+02  0.51100000000E-03 0. -1.
    9900012    2    1    2    0    0 -0.15889341325E+02  0.13431223645E+02  0.38088774450E+02  0.47787266418E+02  0.19999978907E+02 0.  0.
         12    1    1    2    0    0  0.15889341325E+02 -0.13431223645E+02 -0.38088774450E+02  0.43400733582E+02  0.00000000000E+00 0. -1.
         11    1    3    3    0    0  0.34280964997E+01  0.45070417972E+01  0.35414569057E+01  0.66788613288E+01  0.51100000000E-03 0. -1.
        -11    1    3    3    0    0 -0.10791743793E+02  0.85105093056E+01  0.21225790305E+02  0.25286847907E+02  0.51100000000E-03 0.  1.
         12    1    3    3    0    0 -0.85256940314E+01  0.41367254177E+00  0.13321527239E+02  0.15821557182E+02  0.00000000000E+00 0. -1.
</event>
<event>
 7    1  0.5031164E-009  0.4778727E+02  0.7816164E-02  0.1312668E+00
        -11   -1    0    0    0    0  0.00000000000E+00  0.00000000000E+00  0.45593999997E+02  0.45594000000E+02  0.51100000000E-03 0.  1.
         11   -1    0    0    0    0 -0.00000000000E+00 -0.00000000000E+00 -0.45593999997E+02  0.45594000000E+02  0.51100000000E-03 0. -1.
    9900012    2    1    2    0    0  0.22168235460E+01 -0.15383031392E+02  0.40522480804E+02  0.47787269454E+02  0.19999992746E+02 0.  0.
         12    1    1    2    0    0 -0.22168235460E+01  0.15383031392E+02 -0.40522480804E+02  0.43400730546E+02  0.00000000000E+00 0. -1.
         11    1    3    3    0    0  0.20536488682E+00 -0.12955719623E+02  0.84200932341E+01  0.15452857859E+02  0.51100000000E-03 0.  1.
        -11    1    3    3    0    0  0.15798782839E+01 -0.27071939008E+01  0.30248982404E+02  0.30410949524E+02  0.51100000000E-03 0. -1.
        -12    1    3    3    0    0  0.43158037525E+00  0.27988213126E+00  0.18534051662E+01  0.19234620708E+01  0.00000000000E+00 0.  1.
</event>
<event>
 7    1  0.5031164E-009  0.4778727E+02  0.7816164E-02  0.1312668E+00
        -11   -1    0    0    0    0  0.00000000000E+00  0.00000000000E+00  0.45593999997E+02  0.45594000000E+02  0.51100000000E-03 0.  1.
         11   -1    0    0    0    0 -0.00000000000E+00 -0.00000000000E+00 -0.45593999997E+02  0.45594000000E+02  0.51100000000E-03 0. -1.
    9900012    2    1    2    0    0 -0.39850427960E+01  0.34733848178E+02  0.25715805311E+02  0.47787269382E+02  0.19999992422E+02 0.  0.
         12    1    1    2    0    0  0.39850427960E+01 -0.34733848178E+02 -0.25715805311E+02  0.43400730618E+02  0.00000000000E+00 0. -1.
         11    1    3    3    0    0  0.34295433425E+01  0.29286932917E+02  0.16111946736E+02  0.33601801070E+02  0.51100000000E-03 0. -1.
        -11    1    3    3    0    0 -0.77828879852E+01  0.55322980722E+01  0.98622949768E+01  0.13727509964E+02  0.51100000000E-03 0.  1.
         12    1    3    3    0    0  0.36830184670E+00 -0.85382811413E-01 -0.25843640201E+00  0.45795834817E+00  0.00000000000E+00 0. -1.
</event>
<event>
 7    1  0.5031164E-009  0.4778727E+02  0.7816164E-02  0.1312668E+00
        -11   -1    0    0    0    0  0.00000000000E+00  0.00000000000E+00  0.45593999997E+02  0.45594000000E+02  0.51100000000E-03 0.  1.
         11   -1    0    0    0    0 -0.00000000000E+00 -0.00000000000E+00 -0.45593999997E+02  0.45594000000E+02  0.51100000000E-03 0. -1.
    9900012    2    1    2    0    0 -0.10694685678E+02 -0.32389466695E+01  0.41937527293E+02  0.47787271058E+02  0.20000000061E+02 0.  0.
         12    1    1    2    0    0  0.10694685678E+02  0.32389466695E+01 -0.41937527293E+02  0.43400728942E+02  0.00000000000E+00 0. -1.
         11    1    3    3    0    0 -0.41788655613E+01 -0.54850455537E+01  0.28613171101E+01  0.74656398234E+01  0.51100000000E-03 0. -1.
        -11    1    3    3    0    0 -0.50256011331E+01  0.13862814719E+01  0.37853795238E+02  0.38211101230E+02  0.51100000000E-03 0.  1.
         12    1    3    3    0    0 -0.14902189833E+01  0.85981741231E+00  0.12224149451E+01  0.21105300042E+01  0.00000000000E+00 0. -1.
</event>
<event>
 7    1  0.5031164E-009  0.4778728E+02  0.7816164E-02  0.1312668E+00
        -11   -1    0    0    0    0  0.00000000000E+00  0.00000000000E+00  0.45593999997E+02  0.45594000000E+02  0.51100000000E-03 0. -1.
         11   -1    0    0    0    0 -0.00000000000E+00 -0.00000000000E+00 -0.45593999997E+02  0.45594000000E+02  0.51100000000E-03 0.  1.
    9900012    2    1    2    0    0 -0.20414134731E+02  0.10770666229E+02 -0.36754302880E+02  0.47787275029E+02  0.20000018165E+02 0.  0.
         12    1    1    2    0    0  0.20414134731E+02 -0.10770666229E+02  0.36754302880E+02  0.43400724971E+02  0.00000000000E+00 0. -1.
         11    1    3    3    0    0  0.24868983981E+01 -0.12843423577E+00 -0.19623626464E+01  0.31704930867E+01  0.51100000000E-03 0. -1.
        -11    1    3    3    0    0 -0.20886673258E+02  0.13047825432E+02 -0.32974103573E+02  0.41155684601E+02  0.51100000000E-03 0.  1.
        -12    1    3    3    0    0 -0.20143598714E+01 -0.21487249672E+01 -0.18178366605E+01  0.34610973404E+01  0.00000000000E+00 0.  1.
</event>
<event>
 7    1  0.5031164E-009  0.4778727E+02  0.7816164E-02  0.1312668E+00
        -11   -1    0    0    0    0  0.00000000000E+00  0.00000000000E+00  0.45593999997E+02  0.45594000000E+02  0.51100000000E-03 0.  1.
         11   -1    0    0    0    0 -0.00000000000E+00 -0.00000000000E+00 -0.45593999997E+02  0.45594000000E+02  0.51100000000E-03 0. -1.
    9900012    2    1    2    0    0  0.53936939554E+01  0.22035330805E+02  0.36999667316E+02  0.47787272822E+02  0.20000008103E+02 0.  0.
         12    1    1    2    0    0 -0.53936939554E+01 -0.22035330805E+02 -0.36999667316E+02  0.43400727178E+02  0.00000000000E+00 0. -1.
         11    1    3    3    0    0 -0.40678591307E+01 -0.10851295927E+01  0.25842122870E+01  0.49399531927E+01  0.51100000000E-03 0. -1.
        -11    1    3    3    0    0  0.30995409372E+01  0.78579026143E+01  0.16033066080E+02  0.18122168626E+02  0.51100000000E-03 0.  1.
         12    1    3    3    0    0  0.63620121488E+01  0.15262557783E+02  0.18382388948E+02  0.24725151003E+02  0.00000000000E+00 0. -1.
</event>
<event>
 7    1  0.5031164E-009  0.4778727E+02  0.7816164E-02  0.1312668E+00
        -11   -1    0    0    0    0  0.00000000000E+00  0.00000000000E+00  0.45593999997E+02  0.45594000000E+02  0.51100000000E-03 0. -1.
         11   -1    0    0    0    0 -0.00000000000E+00 -0.00000000000E+00 -0.45593999997E+02  0.45594000000E+02  0.51100000000E-03 0.  1.
    9900012    2    1    2    0    0  0.52662601285E+01  0.37178618708E+02 -0.21763280488E+02  0.47787267721E+02  0.19999984846E+02 0.  0.
         12    1    1    2    0    0 -0.52662601285E+01 -0.37178618708E+02  0.21763280488E+02  0.43400732279E+02  0.00000000000E+00 0. -1.
         11    1    3    3    0    0  0.53433005131E+01  0.25831079767E+02 -0.20203407956E+02  0.33226092693E+02  0.51100000000E-03 0. -1.
        -11    1    3    3    0    0 -0.37867724513E+01  0.97086372698E+01 -0.10561089323E+01  0.10474380630E+02  0.51100000000E-03 0.  1.
         12    1    3    3    0    0  0.37097320667E+01  0.16389016709E+01 -0.50376359945E+00  0.40867943987E+01  0.00000000000E+00 0. -1.
</event>
<event>
 7    1  0.5031164E-009  0.4778727E+02  0.7816164E-02  0.1312668E+00
        -11   -1    0    0    0    0  0.00000000000E+00  0.00000000000E+00  0.45593999997E+02  0.45594000000E+02  0.51100000000E-03 0.  1.
         11   -1    0    0    0    0 -0.00000000000E+00 -0.00000000000E+00 -0.45593999997E+02  0.45594000000E+02  0.51100000000E-03 0. -1.
    9900012    2    1    2    0    0 -0.30910986477E+02 -0.20515460302E+02  0.22522213910E+02  0.47787270562E+02  0.19999997801E+02 0.  0.
         12    1    1    2    0    0  0.30910986477E+02  0.20515460302E+02 -0.22522213910E+02  0.43400729438E+02  0.00000000000E+00 0. -1.
         11    1    3    3    0    0 -0.54034670052E+01 -0.11286990135E+02  0.65188288366E+01  0.14109880639E+02  0.51100000000E-03 0. -1.
        -11    1    3    3    0    0 -0.11316720047E+02 -0.10148147149E+02  0.10269441395E+02  0.18344330732E+02  0.51100000000E-03 0.  1.
         12    1    3    3    0    0 -0.14190799424E+02  0.91967698206E+00  0.57339436785E+01  0.15333059191E+02  0.00000000000E+00 0. -1.
</event>
<event>
 7    1  0.5031164E-009  0.4778727E+02  0.7816164E-02  0.1312668E+00
        -11   -1    0    0    0    0  0.00000000000E+00  0.00000000000E+00  0.45593999997E+02  0.45594000000E+02  0.51100000000E-03 0. -1.
         11   -1    0    0    0    0 -0.00000000000E+00 -0.00000000000E+00 -0.45593999997E+02  0.45594000000E+02  0.51100000000E-03 0.  1.
    9900012    2    1    2    0    0  0.96691784909E+01  0.25984623683E+02 -0.33390561102E+02  0.47787271304E+02  0.20000001184E+02 0.  0.
         12    1    1    2    0    0 -0.96691784909E+01 -0.25984623683E+02  0.33390561102E+02  0.43400728696E+02  0.00000000000E+00 0. -1.
         11    1    3    3    0    0  0.44471566280E+01  0.44326186865E+00 -0.10470503576E+01  0.45902067351E+01  0.51100000000E-03 0. -1.
        -11    1    3    3    0    0  0.32452717343E+01  0.18732858142E+02 -0.30383535607E+02  0.35841470380E+02  0.51100000000E-03 0.  1.
        -12    1    3    3    0    0  0.19767501285E+01  0.68085036725E+01 -0.19599751375E+01  0.73555941886E+01  0.00000000000E+00 0.  1.
</event>
<event>
 7    1  0.5031164E-009  0.4778727E+02  0.7816164E-02  0.1312668E+00
        -11   -1    0    0    0    0  0.00000000000E+00  0.00000000000E+00  0.45593999997E+02  0.45594000000E+02  0.51100000000E-03 0.  1.
         11   -1    0    0    0    0 -0.00000000000E+00 -0.00000000000E+00 -0.45593999997E+02  0.45594000000E+02  0.51100000000E-03 0. -1.
    9900012    2    1    2    0    0 -0.27285412324E+02  0.13809504013E+02  0.30796544134E+02  0.47787271234E+02  0.20000000866E+02 0.  0.
         12    1    1    2    0    0  0.27285412324E+02 -0.13809504013E+02 -0.30796544134E+02  0.43400728766E+02  0.00000000000E+00 0. -1.
         11    1    3    3    0    0 -0.11586398765E+02 -0.25826657400E+01  0.60542499484E+01  0.13325492162E+02  0.51100000000E-03 0. -1.
        -11    1    3    3    0    0 -0.16308862027E+02  0.15121315203E+02  0.21532602886E+02  0.30956197140E+02  0.51100000000E-03 0.  1.
         12    1    3    3    0    0  0.60984846774E+00  0.12708545502E+01  0.32096913000E+01  0.35055819321E+01  0.00000000000E+00 0. -1.
</event>
<event>
 7    1  0.5031164E-009  0.4778727E+02  0.7816164E-02  0.1312668E+00
        -11   -1    0    0    0    0  0.00000000000E+00  0.00000000000E+00  0.45593999997E+02  0.45594000000E+02  0.51100000000E-03 0.  1.
         11   -1    0    0    0    0 -0.00000000000E+00 -0.00000000000E+00 -0.45593999997E+02  0.45594000000E+02  0.51100000000E-03 0. -1.
    9900012    2    1    2    0    0  0.14452250222E+02  0.25290520463E+02  0.32173675365E+02  0.47787270187E+02  0.19999996092E+02 0.  0.
         12    1    1    2    0    0 -0.14452250222E+02 -0.25290520463E+02 -0.32173675365E+02  0.43400729813E+02  0.00000000000E+00 0. -1.
         11    1    3    3    0    0  0.61937649164E+01  0.43871130343E+01  0.29807167328E+01  0.81543949572E+01  0.51100000000E-03 0. -1.
        -11    1    3    3    0    0  0.12890070064E+01  0.18312092766E+02  0.25245891716E+02  0.31214569184E+02  0.51100000000E-03 0.  1.
        -12    1    3    3    0    0  0.69694782993E+01  0.25913146624E+01  0.39470669164E+01  0.84183060462E+01  0.00000000000E+00 0.  1.
</event>
<event>
 7    1  0.5031164E-009  0.4778727E+02  0.7816164E-02  0.1312668E+00
        -11   -1    0    0    0    0  0.00000000000E+00  0.00000000000E+00  0.45593999997E+02  0.45594000000E+02  0.51100000000E-03 0.  1.
         11   -1    0    0    0    0 -0.00000000000E+00 -0.00000000000E+00 -0.45593999997E+02  0.45594000000E+02  0.51100000000E-03 0. -1.
    9900012    2    1    2    0    0  0.64452500438E+01 -0.21614349167E+01  0.42865024158E+02  0.47787270224E+02  0.19999996261E+02 0.  0.
         12    1    1    2    0    0 -0.64452500438E+01  0.21614349167E+01 -0.42865024158E+02  0.43400729776E+02  0.00000000000E+00 0. -1.
         11    1    3    3    0    0  0.62093060496E+01  0.44231900421E+01  0.68827161778E+01  0.10270923717E+02  0.51100000000E-03 0. -1.
        -11    1    3    3    0    0 -0.36707955537E+01 -0.16702000208E+01  0.18676715327E+02  0.19107171527E+02  0.51100000000E-03 0.  1.
         12    1    3    3    0    0  0.39067395480E+01 -0.49144249380E+01  0.17305592653E+02  0.18409174980E+02  0.00000000000E+00 0. -1.
</event>
<event>
 7    1  0.5031164E-009  0.4778727E+02  0.7816164E-02  0.1312668E+00
        -11   -1    0    0    0    0  0.00000000000E+00  0.00000000000E+00  0.45593999997E+02  0.45594000000E+02  0.51100000000E-03 0.  1.
         11   -1    0    0    0    0 -0.00000000000E+00 -0.00000000000E+00 -0.45593999997E+02  0.45594000000E+02  0.51100000000E-03 0. -1.
    9900012    2    1    2    0    0 -0.38353092320E+02 -0.40531438325E+01  0.19905667920E+02  0.47787270965E+02  0.19999999638E+02 0.  0.
         12    1    1    2    0    0  0.38353092320E+02  0.40531438325E+01 -0.19905667920E+02  0.43400729035E+02  0.00000000000E+00 0. -1.
         11    1    3    3    0    0 -0.68805468631E+01 -0.79191017815E+00  0.10757479349E+02  0.12794233430E+02  0.51100000000E-03 0.  1.
        -11    1    3    3    0    0 -0.63807456737E+01  0.12429480405E+01 -0.25003256174E+01  0.69649453435E+01  0.51100000000E-03 0. -1.
        -12    1    3    3    0    0 -0.25091799783E+02 -0.45041816949E+01  0.11648514189E+02  0.28028092192E+02  0.00000000000E+00 0.  1.
</event>
<event>
 7    1  0.5031164E-009  0.4778728E+02  0.7816164E-02  0.1312668E+00
        -11   -1    0    0    0    0  0.00000000000E+00  0.00000000000E+00  0.45593999997E+02  0.45594000000E+02  0.51100000000E-03 0.  1.
         11   -1    0    0    0    0 -0.00000000000E+00 -0.00000000000E+00 -0.45593999997E+02  0.45594000000E+02  0.51100000000E-03 0. -1.
    9900012    2    1    2    0    0  0.39009652312E+02 -0.18596510173E+02  0.40048820037E+01  0.47787282910E+02  0.20000054098E+02 0.  0.
         12    1    1    2    0    0 -0.39009652312E+02  0.18596510173E+02 -0.40048820037E+01  0.43400717090E+02  0.00000000000E+00 0. -1.
         11    1    3    3    0    0  0.19848960017E+02 -0.73326522466E+01  0.67265253227E+01  0.22203494002E+02  0.51100000000E-03 0. -1.
        -11    1    3    3    0    0  0.56417012233E+01 -0.11274144263E+01  0.44043558326E+01  0.72455646117E+01  0.51100000000E-03 0.  1.
         12    1    3    3    0    0  0.13518991071E+02 -0.10136443500E+02 -0.71259991515E+01  0.18338224296E+02  0.00000000000E+00 0. -1.
</event>
<event>
 7    1  0.5031164E-009  0.4778727E+02  0.7816164E-02  0.1312668E+00
        -11   -1    0    0    0    0  0.00000000000E+00  0.00000000000E+00  0.45593999997E+02  0.45594000000E+02  0.51100000000E-03 0. -1.
         11   -1    0    0    0    0 -0.00000000000E+00 -0.00000000000E+00 -0.45593999997E+02  0.45594000000E+02  0.51100000000E-03 0.  1.
    9900012    2    1    2    0    0  0.64449874042E+00  0.11296208365E+01 -0.43381239577E+02  0.47787269948E+02  0.19999994999E+02 0.  0.
         12    1    1    2    0    0 -0.64449874042E+00 -0.11296208365E+01  0.43381239577E+02  0.43400730052E+02  0.00000000000E+00 0. -1.
         11    1    3    3    0    0 -0.48552312693E+01 -0.55543915607E+01 -0.11867058272E+02  0.13973246172E+02  0.51100000000E-03 0. -1.
        -11    1    3    3    0    0  0.66482403042E+01  0.40742002718E+01 -0.28941942090E+02  0.29973892293E+02  0.51100000000E-03 0.  1.
         12    1    3    3    0    0 -0.11485102945E+01  0.26098121254E+01 -0.25722392153E+01  0.38401314830E+01  0.00000000000E+00 0. -1.
</event>
<event>
 7    1  0.5031164E-009  0.4778727E+02  0.7816164E-02  0.1312668E+00
        -11   -1    0    0    0    0  0.00000000000E+00  0.00000000000E+00  0.45593999997E+02  0.45594000000E+02  0.51100000000E-03 0.  1.
         11   -1    0    0    0    0 -0.00000000000E+00 -0.00000000000E+00 -0.45593999997E+02  0.45594000000E+02  0.51100000000E-03 0. -1.
    9900012    2    1    2    0    0 -0.76464052005E+01  0.34847532485E+01  0.42579479986E+02  0.47787272660E+02  0.20000007368E+02 0.  0.
         12    1    1    2    0    0  0.76464052005E+01 -0.34847532485E+01 -0.42579479986E+02  0.43400727340E+02  0.00000000000E+00 0. -1.
         11    1    3    3    0    0  0.32398103470E+00 -0.28965433998E+01  0.30613676174E+02  0.30752107189E+02  0.51100000000E-03 0.  1.
        -11    1    3    3    0    0 -0.30175507018E+01  0.57295296654E+01  0.39350493166E+01  0.75774491625E+01  0.51100000000E-03 0. -1.
        -12    1    3    3    0    0 -0.49528355334E+01  0.65176698297E+00  0.80307544952E+01  0.94577163091E+01  0.00000000000E+00 0.  1.
</event>
<event>
 7    1  0.5031164E-009  0.4778727E+02  0.7816164E-02  0.1312668E+00
        -11   -1    0    0    0    0  0.00000000000E+00  0.00000000000E+00  0.45593999997E+02  0.45594000000E+02  0.51100000000E-03 0.  1.
         11   -1    0    0    0    0 -0.00000000000E+00 -0.00000000000E+00 -0.45593999997E+02  0.45594000000E+02  0.51100000000E-03 0. -1.
    9900012    2    1    2    0    0  0.23028094046E+02 -0.14259195076E+01  0.36759997702E+02  0.47787265065E+02  0.19999972738E+02 0.  0.
         12    1    1    2    0    0 -0.23028094046E+02  0.14259195076E+01 -0.36759997702E+02  0.43400734935E+02  0.00000000000E+00 0. -1.
         11    1    3    3    0    0  0.20797470398E+02 -0.63153193659E+01  0.19691715290E+02  0.29328854137E+02  0.51100000000E-03 0. -1.
        -11    1    3    3    0    0  0.16379990182E+01  0.55942440205E+01  0.12421155646E+02  0.13720922519E+02  0.51100000000E-03 0.  1.
         12    1    3    3    0    0  0.59262463009E+00 -0.70484416218E+00  0.46471267664E+01  0.47374884092E+01  0.00000000000E+00 0. -1.
</event>
<event>
 7    1  0.5031164E-009  0.4778727E+02  0.7816164E-02  0.1312668E+00
        -11   -1    0    0    0    0  0.00000000000E+00  0.00000000000E+00  0.45593999997E+02  0.45594000000E+02  0.51100000000E-03 0.  1.
         11   -1    0    0    0    0 -0.00000000000E+00 -0.00000000000E+00 -0.45593999997E+02  0.45594000000E+02  0.51100000000E-03 0. -1.
    9900012    2    1    2    0    0  0.13784596726E+02 -0.27625091927E+02  0.30503489695E+02  0.47787266199E+02  0.19999977907E+02 0.  0.
         12    1    1    2    0    0 -0.13784596726E+02  0.27625091927E+02 -0.30503489695E+02  0.43400733801E+02  0.00000000000E+00 0. -1.
         11    1    3    3    0    0 -0.11804489026E+01 -0.15899403946E+02  0.71277103704E+01  0.17463927417E+02  0.51100000000E-03 0. -1.
        -11    1    3    3    0    0  0.12571253866E+02 -0.10079889484E+02  0.17625490369E+02  0.23880923492E+02  0.51100000000E-03 0.  1.
        -12    1    3    3    0    0  0.23937917625E+01 -0.16457984967E+01  0.57502889557E+01  0.64424152899E+01  0.00000000000E+00 0.  1.
</event>
<event>
 7    1  0.5031164E-009  0.4778727E+02  0.7816164E-02  0.1312668E+00
        -11   -1    0    0    0    0  0.00000000000E+00  0.00000000000E+00  0.45593999997E+02  0.45594000000E+02  0.51100000000E-03 0.  1.
         11   -1    0    0    0    0 -0.00000000000E+00 -0.00000000000E+00 -0.45593999997E+02  0.45594000000E+02  0.51100000000E-03 0. -1.
    9900012    2    1    2    0    0 -0.41047580926E+02  0.14080814193E+02  0.67070069023E+00  0.47787273420E+02  0.20000010833E+02 0.  0.
         12    1    1    2    0    0  0.41047580926E+02 -0.14080814193E+02 -0.67070069023E+00  0.43400726580E+02  0.00000000000E+00 0. -1.
         11    1    3    3    0    0 -0.20768671959E+02  0.12617266415E+01 -0.58968678649E+01  0.21626436136E+02  0.51100000000E-03 0. -1.
        -11    1    3    3    0    0 -0.74032321428E+01  0.63601533767E+01  0.65530683160E+01  0.11755938999E+02  0.51100000000E-03 0.  1.
         12    1    3    3    0    0 -0.12875676824E+02  0.64589341753E+01  0.14500239128E-01  0.14404898286E+02  0.00000000000E+00 0. -1.
</event>
<event>
 7    1  0.5031164E-009  0.4778727E+02  0.7816164E-02  0.1312668E+00
        -11   -1    0    0    0    0  0.00000000000E+00  0.00000000000E+00  0.45593999997E+02  0.45594000000E+02  0.51100000000E-03 0.  1.
         11   -1    0    0    0    0 -0.00000000000E+00 -0.00000000000E+00 -0.45593999997E+02  0.45594000000E+02  0.51100000000E-03 0. -1.
    9900012    2    1    2    0    0  0.35285591915E+02  0.14164412010E+02  0.20926532637E+02  0.47787270368E+02  0.19999996917E+02 0.  0.
         12    1    1    2    0    0 -0.35285591915E+02 -0.14164412010E+02 -0.20926532637E+02  0.43400729632E+02  0.00000000000E+00 0. -1.
         11    1    3    3    0    0  0.10543416446E+02 -0.45558275282E+00  0.87364229213E+01  0.13700228893E+02  0.51100000000E-03 0. -1.
        -11    1    3    3    0    0  0.14863276826E+02  0.14195012772E+02  0.33508816592E+01  0.20824115678E+02  0.51100000000E-03 0.  1.
        -12    1    3    3    0    0  0.98788986418E+01  0.42498199084E+00  0.88392280563E+01  0.13262925797E+02  0.00000000000E+00 0.  1.
</event>
<event>
 7    1  0.5031164E-009  0.4778727E+02  0.7816164E-02  0.1312668E+00
        -11   -1    0    0    0    0  0.00000000000E+00  0.00000000000E+00  0.45593999997E+02  0.45594000000E+02  0.51100000000E-03 0.  1.
         11   -1    0    0    0    0 -0.00000000000E+00 -0.00000000000E+00 -0.45593999997E+02  0.45594000000E+02  0.51100000000E-03 0. -1.
    9900012    2    1    2    0    0 -0.97758061129E+01  0.33792150524E+02  0.25419426146E+02  0.47787273649E+02  0.20000011874E+02 0.  0.
         12    1    1    2    0    0  0.97758061129E+01 -0.33792150524E+02 -0.25419426146E+02  0.43400726351E+02  0.00000000000E+00 0. -1.
         11    1    3    3    0    0  0.84369590594E+00  0.22931274305E+02  0.95918216310E+01  0.24870830434E+02  0.51100000000E-03 0. -1.
        -11    1    3    3    0    0 -0.10491096256E+02  0.73044403071E+01  0.10676132019E+02  0.16655261751E+02  0.51100000000E-03 0.  1.
         12    1    3    3    0    0 -0.12840576276E+00  0.35564359124E+01  0.51514724960E+01  0.62611814632E+01  0.00000000000E+00 0. -1.
</event>
<event>
 7    1  0.5031164E-009  0.4778727E+02  0.7816164E-02  0.1312668E+00
        -11   -1    0    0    0    0  0.00000000000E+00  0.00000000000E+00  0.45593999997E+02  0.45594000000E+02  0.51100000000E-03 0.  1.
         11   -1    0    0    0    0 -0.00000000000E+00 -0.00000000000E+00 -0.45593999997E+02  0.45594000000E+02  0.51100000000E-03 0. -1.
    9900012    2    1    2    0    0 -0.10739656456E+02  0.33200642575E+02  0.25806987218E+02  0.47787268698E+02  0.19999989304E+02 0.  0.
         12    1    1    2    0    0  0.10739656456E+02 -0.33200642575E+02 -0.25806987218E+02  0.43400731302E+02  0.00000000000E+00 0. -1.
         11    1    3    3    0    0 -0.47882804782E+01  0.29592233304E+02  0.18440086545E+02  0.35194668544E+02  0.51100000000E-03 0. -1.
        -11    1    3    3    0    0 -0.75701115702E+01  0.20093422327E+01  0.64233956730E+01  0.10129366102E+02  0.51100000000E-03 0.  1.
         12    1    3    3    0    0  0.16187355926E+01  0.15990670383E+01  0.94350500090E+00  0.24632340527E+01  0.00000000000E+00 0. -1.
</event>
<event>
 7    1  0.5031164E-009  0.4778727E+02  0.7816164E-02  0.1312668E+00
        -11   -1    0    0    0    0  0.00000000000E+00  0.00000000000E+00  0.45593999997E+02  0.45594000000E+02  0.51100000000E-03 0. -1.
         11   -1    0    0    0    0 -0.00000000000E+00 -0.00000000000E+00 -0.45593999997E+02  0.45594000000E+02  0.51100000000E-03 0.  1.
    9900012    2    1    2    0    0  0.47092926654E+01 -0.31794519458E+02 -0.29164267838E+02  0.47787269320E+02  0.19999992139E+02 0.  0.
         12    1    1    2    0    0 -0.47092926654E+01  0.31794519458E+02  0.29164267838E+02  0.43400730680E+02  0.00000000000E+00 0. -1.
         11    1    3    3    0    0  0.62726179121E+01 -0.16967892624E+02 -0.42600494720E+01  0.18585024545E+02  0.51100000000E-03 0. -1.
        -11    1    3    3    0    0 -0.40482589584E+00 -0.92904212518E+01 -0.18141387807E+02  0.20385920702E+02  0.51100000000E-03 0.  1.
         12    1    3    3    0    0 -0.11584993509E+01 -0.55362055825E+01 -0.67628305592E+01  0.88163240735E+01  0.00000000000E+00 0. -1.
</event>
<event>
 7    1  0.5031164E-009  0.4778727E+02  0.7816164E-02  0.1312668E+00
        -11   -1    0    0    0    0  0.00000000000E+00  0.00000000000E+00  0.45593999997E+02  0.45594000000E+02  0.51100000000E-03 0.  1.
         11   -1    0    0    0    0 -0.00000000000E+00 -0.00000000000E+00 -0.45593999997E+02  0.45594000000E+02  0.51100000000E-03 0. -1.
    9900012    2    1    2    0    0  0.28581932430E+02  0.16871862713E+02  0.27964920490E+02  0.47787269696E+02  0.19999993854E+02 0.  0.
         12    1    1    2    0    0 -0.28581932430E+02 -0.16871862713E+02 -0.27964920490E+02  0.43400730304E+02  0.00000000000E+00 0. -1.
         11    1    3    3    0    0  0.30078806533E+01  0.19229425679E+01 -0.17741874201E+01  0.39865769034E+01  0.51100000000E-03 0. -1.
        -11    1    3    3    0    0  0.74777923371E+01  0.10427975688E+02  0.16617212979E+02  0.20995042811E+02  0.51100000000E-03 0.  1.
        -12    1    3    3    0    0  0.18096259440E+02  0.45209444565E+01  0.13121894932E+02  0.22805649982E+02  0.00000000000E+00 0.  1.
</event>
<event>
 7    1  0.5031164E-009  0.4778726E+02  0.7816164E-02  0.1312668E+00
        -11   -1    0    0    0    0  0.00000000000E+00  0.00000000000E+00  0.45593999997E+02  0.45594000000E+02  0.51100000000E-03 0. -1.
         11   -1    0    0    0    0 -0.00000000000E+00 -0.00000000000E+00 -0.45593999997E+02  0.45594000000E+02  0.51100000000E-03 0.  1.
    9900012    2    1    2    0    0  0.22698976003E+02 -0.13382042338E+02 -0.34486247743E+02  0.47787264383E+02  0.19999969629E+02 0.  0.
         12    1    1    2    0    0 -0.22698976003E+02  0.13382042338E+02  0.34486247743E+02  0.43400735617E+02  0.00000000000E+00 0. -1.
         11    1    3    3    0    0  0.22968516773E+02 -0.10124972457E+02 -0.25460077944E+02  0.35753089366E+02  0.51100000000E-03 0. -1.
        -11    1    3    3    0    0 -0.30037130703E+01 -0.17345457852E+01 -0.80346240385E+01  0.87513498954E+01  0.51100000000E-03 0.  1.
        -12    1    3    3    0    0  0.27341722998E+01 -0.15225240962E+01 -0.99154575997E+00  0.32828251221E+01  0.00000000000E+00 0.  1.
</event>
<event>
 7    1  0.5031164E-009  0.4778727E+02  0.7816164E-02  0.1312668E+00
        -11   -1    0    0    0    0  0.00000000000E+00  0.00000000000E+00  0.45593999997E+02  0.45594000000E+02  0.51100000000E-03 0.  1.
         11   -1    0    0    0    0 -0.00000000000E+00 -0.00000000000E+00 -0.45593999997E+02  0.45594000000E+02  0.51100000000E-03 0. -1.
    9900012    2    1    2    0    0  0.41028956469E+02 -0.13549531007E+01  0.14085874822E+02  0.47787273781E+02  0.20000012478E+02 0.  0.
         12    1    1    2    0    0 -0.41028956469E+02  0.13549531007E+01 -0.14085874822E+02  0.43400726219E+02  0.00000000000E+00 0. -1.
         11    1    3    3    0    0  0.87952950892E+01  0.71910445115E+01  0.65801836582E+01  0.13128867206E+02  0.51100000000E-03 0.  1.
        -11    1    3    3    0    0  0.67920870456E+00  0.38247306245E+00  0.92797764056E+00  0.12119211486E+01  0.51100000000E-03 0. -1.
         12    1    3    3    0    0  0.31554452675E+02 -0.89284706746E+01  0.65777135235E+01  0.33446485427E+02  0.00000000000E+00 0. -1.
</event>
<event>
 7    1  0.5031164E-009  0.4778727E+02  0.7816164E-02  0.1312668E+00
        -11   -1    0    0    0    0  0.00000000000E+00  0.00000000000E+00  0.45593999997E+02  0.45594000000E+02  0.51100000000E-03 0.  1.
         11   -1    0    0    0    0 -0.00000000000E+00 -0.00000000000E+00 -0.45593999997E+02  0.45594000000E+02  0.51100000000E-03 0. -1.
    9900012    2    1    2    0    0  0.15691170236E+02 -0.86989308124E+01  0.39518844439E+02  0.47787270900E+02  0.19999999341E+02 0.  0.
         12    1    1    2    0    0 -0.15691170236E+02  0.86989308124E+01 -0.39518844439E+02  0.43400729100E+02  0.00000000000E+00 0. -1.
         11    1    3    3    0    0  0.75176087704E+00  0.31407078916E+01  0.93802337887E+00  0.33628973515E+01  0.51100000000E-03 0. -1.
        -11    1    3    3    0    0  0.14553003253E+02 -0.13125017543E+02  0.38343499866E+02  0.43061351250E+02  0.51100000000E-03 0.  1.
        -12    1    3    3    0    0  0.38640610532E+00  0.12853788389E+01  0.23732119392E+00  0.13630222988E+01  0.00000000000E+00 0.  1.
</event>
<event>
 7    1  0.5031164E-009  0.4778727E+02  0.7816164E-02  0.1312668E+00
        -11   -1    0    0    0    0  0.00000000000E+00  0.00000000000E+00  0.45593999997E+02  0.45594000000E+02  0.51100000000E-03 0.  1.
         11   -1    0    0    0    0 -0.00000000000E+00 -0.00000000000E+00 -0.45593999997E+02  0.45594000000E+02  0.51100000000E-03 0. -1.
    9900012    2    1    2    0    0  0.77769558859E+01 -0.15991688439E+02  0.39590503798E+02  0.47787272668E+02  0.20000007401E+02 0.  0.
         12    1    1    2    0    0 -0.77769558859E+01  0.15991688439E+02 -0.39590503798E+02  0.43400727332E+02  0.00000000000E+00 0. -1.
         11    1    3    3    0    0  0.55690979069E+01 -0.15355363515E+02  0.31893867224E+02  0.35833236066E+02  0.51100000000E-03 0. -1.
        -11    1    3    3    0    0  0.15359100083E+01  0.12307869579E+01  0.92355121642E+01  0.94429095773E+01  0.51100000000E-03 0.  1.
         12    1    3    3    0    0  0.67194797073E+00 -0.18671118815E+01 -0.15388755898E+01  0.25111270247E+01  0.00000000000E+00 0. -1.
</event>
<event>
 7    1  0.5031164E-009  0.4778725E+02  0.7816164E-02  0.1312668E+00
        -11   -1    0    0    0    0  0.00000000000E+00  0.00000000000E+00  0.45593999997E+02  0.45594000000E+02  0.51100000000E-03 0.  1.
         11   -1    0    0    0    0 -0.00000000000E+00 -0.00000000000E+00 -0.45593999997E+02  0.45594000000E+02  0.51100000000E-03 0. -1.
    9900012    2    1    2    0    0  0.77896534509E+01  0.54245867765E+01  0.42349969525E+02  0.47787253908E+02  0.19999921869E+02 0.  0.
         12    1    1    2    0    0 -0.77896534509E+01 -0.54245867765E+01 -0.42349969525E+02  0.43400746092E+02  0.00000000000E+00 0. -1.
         11    1    3    3    0    0 -0.26407258716E+01  0.19924534364E+01 -0.61420288804E+00  0.33646023947E+01  0.51100000000E-03 0. -1.
        -11    1    3    3    0    0  0.70713155132E+01  0.25047145397E+01  0.33697033185E+02  0.34521980589E+02  0.51100000000E-03 0.  1.
         12    1    3    3    0    0  0.33590638093E+01  0.92741880044E+00  0.92671392271E+01  0.99006709248E+01  0.00000000000E+00 0. -1.
</event>
<event>
 7    1  0.5031164E-009  0.4778727E+02  0.7816164E-02  0.1312668E+00
        -11   -1    0    0    0    0  0.00000000000E+00  0.00000000000E+00  0.45593999997E+02  0.45594000000E+02  0.51100000000E-03 0. -1.
         11   -1    0    0    0    0 -0.00000000000E+00 -0.00000000000E+00 -0.45593999997E+02  0.45594000000E+02  0.51100000000E-03 0.  1.
    9900012    2    1    2    0    0  0.20254954827E+02 -0.30026297397E+01 -0.38266750667E+02  0.47787272045E+02  0.20000004561E+02 0.  0.
         12    1    1    2    0    0 -0.20254954827E+02  0.30026297397E+01  0.38266750667E+02  0.43400727955E+02  0.00000000000E+00 0. -1.
         11    1    3    3    0    0  0.47186403641E+01 -0.55997088502E+01 -0.44303540425E+01  0.85586414398E+01  0.51100000000E-03 0. -1.
        -11    1    3    3    0    0  0.12638341556E+02 -0.11002921481E+01 -0.31548004602E+02  0.34003160364E+02  0.51100000000E-03 0.  1.
        -12    1    3    3    0    0  0.28979729064E+01  0.36973712586E+01 -0.22883920232E+01  0.52254702413E+01  0.00000000000E+00 0.  1.
</event>
<event>
 7    1  0.5031164E-009  0.4778727E+02  0.7816164E-02  0.1312668E+00
        -11   -1    0    0    0    0  0.00000000000E+00  0.00000000000E+00  0.45593999997E+02  0.45594000000E+02  0.51100000000E-03 0.  1.
         11   -1    0    0    0    0 -0.00000000000E+00 -0.00000000000E+00 -0.45593999997E+02  0.45594000000E+02  0.51100000000E-03 0. -1.
    9900012    2    1    2    0    0  0.96880374091E+01  0.36850266536E+02 -0.20780347492E+02  0.47787273572E+02  0.20000011523E+02 0.  0.
         12    1    1    2    0    0 -0.96880374091E+01 -0.36850266536E+02  0.20780347492E+02  0.43400726428E+02  0.00000000000E+00 0. -1.
         11    1    3    3    0    0  0.10980814524E+02  0.17946533747E+02 -0.89095808329E+01  0.22848128852E+02  0.51100000000E-03 0. -1.
        -11    1    3    3    0    0 -0.40008809589E+01  0.16093827730E+02 -0.55070681327E+01  0.17474156321E+02  0.51100000000E-03 0.  1.
         12    1    3    3    0    0  0.27081038444E+01  0.28099050592E+01 -0.63636985261E+01  0.74649883995E+01  0.00000000000E+00 0. -1.
</event>
<event>
 7    1  0.5031164E-009  0.4778727E+02  0.7816164E-02  0.1312668E+00
        -11   -1    0    0    0    0  0.00000000000E+00  0.00000000000E+00  0.45593999997E+02  0.45594000000E+02  0.51100000000E-03 0.  1.
         11   -1    0    0    0    0 -0.00000000000E+00 -0.00000000000E+00 -0.45593999997E+02  0.45594000000E+02  0.51100000000E-03 0. -1.
    9900012    2    1    2    0    0  0.77796459062E+01 -0.43970841486E+01  0.42470766797E+02  0.47787271068E+02  0.20000000109E+02 0.  0.
         12    1    1    2    0    0 -0.77796459062E+01  0.43970841486E+01 -0.42470766797E+02  0.43400728932E+02  0.00000000000E+00 0. -1.
         11    1    3    3    0    0  0.97235619374E+01 -0.48691030043E+01  0.13309094843E+02  0.17186850398E+02  0.51100000000E-03 0. -1.
        -11    1    3    3    0    0 -0.23136456640E+00 -0.31261780685E+01  0.23315481588E+02  0.23525267284E+02  0.51100000000E-03 0.  1.
         12    1    3    3    0    0 -0.17125514647E+01  0.35981969241E+01  0.58461903669E+01  0.70751533857E+01  0.00000000000E+00 0. -1.
</event>
<event>
 7    1  0.5031164E-009  0.4778727E+02  0.7816164E-02  0.1312668E+00
        -11   -1    0    0    0    0  0.00000000000E+00  0.00000000000E+00  0.45593999997E+02  0.45594000000E+02  0.51100000000E-03 0. -1.
         11   -1    0    0    0    0 -0.00000000000E+00 -0.00000000000E+00 -0.45593999997E+02  0.45594000000E+02  0.51100000000E-03 0.  1.
    9900012    2    1    2    0    0  0.32524411563E+02  0.65350040062E+01 -0.27983560252E+02  0.47787271098E+02  0.20000000242E+02 0.  0.
         12    1    1    2    0    0 -0.32524411563E+02 -0.65350040062E+01  0.27983560252E+02  0.43400728902E+02  0.00000000000E+00 0. -1.
         11    1    3    3    0    0 -0.93310075691E+00 -0.27646506848E+00  0.19261628648E+01  0.21580578304E+01  0.51100000000E-03 0. -1.
        -11    1    3    3    0    0  0.57815784100E+01 -0.58370986089E+00 -0.51913322558E+01  0.77921304509E+01  0.51100000000E-03 0.  1.
         12    1    3    3    0    0  0.27675933910E+02  0.73951789355E+01 -0.24718390861E+02  0.37837082816E+02  0.00000000000E+00 0. -1.
</event>
<event>
 7    1  0.5031164E-009  0.4778727E+02  0.7816164E-02  0.1312668E+00
        -11   -1    0    0    0    0  0.00000000000E+00  0.00000000000E+00  0.45593999997E+02  0.45594000000E+02  0.51100000000E-03 0. -1.
         11   -1    0    0    0    0 -0.00000000000E+00 -0.00000000000E+00 -0.45593999997E+02  0.45594000000E+02  0.51100000000E-03 0.  1.
    9900012    2    1    2    0    0  0.41832998262E+02  0.10874937996E+02 -0.39190875932E+01  0.47787271117E+02  0.20000000330E+02 0.  0.
         12    1    1    2    0    0 -0.41832998262E+02 -0.10874937996E+02  0.39190875932E+01  0.43400728883E+02  0.00000000000E+00 0. -1.
         11    1    3    3    0    0  0.22754371678E+02  0.12533329610E+02 -0.12374571111E+01  0.26007250565E+02  0.51100000000E-03 0. -1.
        -11    1    3    3    0    0  0.15531617888E+02 -0.43171299053E+01  0.80461157731E+00  0.16140513154E+02  0.51100000000E-03 0.  1.
        -12    1    3    3    0    0  0.35470086963E+01  0.26587382912E+01 -0.34862420595E+01  0.56395073978E+01  0.00000000000E+00 0.  1.
</event>
<event>
 7    1  0.5031164E-009  0.4778727E+02  0.7816164E-02  0.1312668E+00
        -11   -1    0    0    0    0  0.00000000000E+00  0.00000000000E+00  0.45593999997E+02  0.45594000000E+02  0.51100000000E-03 0.  1.
         11   -1    0    0    0    0 -0.00000000000E+00 -0.00000000000E+00 -0.45593999997E+02  0.45594000000E+02  0.51100000000E-03 0. -1.
    9900012    2    1    2    0    0 -0.34454888354E+02  0.25686173145E+02  0.60584253079E+01  0.47787270288E+02  0.19999996551E+02 0.  0.
         12    1    1    2    0    0  0.34454888354E+02 -0.25686173145E+02 -0.60584253079E+01  0.43400729712E+02  0.00000000000E+00 0. -1.
         11    1    3    3    0    0 -0.62015602666E+01  0.13797329741E+02  0.17322873849E+01  0.15225848993E+02  0.51100000000E-03 0. -1.
        -11    1    3    3    0    0 -0.25716199104E+02  0.13711698106E+02  0.37312541037E+01  0.29381215406E+02  0.51100000000E-03 0.  1.
         12    1    3    3    0    0 -0.25371289829E+01 -0.18228547009E+01  0.59488381930E+00  0.31802058887E+01  0.00000000000E+00 0. -1.
</event>
<event>
 7    1  0.5031164E-009  0.4778727E+02  0.7816164E-02  0.1312668E+00
        -11   -1    0    0    0    0  0.00000000000E+00  0.00000000000E+00  0.45593999997E+02  0.45594000000E+02  0.51100000000E-03 0.  1.
         11   -1    0    0    0    0 -0.00000000000E+00 -0.00000000000E+00 -0.45593999997E+02  0.45594000000E+02  0.51100000000E-03 0. -1.
    9900012    2    1    2    0    0 -0.28008693260E+02 -0.12807555694E+01  0.33128479761E+02  0.47787269543E+02  0.19999993153E+02 0.  0.
         12    1    1    2    0    0  0.28008693260E+02  0.12807555694E+01 -0.33128479761E+02  0.43400730457E+02  0.00000000000E+00 0. -1.
         11    1    3    3    0    0 -0.28764387616E+01  0.26572503478E+00 -0.92139235298E+00  0.30320741865E+01  0.51100000000E-03 0. -1.
        -11    1    3    3    0    0  0.14955664307E+01 -0.56334952820E+00  0.10545842918E+00  0.16016252311E+01  0.51100000000E-03 0.  1.
        -12    1    3    3    0    0 -0.26627820929E+02 -0.98313107596E+00  0.33944413685E+02  0.43153570125E+02  0.00000000000E+00 0.  1.
</event>
<event>
 7    1  0.5748487E-009  0.4778727E+02  0.7816164E-02  0.1312668E+00
        -11   -1    0    0    0    0  0.00000000000E+00  0.00000000000E+00  0.45593999997E+02  0.45594000000E+02  0.51100000000E-03 0. -1.
         11   -1    0    0    0    0 -0.00000000000E+00 -0.00000000000E+00 -0.45593999997E+02  0.45594000000E+02  0.51100000000E-03 0.  1.
    9900012    2    1    2    0    0 -0.79404877082E+01 -0.32746036248E+02 -0.27354510743E+02  0.47787268520E+02  0.19999988491E+02 0.  0.
         12    1    1    2    0    0  0.79404877082E+01  0.32746036248E+02  0.27354510743E+02  0.43400731480E+02  0.00000000000E+00 0. -1.
         11    1    3    3    0    0 -0.29370770298E+01 -0.72145936806E+01  0.90885963334E+00  0.78423726990E+01  0.51100000000E-03 0. -1.
        -11    1    3    3    0    0 -0.80194729949E+01 -0.22290323225E+02 -0.25029537734E+02  0.34462272357E+02  0.51100000000E-03 0.  1.
         12    1    3    3    0    0  0.30160623165E+01 -0.32411193421E+01 -0.32338326429E+01  0.54826234641E+01  0.00000000000E+00 0. -1.
</event>
<event>
 7    1  0.5031164E-009  0.4778727E+02  0.7816164E-02  0.1312668E+00
        -11   -1    0    0    0    0  0.00000000000E+00  0.00000000000E+00  0.45593999997E+02  0.45594000000E+02  0.51100000000E-03 0.  1.
         11   -1    0    0    0    0 -0.00000000000E+00 -0.00000000000E+00 -0.45593999997E+02  0.45594000000E+02  0.51100000000E-03 0. -1.
    9900012    2    1    2    0    0  0.16675165653E+02 -0.35758856120E+02  0.18079447477E+02  0.47787270033E+02  0.19999995390E+02 0.  0.
         12    1    1    2    0    0 -0.16675165653E+02  0.35758856120E+02 -0.18079447477E+02  0.43400729967E+02  0.00000000000E+00 0. -1.
         11    1    3    3    0    0 -0.18996295901E+01  0.43660046464E+00  0.29286486329E+01  0.35179817540E+01  0.51100000000E-03 0. -1.
        -11    1    3    3    0    0  0.11121813207E+02 -0.29278683029E+02  0.10044818210E+02  0.32891250844E+02  0.51100000000E-03 0.  1.
         12    1    3    3    0    0  0.74529820367E+01 -0.69167735552E+01  0.51059806338E+01  0.11378037436E+02  0.00000000000E+00 0. -1.
</event>
<event>
 7    1  0.7913130E-009  0.4778727E+02  0.7816164E-02  0.1312668E+00
        -11   -1    0    0    0    0  0.00000000000E+00  0.00000000000E+00  0.45593999997E+02  0.45594000000E+02  0.51100000000E-03 0. -1.
         11   -1    0    0    0    0 -0.00000000000E+00 -0.00000000000E+00 -0.45593999997E+02  0.45594000000E+02  0.51100000000E-03 0.  1.
    9900012    2    1    2    0    0 -0.38191598098E+02  0.20527427436E+02  0.19104310222E+01  0.47787272021E+02  0.20000004453E+02 0.  0.
         12    1    1    2    0    0  0.38191598098E+02 -0.20527427436E+02 -0.19104310222E+01  0.43400727979E+02  0.00000000000E+00 0. -1.
         11    1    3    3    0    0 -0.10006171597E+01  0.41139235216E+01  0.28808393533E+01  0.51210191449E+01  0.51100000000E-03 0. -1.
        -11    1    3    3    0    0 -0.31229382261E+02  0.17935771407E+02  0.14789387096E+01  0.36043771616E+02  0.51100000000E-03 0.  1.
        -12    1    3    3    0    0 -0.59615986774E+01 -0.15222674927E+01 -0.24493470407E+01  0.66224812597E+01  0.00000000000E+00 0.  1.
</event>
<event>
 7    1  0.5031164E-009  0.4778727E+02  0.7816164E-02  0.1312668E+00
        -11   -1    0    0    0    0  0.00000000000E+00  0.00000000000E+00  0.45593999997E+02  0.45594000000E+02  0.51100000000E-03 0.  1.
         11   -1    0    0    0    0 -0.00000000000E+00 -0.00000000000E+00 -0.45593999997E+02  0.45594000000E+02  0.51100000000E-03 0. -1.
    9900012    2    1    2    0    0  0.31536748844E+02  0.29742230251E+02  0.21110179381E+01  0.47787272072E+02  0.20000004686E+02 0.  0.
         12    1    1    2    0    0 -0.31536748844E+02 -0.29742230251E+02 -0.21110179381E+01  0.43400727928E+02  0.00000000000E+00 0. -1.
         11    1    3    3    0    0  0.15125928730E+02  0.11708047744E+02 -0.50657403170E+01  0.19787213729E+02  0.51100000000E-03 0. -1.
        -11    1    3    3    0    0  0.98086189462E+01  0.87216485126E+01 -0.20976955013E+01  0.13291970700E+02  0.51100000000E-03 0.  1.
         12    1    3    3    0    0  0.66022011671E+01  0.93125339948E+01  0.92744537563E+01  0.14708087644E+02  0.00000000000E+00 0. -1.
</event>
<event>
 7    1  0.5031164E-009  0.4778727E+02  0.7816164E-02  0.1312668E+00
        -11   -1    0    0    0    0  0.00000000000E+00  0.00000000000E+00  0.45593999997E+02  0.45594000000E+02  0.51100000000E-03 0. -1.
         11   -1    0    0    0    0 -0.00000000000E+00 -0.00000000000E+00 -0.45593999997E+02  0.45594000000E+02  0.51100000000E-03 0.  1.
    9900012    2    1    2    0    0  0.43725507124E+00 -0.38758983618E+02 -0.19523665617E+02  0.47787268184E+02  0.19999986956E+02 0.  0.
         12    1    1    2    0    0 -0.43725507124E+00  0.38758983618E+02  0.19523665617E+02  0.43400731816E+02  0.00000000000E+00 0. -1.
         11    1    3    3    0    0 -0.10527674578E+01 -0.71871578148E+01 -0.54195630742E+01  0.90628483906E+01  0.51100000000E-03 0.  1.
        -11    1    3    3    0    0 -0.79416860899E+01 -0.14852613214E+02 -0.58586300186E+01  0.17832387479E+02  0.51100000000E-03 0. -1.
        -12    1    3    3    0    0  0.94317086190E+01 -0.16719212589E+02 -0.82454725246E+01  0.20892032314E+02  0.00000000000E+00 0.  1.
</event>
<event>
 7    1  0.5031164E-009  0.4778727E+02  0.7816164E-02  0.1312668E+00
        -11   -1    0    0    0    0  0.00000000000E+00  0.00000000000E+00  0.45593999997E+02  0.45594000000E+02  0.51100000000E-03 0.  1.
         11   -1    0    0    0    0 -0.00000000000E+00 -0.00000000000E+00 -0.45593999997E+02  0.45594000000E+02  0.51100000000E-03 0. -1.
    9900012    2    1    2    0    0 -0.32286233503E+02 -0.18679176601E+02  0.22188075677E+02  0.47787271729E+02  0.20000003119E+02 0.  0.
         12    1    1    2    0    0  0.32286233503E+02  0.18679176601E+02 -0.22188075677E+02  0.43400728271E+02  0.00000000000E+00 0. -1.
         11    1    3    3    0    0 -0.25848045248E+01  0.30801419367E+01  0.25722518156E+01  0.47733602887E+01  0.51100000000E-03 0. -1.
        -11    1    3    3    0    0 -0.20116786435E+02 -0.10698308523E+02  0.16278464291E+02  0.28002273151E+02  0.51100000000E-03 0.  1.
         12    1    3    3    0    0 -0.95846425430E+01 -0.11061010014E+02  0.33373595706E+01  0.15011638289E+02  0.00000000000E+00 0. -1.
</event>
<event>
 7    1  0.5031164E-009  0.4778727E+02  0.7816164E-02  0.1312668E+00
        -11   -1    0    0    0    0  0.00000000000E+00  0.00000000000E+00  0.45593999997E+02  0.45594000000E+02  0.51100000000E-03 0.  1.
         11   -1    0    0    0    0 -0.00000000000E+00 -0.00000000000E+00 -0.45593999997E+02  0.45594000000E+02  0.51100000000E-03 0. -1.
    9900012    2    1    2    0    0  0.81387346975E+01 -0.26108588244E+02  0.33700534589E+02  0.47787269428E+02  0.19999992632E+02 0.  0.
         12    1    1    2    0    0 -0.81387346975E+01  0.26108588244E+02 -0.33700534589E+02  0.43400730572E+02  0.00000000000E+00 0. -1.
         11    1    3    3    0    0 -0.28921598662E+01 -0.35710556071E+01  0.10790687943E+02  0.11728425870E+02  0.51100000000E-03 0. -1.
        -11    1    3    3    0    0  0.12195302782E+02 -0.13699917871E+02  0.18724900951E+02  0.26211353943E+02  0.51100000000E-03 0.  1.
        -12    1    3    3    0    0 -0.11644082188E+01 -0.88376147664E+01  0.41849456941E+01  0.98474896152E+01  0.00000000000E+00 0.  1.
</event>
<event>
 7    1  0.5031164E-009  0.4778727E+02  0.7816164E-02  0.1312668E+00
        -11   -1    0    0    0    0  0.00000000000E+00  0.00000000000E+00  0.45593999997E+02  0.45594000000E+02  0.51100000000E-03 0.  1.
         11   -1    0    0    0    0 -0.00000000000E+00 -0.00000000000E+00 -0.45593999997E+02  0.45594000000E+02  0.51100000000E-03 0. -1.
    9900012    2    1    2    0    0  0.40446593482E+02 -0.14558665164E+02  0.59784096967E+01  0.47787273760E+02  0.20000012383E+02 0.  0.
         12    1    1    2    0    0 -0.40446593482E+02  0.14558665164E+02 -0.59784096967E+01  0.43400726240E+02  0.00000000000E+00 0. -1.
         11    1    3    3    0    0  0.12457123849E+02 -0.70261014737E+01  0.64618537671E+01  0.15693998562E+02  0.51100000000E-03 0.  1.
        -11    1    3    3    0    0  0.69937560225E+01 -0.11425002410E+00 -0.59289149860E+01  0.91693898130E+01  0.51100000000E-03 0. -1.
         12    1    3    3    0    0  0.20995713610E+02 -0.74183136666E+01  0.54454709155E+01  0.22923885385E+02  0.00000000000E+00 0. -1.
</event>
<event>
 7    1  0.5031164E-009  0.4778726E+02  0.7816164E-02  0.1312668E+00
        -11   -1    0    0    0    0  0.00000000000E+00  0.00000000000E+00  0.45593999997E+02  0.45594000000E+02  0.51100000000E-03 0.  1.
         11   -1    0    0    0    0 -0.00000000000E+00 -0.00000000000E+00 -0.45593999997E+02  0.45594000000E+02  0.51100000000E-03 0. -1.
    9900012    2    1    2    0    0  0.84857230827E+01  0.40862255502E+02 -0.11911871179E+02  0.47787261574E+02  0.19999956818E+02 0.  0.
         12    1    1    2    0    0 -0.84857230827E+01 -0.40862255502E+02  0.11911871179E+02  0.43400738426E+02  0.00000000000E+00 0. -1.
         11    1    3    3    0    0 -0.52110269215E+01  0.50770765404E+01 -0.43352100153E+01  0.84690940431E+01  0.51100000000E-03 0. -1.
        -11    1    3    3    0    0  0.90519619765E+01  0.24255065746E+02 -0.29589095254E+01  0.26057654841E+02  0.51100000000E-03 0.  1.
         12    1    3    3    0    0  0.46447880277E+01  0.11530113216E+02 -0.46177516381E+01  0.13260512689E+02  0.00000000000E+00 0. -1.
</event>
<event>
 7    1  0.5031164E-009  0.4778727E+02  0.7816164E-02  0.1312668E+00
        -11   -1    0    0    0    0  0.00000000000E+00  0.00000000000E+00  0.45593999997E+02  0.45594000000E+02  0.51100000000E-03 0. -1.
         11   -1    0    0    0    0 -0.00000000000E+00 -0.00000000000E+00 -0.45593999997E+02  0.45594000000E+02  0.51100000000E-03 0.  1.
    9900012    2    1    2    0    0  0.33996928857E+02  0.14745105551E+02 -0.22592340796E+02  0.47787272217E+02  0.20000005346E+02 0.  0.
         12    1    1    2    0    0 -0.33996928857E+02 -0.14745105551E+02  0.22592340796E+02  0.43400727783E+02  0.00000000000E+00 0. -1.
         11    1    3    3    0    0  0.16842447028E+02  0.14222131442E+01 -0.57594870963E+01  0.17856718735E+02  0.51100000000E-03 0. -1.
        -11    1    3    3    0    0  0.12563026742E+02  0.15254814836E+02 -0.13196058137E+02  0.23762890549E+02  0.51100000000E-03 0.  1.
        -12    1    3    3    0    0  0.45914550878E+01 -0.19319224289E+01 -0.36367955625E+01  0.61676629332E+01  0.00000000000E+00 0.  1.
</event>
<event>
 7    1  0.5031164E-009  0.4778727E+02  0.7816164E-02  0.1312668E+00
        -11   -1    0    0    0    0  0.00000000000E+00  0.00000000000E+00  0.45593999997E+02  0.45594000000E+02  0.51100000000E-03 0. -1.
         11   -1    0    0    0    0 -0.00000000000E+00 -0.00000000000E+00 -0.45593999997E+02  0.45594000000E+02  0.51100000000E-03 0.  1.
    9900012    2    1    2    0    0 -0.40864004279E+02  0.11756851213E+01  0.14573060350E+02  0.47787272251E+02  0.20000005502E+02 0.  0.
         12    1    1    2    0    0  0.40864004279E+02 -0.11756851213E+01 -0.14573060350E+02  0.43400727749E+02  0.00000000000E+00 0. -1.
         11    1    3    3    0    0 -0.15472866389E+02  0.68020538142E+01 -0.98356341092E+00  0.16930591473E+02  0.51100000000E-03 0. -1.
        -11    1    3    3    0    0 -0.15393531402E+02 -0.24001550838E+01  0.12326130084E+02  0.19865926522E+02  0.51100000000E-03 0.  1.
         12    1    3    3    0    0 -0.99976064878E+01 -0.32262136092E+01  0.32304936764E+01  0.10990754257E+02  0.00000000000E+00 0. -1.
</event>
<event>
 7    1  0.5031164E-009  0.4778727E+02  0.7816164E-02  0.1312668E+00
        -11   -1    0    0    0    0  0.00000000000E+00  0.00000000000E+00  0.45593999997E+02  0.45594000000E+02  0.51100000000E-03 0.  1.
         11   -1    0    0    0    0 -0.00000000000E+00 -0.00000000000E+00 -0.45593999997E+02  0.45594000000E+02  0.51100000000E-03 0. -1.
    9900012    2    1    2    0    0 -0.61053838943E+01  0.32546871302E+01  0.42845707657E+02  0.47787269990E+02  0.19999995192E+02 0.  0.
         12    1    1    2    0    0  0.61053838943E+01 -0.32546871302E+01 -0.42845707657E+02  0.43400730010E+02  0.00000000000E+00 0. -1.
         11    1    3    3    0    0 -0.33525717856E+01 -0.10770107092E+01  0.22743196307E+01  0.41919231492E+01  0.51100000000E-03 0. -1.
        -11    1    3    3    0    0 -0.45331348830E+01 -0.28625356525E+01  0.31151523479E+02  0.31609505494E+02  0.51100000000E-03 0.  1.
        -12    1    3    3    0    0  0.17803227743E+01  0.71942334920E+01  0.94198645469E+01  0.11985841347E+02  0.00000000000E+00 0.  1.
</event>
<event>
 7    1  0.5031164E-009  0.4778727E+02  0.7816164E-02  0.1312668E+00
        -11   -1    0    0    0    0  0.00000000000E+00  0.00000000000E+00  0.45593999997E+02  0.45594000000E+02  0.51100000000E-03 0.  1.
         11   -1    0    0    0    0 -0.00000000000E+00 -0.00000000000E+00 -0.45593999997E+02  0.45594000000E+02  0.51100000000E-03 0. -1.
    9900012    2    1    2    0    0  0.36492229627E+02  0.11167479501E+02  0.20669493003E+02  0.47787270023E+02  0.19999995344E+02 0.  0.
         12    1    1    2    0    0 -0.36492229627E+02 -0.11167479501E+02 -0.20669493003E+02  0.43400729977E+02  0.00000000000E+00 0. -1.
         11    1    3    3    0    0  0.12665678619E+01  0.32202440822E+01  0.25574145684E+00  0.34698083595E+01  0.51100000000E-03 0. -1.
        -11    1    3    3    0    0  0.15750499854E+02  0.91940229804E+01  0.16109027525E+02  0.24333291440E+02  0.51100000000E-03 0.  1.
        -12    1    3    3    0    0  0.19475161910E+02 -0.12467875616E+01  0.43047240208E+01  0.19984170224E+02  0.00000000000E+00 0.  1.
</event>
<event>
 7    1  0.5031164E-009  0.4778728E+02  0.7816164E-02  0.1312668E+00
        -11   -1    0    0    0    0  0.00000000000E+00  0.00000000000E+00  0.45593999997E+02  0.45594000000E+02  0.51100000000E-03 0.  1.
         11   -1    0    0    0    0 -0.00000000000E+00 -0.00000000000E+00 -0.45593999997E+02  0.45594000000E+02  0.51100000000E-03 0. -1.
    9900012    2    1    2    0    0  0.40598298174E+02 -0.12856890618E+02  0.83726377824E+01  0.47787279794E+02  0.20000039892E+02 0.  0.
         12    1    1    2    0    0 -0.40598298174E+02  0.12856890618E+02 -0.83726377824E+01  0.43400720206E+02  0.00000000000E+00 0. -1.
         11    1    3    3    0    0  0.47680002862E+01 -0.30234267045E+01 -0.41006593488E+01  0.69778465964E+01  0.51100000000E-03 0. -1.
        -11    1    3    3    0    0  0.23562932218E+02 -0.10372697307E+02  0.12291970653E+02  0.28528883029E+02  0.51100000000E-03 0.  1.
         12    1    3    3    0    0  0.12267365670E+02  0.53923339345E+00  0.18132647812E+00  0.12280550168E+02  0.00000000000E+00 0. -1.
</event>
<event>
 7    1  0.5031164E-009  0.4778728E+02  0.7816164E-02  0.1312668E+00
        -11   -1    0    0    0    0  0.00000000000E+00  0.00000000000E+00  0.45593999997E+02  0.45594000000E+02  0.51100000000E-03 0. -1.
         11   -1    0    0    0    0 -0.00000000000E+00 -0.00000000000E+00 -0.45593999997E+02  0.45594000000E+02  0.51100000000E-03 0.  1.
    9900012    2    1    2    0    0 -0.27385285998E+02  0.33001960370E+02  0.66737825103E+01  0.47787278226E+02  0.20000032744E+02 0.  0.
         12    1    1    2    0    0  0.27385285998E+02 -0.33001960370E+02 -0.66737825103E+01  0.43400721774E+02  0.00000000000E+00 0. -1.
         11    1    3    3    0    0 -0.11866137262E+02  0.45818420643E+01 -0.27232503835E+01  0.13008250579E+02  0.51100000000E-03 0. -1.
        -11    1    3    3    0    0 -0.15899853715E+02  0.27491349414E+02  0.10342791482E+02  0.33399894860E+02  0.51100000000E-03 0.  1.
         12    1    3    3    0    0  0.38070497853E+00  0.92876889226E+00 -0.94575858852E+00  0.13791327868E+01  0.00000000000E+00 0. -1.
</event>
<event>
 7    1  0.5031164E-009  0.4778728E+02  0.7816164E-02  0.1312668E+00
        -11   -1    0    0    0    0  0.00000000000E+00  0.00000000000E+00  0.45593999997E+02  0.45594000000E+02  0.51100000000E-03 0.  1.
         11   -1    0    0    0    0 -0.00000000000E+00 -0.00000000000E+00 -0.45593999997E+02  0.45594000000E+02  0.51100000000E-03 0. -1.
    9900012    2    1    2    0    0  0.36248948318E+02  0.22769519147E+02  0.71544065304E+01  0.47787276629E+02  0.20000025460E+02 0.  0.
         12    1    1    2    0    0 -0.36248948318E+02 -0.22769519147E+02 -0.71544065304E+01  0.43400723371E+02  0.00000000000E+00 0. -1.
         11    1    3    3    0    0  0.23916605390E+01 -0.86382309559E+00 -0.46110221146E+00  0.25843463360E+01  0.51100000000E-03 0. -1.
        -11    1    3    3    0    0  0.22217357680E+01  0.86531842250E+01 -0.14359300731E+01  0.90485138277E+01  0.51100000000E-03 0.  1.
        -12    1    3    3    0    0  0.31635552011E+02  0.14980158018E+02  0.90514388149E+01  0.36154416465E+02  0.00000000000E+00 0.  1.
</event>
<event>
 7    1  0.5031164E-009  0.4778727E+02  0.7816164E-02  0.1312668E+00
        -11   -1    0    0    0    0  0.00000000000E+00  0.00000000000E+00  0.45593999997E+02  0.45594000000E+02  0.51100000000E-03 0. -1.
         11   -1    0    0    0    0 -0.00000000000E+00 -0.00000000000E+00 -0.45593999997E+02  0.45594000000E+02  0.51100000000E-03 0.  1.
    9900012    2    1    2    0    0 -0.17553748819E+02  0.19545147271E+02 -0.34546727279E+02  0.47787271375E+02  0.20000001508E+02 0.  0.
         12    1    1    2    0    0  0.17553748819E+02 -0.19545147271E+02  0.34546727279E+02  0.43400728625E+02  0.00000000000E+00 0. -1.
         11    1    3    3    0    0 -0.12720782322E+02  0.11757388703E+02 -0.11653739893E+02  0.20877359645E+02  0.51100000000E-03 0. -1.
        -11    1    3    3    0    0  0.17124663810E+01 -0.18298282417E+01 -0.43156900439E+01  0.49905904777E+01  0.51100000000E-03 0.  1.
        -12    1    3    3    0    0 -0.65454328778E+01  0.96175868097E+01 -0.18577297343E+02  0.21919321252E+02  0.00000000000E+00 0.  1.
</event>
<event>
 7    1  0.5031164E-009  0.4778727E+02  0.7816164E-02  0.1312668E+00
        -11   -1    0    0    0    0  0.00000000000E+00  0.00000000000E+00  0.45593999997E+02  0.45594000000E+02  0.51100000000E-03 0.  1.
         11   -1    0    0    0    0 -0.00000000000E+00 -0.00000000000E+00 -0.45593999997E+02  0.45594000000E+02  0.51100000000E-03 0. -1.
    9900012    2    1    2    0    0 -0.16469732870E+02  0.38447054113E+02  0.11584256270E+02  0.47787273461E+02  0.20000011019E+02 0.  0.
         12    1    1    2    0    0  0.16469732870E+02 -0.38447054113E+02 -0.11584256270E+02  0.43400726539E+02  0.00000000000E+00 0. -1.
         11    1    3    3    0    0 -0.48098391759E+00  0.64435550240E+01  0.26377106144E+01  0.69791306352E+01  0.51100000000E-03 0. -1.
        -11    1    3    3    0    0 -0.70759726662E+01  0.25366907334E+02  0.12486691749E+02  0.29145614558E+02  0.51100000000E-03 0.  1.
        -12    1    3    3    0    0 -0.89127762866E+01  0.66365917548E+01 -0.35401460928E+01  0.11662528268E+02  0.00000000000E+00 0.  1.
</event>
<event>
 7    1  0.5031164E-009  0.4778725E+02  0.7816164E-02  0.1312668E+00
        -11   -1    0    0    0    0  0.00000000000E+00  0.00000000000E+00  0.45593999997E+02  0.45594000000E+02  0.51100000000E-03 0.  1.
         11   -1    0    0    0    0 -0.00000000000E+00 -0.00000000000E+00 -0.45593999997E+02  0.45594000000E+02  0.51100000000E-03 0. -1.
    9900012    2    1    2    0    0 -0.38071973352E+02  0.13656646906E+02  0.15736782120E+02  0.47787245731E+02  0.19999884585E+02 0.  0.
         12    1    1    2    0    0  0.38071973352E+02 -0.13656646906E+02 -0.15736782120E+02  0.43400754269E+02  0.00000000000E+00 0. -1.
         11    1    3    3    0    0 -0.65435824104E+01 -0.33213527597E+01  0.59566008982E+01  0.94515051414E+01  0.51100000000E-03 0. -1.
        -11    1    3    3    0    0 -0.17994234461E+02  0.14303231125E+02  0.83909301345E+01  0.24470034802E+02  0.51100000000E-03 0.  1.
        -12    1    3    3    0    0 -0.13534156481E+02  0.26747685406E+01  0.13892510876E+01  0.13865705787E+02  0.00000000000E+00 0.  1.
</event>
<event>
 7    1  0.5031164E-009  0.4778727E+02  0.7816164E-02  0.1312668E+00
        -11   -1    0    0    0    0  0.00000000000E+00  0.00000000000E+00  0.45593999997E+02  0.45594000000E+02  0.51100000000E-03 0.  1.
         11   -1    0    0    0    0 -0.00000000000E+00 -0.00000000000E+00 -0.45593999997E+02  0.45594000000E+02  0.51100000000E-03 0. -1.
    9900012    2    1    2    0    0  0.97955378590E+01  0.31285555826E+02  0.28440895520E+02  0.47787273010E+02  0.20000008962E+02 0.  0.
         12    1    1    2    0    0 -0.97955378590E+01 -0.31285555826E+02 -0.28440895520E+02  0.43400726990E+02  0.00000000000E+00 0. -1.
         11    1    3    3    0    0  0.10042833323E+02  0.67835637071E+01  0.69232875324E+01  0.13957333135E+02  0.51100000000E-03 0.  1.
        -11    1    3    3    0    0  0.18540624282E+01  0.83426723300E+01  0.12683293037E+02  0.15293908972E+02  0.51100000000E-03 0. -1.
         12    1    3    3    0    0 -0.21013578920E+01  0.16159319789E+02  0.88343149503E+01  0.18536030904E+02  0.00000000000E+00 0. -1.
</event>
<event>
 7    1  0.5031164E-009  0.4778727E+02  0.7816164E-02  0.1312668E+00
        -11   -1    0    0    0    0  0.00000000000E+00  0.00000000000E+00  0.45593999997E+02  0.45594000000E+02  0.51100000000E-03 0.  1.
         11   -1    0    0    0    0 -0.00000000000E+00 -0.00000000000E+00 -0.45593999997E+02  0.45594000000E+02  0.51100000000E-03 0. -1.
    9900012    2    1    2    0    0  0.16342771442E+02  0.30143404625E+02  0.26606628914E+02  0.47787265871E+02  0.19999976413E+02 0.  0.
         12    1    1    2    0    0 -0.16342771442E+02 -0.30143404625E+02 -0.26606628914E+02  0.43400734129E+02  0.00000000000E+00 0. -1.
         11    1    3    3    0    0  0.13845501642E+02  0.15591863237E+02  0.18814638272E+02  0.28085489643E+02  0.51100000000E-03 0.  1.
        -11    1    3    3    0    0 -0.33474832516E+01  0.56780115265E+01  0.60256188272E+01  0.89304838350E+01  0.51100000000E-03 0. -1.
         12    1    3    3    0    0  0.58447530510E+01  0.88735298610E+01  0.17663718145E+01  0.10771292393E+02  0.00000000000E+00 0. -1.
</event>
<event>
 7    1  0.5031164E-009  0.4778727E+02  0.7816164E-02  0.1312668E+00
        -11   -1    0    0    0    0  0.00000000000E+00  0.00000000000E+00  0.45593999997E+02  0.45594000000E+02  0.51100000000E-03 0.  1.
         11   -1    0    0    0    0 -0.00000000000E+00 -0.00000000000E+00 -0.45593999997E+02  0.45594000000E+02  0.51100000000E-03 0. -1.
    9900012    2    1    2    0    0  0.10531229557E+02  0.23732316651E+01  0.42036703286E+02  0.47787269042E+02  0.19999990872E+02 0.  0.
         12    1    1    2    0    0 -0.10531229557E+02 -0.23732316651E+01 -0.42036703286E+02  0.43400730958E+02  0.00000000000E+00 0. -1.
         11    1    3    3    0    0  0.44219281587E+01 -0.77931962090E+01  0.11773235369E+02  0.14795148769E+02  0.51100000000E-03 0. -1.
        -11    1    3    3    0    0  0.60249789143E+01  0.10813204686E+02  0.29475519776E+02  0.31969235725E+02  0.51100000000E-03 0.  1.
        -12    1    3    3    0    0  0.84322483724E-01 -0.64677681225E+00  0.78794814115E+00  0.10228845484E+01  0.00000000000E+00 0.  1.
</event>
<event>
 7    1  0.5031164E-009  0.4778727E+02  0.7816164E-02  0.1312668E+00
        -11   -1    0    0    0    0  0.00000000000E+00  0.00000000000E+00  0.45593999997E+02  0.45594000000E+02  0.51100000000E-03 0. -1.
         11   -1    0    0    0    0 -0.00000000000E+00 -0.00000000000E+00 -0.45593999997E+02  0.45594000000E+02  0.51100000000E-03 0.  1.
    9900012    2    1    2    0    0 -0.85394868738E+01 -0.37510864021E+02 -0.20090686361E+02  0.47787269199E+02  0.19999991584E+02 0.  0.
         12    1    1    2    0    0  0.85394868738E+01  0.37510864021E+02  0.20090686361E+02  0.43400730801E+02  0.00000000000E+00 0. -1.
         11    1    3    3    0    0 -0.11107847991E+02 -0.23758683618E+02 -0.21041111478E+02  0.33624213102E+02  0.51100000000E-03 0. -1.
        -11    1    3    3    0    0  0.27181747015E+01 -0.12435050569E+02  0.42101298527E+00  0.12735627529E+02  0.51100000000E-03 0.  1.
        -12    1    3    3    0    0 -0.14981358430E+00 -0.13171298343E+01  0.52941213197E+00  0.14274285677E+01  0.00000000000E+00 0.  1.
</event>
<event>
 7    1  0.5031164E-009  0.4778727E+02  0.7816164E-02  0.1312668E+00
        -11   -1    0    0    0    0  0.00000000000E+00  0.00000000000E+00  0.45593999997E+02  0.45594000000E+02  0.51100000000E-03 0.  1.
         11   -1    0    0    0    0 -0.00000000000E+00 -0.00000000000E+00 -0.45593999997E+02  0.45594000000E+02  0.51100000000E-03 0. -1.
    9900012    2    1    2    0    0  0.18631637293E+02  0.27795796112E+02  0.27638361794E+02  0.47787271523E+02  0.20000002180E+02 0.  0.
         12    1    1    2    0    0 -0.18631637293E+02 -0.27795796112E+02 -0.27638361794E+02  0.43400728477E+02  0.00000000000E+00 0. -1.
         11    1    3    3    0    0  0.18717411530E+02  0.17275723532E+02  0.10959542153E+02  0.27729112542E+02  0.51100000000E-03 0. -1.
        -11    1    3    3    0    0  0.38352649434E+00  0.44391435822E+01  0.10352561390E+02  0.11270697223E+02  0.51100000000E-03 0.  1.
         12    1    3    3    0    0 -0.46930073156E+00  0.60809289984E+01  0.63262582516E+01  0.87874617568E+01  0.00000000000E+00 0. -1.
</event>
<event>
 7    1  0.5031164E-009  0.4778727E+02  0.7816164E-02  0.1312668E+00
        -11   -1    0    0    0    0  0.00000000000E+00  0.00000000000E+00  0.45593999997E+02  0.45594000000E+02  0.51100000000E-03 0. -1.
         11   -1    0    0    0    0 -0.00000000000E+00 -0.00000000000E+00 -0.45593999997E+02  0.45594000000E+02  0.51100000000E-03 0.  1.
    9900012    2    1    2    0    0  0.10483642388E+02 -0.13362210106E+02 -0.39939558277E+02  0.47787265766E+02  0.19999975934E+02 0.  0.
         12    1    1    2    0    0 -0.10483642388E+02  0.13362210106E+02  0.39939558277E+02  0.43400734234E+02  0.00000000000E+00 0. -1.
         11    1    3    3    0    0 -0.27952073664E+01 -0.20065234937E+01 -0.57350802232E+00  0.34882993658E+01  0.51100000000E-03 0. -1.
        -11    1    3    3    0    0  0.76473457727E+01 -0.26018476271E+01 -0.26751276199E+02  0.27944271094E+02  0.51100000000E-03 0.  1.
        -12    1    3    3    0    0  0.56315039821E+01 -0.87538389852E+01 -0.12614774056E+02  0.16354695307E+02  0.00000000000E+00 0.  1.
</event>
<event>
 7    1  0.5031164E-009  0.4778728E+02  0.7816164E-02  0.1312668E+00
        -11   -1    0    0    0    0  0.00000000000E+00  0.00000000000E+00  0.45593999997E+02  0.45594000000E+02  0.51100000000E-03 0. -1.
         11   -1    0    0    0    0 -0.00000000000E+00 -0.00000000000E+00 -0.45593999997E+02  0.45594000000E+02  0.51100000000E-03 0.  1.
    9900012    2    1    2    0    0 -0.14178218733E+02 -0.65438306616E+01 -0.40494187629E+02  0.47787276067E+02  0.20000022899E+02 0.  0.
         12    1    1    2    0    0  0.14178218733E+02  0.65438306616E+01  0.40494187629E+02  0.43400723933E+02  0.00000000000E+00 0. -1.
         11    1    3    3    0    0 -0.75488450750E+01 -0.15351156698E+01 -0.40869198854E+01  0.87203530030E+01  0.51100000000E-03 0. -1.
        -11    1    3    3    0    0 -0.86478819267E+01 -0.50711407956E+00 -0.28101944686E+02  0.29406841413E+02  0.51100000000E-03 0.  1.
         12    1    3    3    0    0  0.20185082686E+01 -0.45016009122E+01 -0.83053230581E+01  0.96600816509E+01  0.00000000000E+00 0. -1.
</event>
<event>
 7    1  0.5031164E-009  0.4778727E+02  0.7816164E-02  0.1312668E+00
        -11   -1    0    0    0    0  0.00000000000E+00  0.00000000000E+00  0.45593999997E+02  0.45594000000E+02  0.51100000000E-03 0.  1.
         11   -1    0    0    0    0 -0.00000000000E+00 -0.00000000000E+00 -0.45593999997E+02  0.45594000000E+02  0.51100000000E-03 0. -1.
    9900012    2    1    2    0    0 -0.30040014213E+01  0.95224747896E+01  0.42236502190E+02  0.47787266505E+02  0.19999979302E+02 0.  0.
         12    1    1    2    0    0  0.30040014213E+01 -0.95224747896E+01 -0.42236502190E+02  0.43400733495E+02  0.00000000000E+00 0. -1.
         11    1    3    3    0    0  0.39460318045E+00 -0.11137682227E+01  0.93663116259E+00  0.15078028783E+01  0.51100000000E-03 0. -1.
        -11    1    3    3    0    0  0.48292389024E+01  0.56234633123E+01  0.55661459650E+01  0.92696747066E+01  0.51100000000E-03 0.  1.
        -12    1    3    3    0    0 -0.82278435041E+01  0.50127797000E+01  0.35733725063E+02  0.37009788920E+02  0.00000000000E+00 0.  1.
</event>
<event>
 7    1  0.5031164E-009  0.4778727E+02  0.7816164E-02  0.1312668E+00
        -11   -1    0    0    0    0  0.00000000000E+00  0.00000000000E+00  0.45593999997E+02  0.45594000000E+02  0.51100000000E-03 0. -1.
         11   -1    0    0    0    0 -0.00000000000E+00 -0.00000000000E+00 -0.45593999997E+02  0.45594000000E+02  0.51100000000E-03 0.  1.
    9900012    2    1    2    0    0  0.11546229437E+02  0.33494406779E+02 -0.25068554651E+02  0.47787272679E+02  0.20000007454E+02 0.  0.
         12    1    1    2    0    0 -0.11546229437E+02 -0.33494406779E+02  0.25068554651E+02  0.43400727321E+02  0.00000000000E+00 0. -1.
         11    1    3    3    0    0  0.11508950322E+02  0.11966561556E+02 -0.67685846998E+01  0.17929536304E+02  0.51100000000E-03 0. -1.
        -11    1    3    3    0    0 -0.15290296344E+01  0.21327773135E+02 -0.14761558562E+02  0.25982983854E+02  0.51100000000E-03 0.  1.
         12    1    3    3    0    0  0.15663087493E+01  0.20007208756E+00 -0.35384113892E+01  0.38747525208E+01  0.00000000000E+00 0. -1.
</event>
<event>
 7    1  0.5031164E-009  0.4778726E+02  0.7816164E-02  0.1312668E+00
        -11   -1    0    0    0    0  0.00000000000E+00  0.00000000000E+00  0.45593999997E+02  0.45594000000E+02  0.51100000000E-03 0. -1.
         11   -1    0    0    0    0 -0.00000000000E+00 -0.00000000000E+00 -0.45593999997E+02  0.45594000000E+02  0.51100000000E-03 0.  1.
    9900012    2    1    2    0    0 -0.29781662383E+02  0.25372485116E+02 -0.18786010457E+02  0.47787255719E+02  0.19999930124E+02 0.  0.
         12    1    1    2    0    0  0.29781662383E+02 -0.25372485116E+02  0.18786010457E+02  0.43400744281E+02  0.00000000000E+00 0. -1.
         11    1    3    3    0    0  0.17738606975E+01  0.68107768370E+01 -0.26144366602E+01  0.75078986546E+01  0.51100000000E-03 0. -1.
        -11    1    3    3    0    0 -0.23230267756E+02  0.15401611879E+02 -0.13584383771E+02  0.31006297283E+02  0.51100000000E-03 0.  1.
         12    1    3    3    0    0 -0.83252553244E+01  0.31600964004E+01 -0.25871900261E+01  0.92730597813E+01  0.00000000000E+00 0. -1.
</event>
<event>
 7    1  0.5031164E-009  0.4778727E+02  0.7816164E-02  0.1312668E+00
        -11   -1    0    0    0    0  0.00000000000E+00  0.00000000000E+00  0.45593999997E+02  0.45594000000E+02  0.51100000000E-03 0.  1.
         11   -1    0    0    0    0 -0.00000000000E+00 -0.00000000000E+00 -0.45593999997E+02  0.45594000000E+02  0.51100000000E-03 0. -1.
    9900012    2    1    2    0    0 -0.19158320917E+02 -0.19918766066E+02  0.33463782977E+02  0.47787271054E+02  0.20000000042E+02 0.  0.
         12    1    1    2    0    0  0.19158320917E+02  0.19918766066E+02 -0.33463782977E+02  0.43400728946E+02  0.00000000000E+00 0. -1.
         11    1    3    3    0    0 -0.32250405766E+01  0.91840789055E+00  0.40279145694E+01  0.52410357577E+01  0.51100000000E-03 0. -1.
        -11    1    3    3    0    0 -0.86070794701E+01 -0.96584367594E+01  0.35528330223E+01  0.13416029233E+02  0.51100000000E-03 0.  1.
        -12    1    3    3    0    0 -0.73262008705E+01 -0.11178737197E+02  0.25883035385E+02  0.29130206063E+02  0.00000000000E+00 0.  1.
</event>
<event>
 7    1  0.5031164E-009  0.4778727E+02  0.7816164E-02  0.1312668E+00
        -11   -1    0    0    0    0  0.00000000000E+00  0.00000000000E+00  0.45593999997E+02  0.45594000000E+02  0.51100000000E-03 0.  1.
         11   -1    0    0    0    0 -0.00000000000E+00 -0.00000000000E+00 -0.45593999997E+02  0.45594000000E+02  0.51100000000E-03 0. -1.
    9900012    2    1    2    0    0 -0.26248485749E+02 -0.19191583352E+02  0.28745837731E+02  0.47787273480E+02  0.20000011103E+02 0.  0.
         12    1    1    2    0    0  0.26248485749E+02  0.19191583352E+02 -0.28745837731E+02  0.43400726520E+02  0.00000000000E+00 0. -1.
         11    1    3    3    0    0  0.26319646475E+01 -0.28230304877E+01  0.58827431399E+01  0.70358657002E+01  0.51100000000E-03 0. -1.
        -11    1    3    3    0    0 -0.28821823096E+02 -0.16423803453E+02  0.23150940601E+02  0.40452501250E+02  0.51100000000E-03 0.  1.
        -12    1    3    3    0    0 -0.58627300945E-01  0.55250589239E-01 -0.28784600969E+00  0.29890652941E+00  0.00000000000E+00 0.  1.
</event>
<event>
 7    1  0.5031164E-009  0.4778727E+02  0.7816164E-02  0.1312668E+00
        -11   -1    0    0    0    0  0.00000000000E+00  0.00000000000E+00  0.45593999997E+02  0.45594000000E+02  0.51100000000E-03 0.  1.
         11   -1    0    0    0    0 -0.00000000000E+00 -0.00000000000E+00 -0.45593999997E+02  0.45594000000E+02  0.51100000000E-03 0. -1.
    9900012    2    1    2    0    0 -0.42233952879E+01  0.35422277763E+02  0.24719393225E+02  0.47787271537E+02  0.20000002246E+02 0.  0.
         12    1    1    2    0    0  0.42233952879E+01 -0.35422277763E+02 -0.24719393225E+02  0.43400728463E+02  0.00000000000E+00 0. -1.
         11    1    3    3    0    0  0.64436421158E+00  0.13014307823E+01 -0.44941157544E+00  0.15201639200E+01  0.51100000000E-03 0. -1.
        -11    1    3    3    0    0 -0.50811607940E+01  0.17490412948E+01  0.79620123370E+01  0.96057785307E+01  0.51100000000E-03 0.  1.
        -12    1    3    3    0    0  0.21340129443E+00  0.32371805686E+02  0.17206792463E+02  0.36661329086E+02  0.00000000000E+00 0.  1.
</event>
<event>
 7    1  0.5031164E-009  0.4778727E+02  0.7816164E-02  0.1312668E+00
        -11   -1    0    0    0    0  0.00000000000E+00  0.00000000000E+00  0.45593999997E+02  0.45594000000E+02  0.51100000000E-03 0.  1.
         11   -1    0    0    0    0 -0.00000000000E+00 -0.00000000000E+00 -0.45593999997E+02  0.45594000000E+02  0.51100000000E-03 0. -1.
    9900012    2    1    2    0    0 -0.41259832783E+02  0.63768099763E+01 -0.11856889249E+02  0.47787270404E+02  0.19999997081E+02 0.  0.
         12    1    1    2    0    0  0.41259832783E+02 -0.63768099763E+01  0.11856889249E+02  0.43400729596E+02  0.00000000000E+00 0. -1.
         11    1    3    3    0    0 -0.49816513314E+01  0.11012232026E+01  0.45406361092E+01  0.68298549814E+01  0.51100000000E-03 0. -1.
        -11    1    3    3    0    0 -0.17938709608E+02  0.19788760422E+01 -0.12408774084E+02  0.21901847577E+02  0.51100000000E-03 0.  1.
         12    1    3    3    0    0 -0.18339471844E+02  0.32967107315E+01 -0.39887512744E+01  0.19055567845E+02  0.00000000000E+00 0. -1.
</event>
<event>
 7    1  0.5031164E-009  0.4778726E+02  0.7816164E-02  0.1312668E+00
        -11   -1    0    0    0    0  0.00000000000E+00  0.00000000000E+00  0.45593999997E+02  0.45594000000E+02  0.51100000000E-03 0. -1.
         11   -1    0    0    0    0 -0.00000000000E+00 -0.00000000000E+00 -0.45593999997E+02  0.45594000000E+02  0.51100000000E-03 0.  1.
    9900012    2    1    2    0    0 -0.24142006194E+00  0.42809981098E+02 -0.71324008802E+01  0.47787263744E+02  0.19999966714E+02 0.  0.
         12    1    1    2    0    0  0.24142006194E+00 -0.42809981098E+02  0.71324008802E+01  0.43400736256E+02  0.00000000000E+00 0. -1.
         11    1    3    3    0    0 -0.62475556338E+01  0.77488908280E+01  0.34516722383E+01  0.10535240954E+02  0.51100000000E-03 0. -1.
        -11    1    3    3    0    0  0.40762750205E+01  0.23279312630E+02 -0.54361783057E+01  0.24250658741E+02  0.51100000000E-03 0.  1.
        -12    1    3    3    0    0  0.19298605514E+01  0.11781777640E+02 -0.51478948129E+01  0.13001364048E+02  0.00000000000E+00 0.  1.
</event>
<event>
 7    1  0.5031164E-009  0.4778727E+02  0.7816164E-02  0.1312668E+00
        -11   -1    0    0    0    0  0.00000000000E+00  0.00000000000E+00  0.45593999997E+02  0.45594000000E+02  0.51100000000E-03 0.  1.
         11   -1    0    0    0    0 -0.00000000000E+00 -0.00000000000E+00 -0.45593999997E+02  0.45594000000E+02  0.51100000000E-03 0. -1.
    9900012    2    1    2    0    0 -0.18927996759E+01 -0.28807083633E+02  0.32406671275E+02  0.47787273034E+02  0.20000009072E+02 0.  0.
         12    1    1    2    0    0  0.18927996759E+01  0.28807083633E+02 -0.32406671275E+02  0.43400726966E+02  0.00000000000E+00 0. -1.
         11    1    3    3    0    0 -0.46983687919E+01 -0.63530183987E+01  0.10545036173E+02  0.13176998909E+02  0.51100000000E-03 0. -1.
        -11    1    3    3    0    0  0.29069138324E+01 -0.59508394308E+01 -0.69678600333E+00  0.66594405888E+01  0.51100000000E-03 0.  1.
        -12    1    3    3    0    0 -0.10134471633E+00 -0.16503225803E+02  0.22558421105E+02  0.27950833537E+02  0.00000000000E+00 0.  1.
</event>
<event>
 7    1  0.5031164E-009  0.4778727E+02  0.7816164E-02  0.1312668E+00
        -11   -1    0    0    0    0  0.00000000000E+00  0.00000000000E+00  0.45593999997E+02  0.45594000000E+02  0.51100000000E-03 0.  1.
         11   -1    0    0    0    0 -0.00000000000E+00 -0.00000000000E+00 -0.45593999997E+02  0.45594000000E+02  0.51100000000E-03 0. -1.
    9900012    2    1    2    0    0 -0.16064641115E+02  0.84688492495E+01  0.39418640906E+02  0.47787270137E+02  0.19999995863E+02 0.  0.
         12    1    1    2    0    0  0.16064641115E+02 -0.84688492495E+01 -0.39418640906E+02  0.43400729863E+02  0.00000000000E+00 0. -1.
         11    1    3    3    0    0 -0.77707408018E+01  0.99871205803E+01  0.88498277755E+01  0.15441711110E+02  0.51100000000E-03 0. -1.
        -11    1    3    3    0    0 -0.69547735620E+01 -0.24223824033E+01  0.15179879280E+02  0.16872034466E+02  0.51100000000E-03 0.  1.
        -12    1    3    3    0    0 -0.13391267511E+01  0.90411107245E+00  0.15388933850E+02  0.15473524561E+02  0.00000000000E+00 0.  1.
</event>
<event>
 7    1  0.5031164E-009  0.4778727E+02  0.7816164E-02  0.1312668E+00
        -11   -1    0    0    0    0  0.00000000000E+00  0.00000000000E+00  0.45593999997E+02  0.45594000000E+02  0.51100000000E-03 0.  1.
         11   -1    0    0    0    0 -0.00000000000E+00 -0.00000000000E+00 -0.45593999997E+02  0.45594000000E+02  0.51100000000E-03 0. -1.
    9900012    2    1    2    0    0 -0.82587361378E+01 -0.77227943406E+01  0.41901972392E+02  0.47787267686E+02  0.19999984690E+02 0.  0.
         12    1    1    2    0    0  0.82587361378E+01  0.77227943406E+01 -0.41901972392E+02  0.43400732314E+02  0.00000000000E+00 0. -1.
         11    1    3    3    0    0 -0.50014378048E+01  0.56442558384E+01  0.91997612432E+01  0.11895697175E+02  0.51100000000E-03 0. -1.
        -11    1    3    3    0    0 -0.18258539889E+01 -0.95852260936E+01  0.28198094296E+02  0.29838612974E+02  0.51100000000E-03 0.  1.
        -12    1    3    3    0    0 -0.14314443441E+01 -0.37818240855E+01  0.45041168529E+01  0.60529575373E+01  0.00000000000E+00 0.  1.
</event>
<event>
 7    1  0.5031164E-009  0.4778727E+02  0.7816164E-02  0.1312668E+00
        -11   -1    0    0    0    0  0.00000000000E+00  0.00000000000E+00  0.45593999997E+02  0.45594000000E+02  0.51100000000E-03 0. -1.
         11   -1    0    0    0    0 -0.00000000000E+00 -0.00000000000E+00 -0.45593999997E+02  0.45594000000E+02  0.51100000000E-03 0.  1.
    9900012    2    1    2    0    0  0.18831196577E+01 -0.52799190424E+01 -0.43037188964E+02  0.47787270528E+02  0.19999997645E+02 0.  0.
         12    1    1    2    0    0 -0.18831196577E+01  0.52799190424E+01  0.43037188964E+02  0.43400729472E+02  0.00000000000E+00 0. -1.
         11    1    3    3    0    0  0.47030366068E+01  0.67147279212E+01 -0.15509019853E+02  0.17542400675E+02  0.51100000000E-03 0. -1.
        -11    1    3    3    0    0 -0.27468133712E+01 -0.11410820775E+02 -0.24577434139E+02  0.27236043831E+02  0.51100000000E-03 0.  1.
         12    1    3    3    0    0 -0.73103577810E-01 -0.58382618858E+00 -0.29507349728E+01  0.30088260221E+01  0.00000000000E+00 0. -1.
</event>
<event>
 7    1  0.5031164E-009  0.4778733E+02  0.7816164E-02  0.1312668E+00
        -11   -1    0    0    0    0  0.00000000000E+00  0.00000000000E+00  0.45593999997E+02  0.45594000000E+02  0.51100000000E-03 0.  1.
         11   -1    0    0    0    0 -0.00000000000E+00 -0.00000000000E+00 -0.45593999997E+02  0.45594000000E+02  0.51100000000E-03 0. -1.
    9900012    2    1    2    0    0  0.77328562308E+01 -0.28922780217E+02  0.31421235306E+02  0.47787328241E+02  0.20000260782E+02 0.  0.
         12    1    1    2    0    0 -0.77328562308E+01  0.28922780217E+02 -0.31421235306E+02  0.43400671759E+02  0.00000000000E+00 0. -1.
         11    1    3    3    0    0 -0.40517063213E+01 -0.59089919816E+01  0.10509835336E+02  0.12719636371E+02  0.51100000000E-03 0. -1.
        -11    1    3    3    0    0  0.11881978347E+02 -0.11187650579E+02  0.11833222023E+02  0.20158622934E+02  0.51100000000E-03 0.  1.
        -12    1    3    3    0    0 -0.97415794845E-01 -0.11826137657E+02  0.90781779466E+01  0.14909068936E+02  0.00000000000E+00 0.  1.
</event>
<event>
 7    1  0.5031164E-009  0.4778730E+02  0.7816164E-02  0.1312668E+00
        -11   -1    0    0    0    0  0.00000000000E+00  0.00000000000E+00  0.45593999997E+02  0.45594000000E+02  0.51100000000E-03 0.  1.
         11   -1    0    0    0    0 -0.00000000000E+00 -0.00000000000E+00 -0.45593999997E+02  0.45594000000E+02  0.51100000000E-03 0. -1.
    9900012    2    1    2    0    0  0.15333353232E+02  0.50355788341E+00  0.40598709049E+02  0.47787303366E+02  0.20000147366E+02 0.  0.
         12    1    1    2    0    0 -0.15333353232E+02 -0.50355788341E+00 -0.40598709049E+02  0.43400696634E+02  0.00000000000E+00 0. -1.
         11    1    3    3    0    0 -0.53866607883E-01  0.47087636939E+01  0.19069080367E+01  0.50805172628E+01  0.51100000000E-03 0. -1.
        -11    1    3    3    0    0  0.12673466292E+02  0.43178940540E+00  0.26140423346E+02  0.29053828025E+02  0.51100000000E-03 0.  1.
        -12    1    3    3    0    0  0.27137535476E+01 -0.46369952158E+01  0.12551377666E+02  0.13652958078E+02  0.00000000000E+00 0.  1.
</event>
<event>
 7    1  0.5031164E-009  0.4778727E+02  0.7816164E-02  0.1312668E+00
        -11   -1    0    0    0    0  0.00000000000E+00  0.00000000000E+00  0.45593999997E+02  0.45594000000E+02  0.51100000000E-03 0.  1.
         11   -1    0    0    0    0 -0.00000000000E+00 -0.00000000000E+00 -0.45593999997E+02  0.45594000000E+02  0.51100000000E-03 0. -1.
    9900012    2    1    2    0    0 -0.37158060298E+02  0.22232515300E+02  0.29354907207E+01  0.47787270888E+02  0.19999999287E+02 0.  0.
         12    1    1    2    0    0  0.37158060298E+02 -0.22232515300E+02 -0.29354907207E+01  0.43400729112E+02  0.00000000000E+00 0. -1.
         11    1    3    3    0    0 -0.13724188679E+02  0.23972361474E+01 -0.66067132951E+01  0.15419103634E+02  0.51100000000E-03 0. -1.
        -11    1    3    3    0    0 -0.15247769997E+02  0.10519555268E+02  0.59642996835E+01  0.19460945606E+02  0.51100000000E-03 0.  1.
         12    1    3    3    0    0 -0.81861016220E+01  0.93157238846E+01  0.35779043323E+01  0.12907221648E+02  0.00000000000E+00 0. -1.
</event>
<event>
 7    1  0.5031164E-009  0.4778727E+02  0.7816164E-02  0.1312668E+00
        -11   -1    0    0    0    0  0.00000000000E+00  0.00000000000E+00  0.45593999997E+02  0.45594000000E+02  0.51100000000E-03 0.  1.
         11   -1    0    0    0    0 -0.00000000000E+00 -0.00000000000E+00 -0.45593999997E+02  0.45594000000E+02  0.51100000000E-03 0. -1.
    9900012    2    1    2    0    0  0.13489631961E+01 -0.23818222906E+02  0.36255973531E+02  0.47787273499E+02  0.20000011192E+02 0.  0.
         12    1    1    2    0    0 -0.13489631961E+01  0.23818222906E+02 -0.36255973531E+02  0.43400726501E+02  0.00000000000E+00 0. -1.
         11    1    3    3    0    0  0.81009173753E+01 -0.78444230804E+01  0.12077002899E+02  0.16523130305E+02  0.51100000000E-03 0. -1.
        -11    1    3    3    0    0 -0.55326495482E+01 -0.29904157488E+01  0.48247467425E+01  0.79265994451E+01  0.51100000000E-03 0.  1.
        -12    1    3    3    0    0 -0.12193046310E+01 -0.12983384077E+02  0.19354223890E+02  0.23337543749E+02  0.00000000000E+00 0.  1.
</event>
<event>
 7    1  0.5031164E-009  0.4778727E+02  0.7816164E-02  0.1312668E+00
        -11   -1    0    0    0    0  0.00000000000E+00  0.00000000000E+00  0.45593999997E+02  0.45594000000E+02  0.51100000000E-03 0.  1.
         11   -1    0    0    0    0 -0.00000000000E+00 -0.00000000000E+00 -0.45593999997E+02  0.45594000000E+02  0.51100000000E-03 0. -1.
    9900012    2    1    2    0    0 -0.23457858098E+02 -0.92371565373E+01  0.35327425718E+02  0.47787272180E+02  0.20000005177E+02 0.  0.
         12    1    1    2    0    0  0.23457858098E+02  0.92371565373E+01 -0.35327425718E+02  0.43400727820E+02  0.00000000000E+00 0. -1.
         11    1    3    3    0    0 -0.23212640010E+01 -0.72816374293E+01  0.15398080431E+02  0.17190444772E+02  0.51100000000E-03 0. -1.
        -11    1    3    3    0    0 -0.69191045453E+01 -0.89824302077E+00  0.12980368211E+02  0.14736716303E+02  0.51100000000E-03 0.  1.
         12    1    3    3    0    0 -0.14217489552E+02 -0.10572760873E+01  0.69489770753E+01  0.15860111105E+02  0.00000000000E+00 0. -1.
</event>
<event>
 7    1  0.5031164E-009  0.4778727E+02  0.7816164E-02  0.1312668E+00
        -11   -1    0    0    0    0  0.00000000000E+00  0.00000000000E+00  0.45593999997E+02  0.45594000000E+02  0.51100000000E-03 0.  1.
         11   -1    0    0    0    0 -0.00000000000E+00 -0.00000000000E+00 -0.45593999997E+02  0.45594000000E+02  0.51100000000E-03 0. -1.
    9900012    2    1    2    0    0 -0.17206024472E+02  0.38073644476E+02  0.11746228103E+02  0.47787267788E+02  0.19999985154E+02 0.  0.
         12    1    1    2    0    0  0.17206024472E+02 -0.38073644476E+02 -0.11746228103E+02  0.43400732212E+02  0.00000000000E+00 0. -1.
         11    1    3    3    0    0  0.11850722966E+01 -0.38169971101E+00  0.24060890385E+01  0.27091245338E+01  0.51100000000E-03 0. -1.
        -11    1    3    3    0    0 -0.19911495762E+02  0.34831406555E+02  0.78917477866E+01  0.40889781479E+02  0.51100000000E-03 0.  1.
        -12    1    3    3    0    0  0.15203989929E+01  0.36239376328E+01  0.14483912782E+01  0.41883617751E+01  0.00000000000E+00 0.  1.
</event>
<event>
 7    1  0.5031164E-009  0.4778727E+02  0.7816164E-02  0.1312668E+00
        -11   -1    0    0    0    0  0.00000000000E+00  0.00000000000E+00  0.45593999997E+02  0.45594000000E+02  0.51100000000E-03 0.  1.
         11   -1    0    0    0    0 -0.00000000000E+00 -0.00000000000E+00 -0.45593999997E+02  0.45594000000E+02  0.51100000000E-03 0. -1.
    9900012    2    1    2    0    0 -0.24505281602E+02 -0.32581329724E+02  0.14885269468E+02  0.47787272816E+02  0.20000008078E+02 0.  0.
         12    1    1    2    0    0  0.24505281602E+02  0.32581329724E+02 -0.14885269468E+02  0.43400727184E+02  0.00000000000E+00 0. -1.
         11    1    3    3    0    0 -0.50132087760E+01 -0.19924005034E+02  0.27572278593E+01  0.20729219584E+02  0.51100000000E-03 0.  1.
        -11    1    3    3    0    0 -0.23365955127E+01 -0.47552940573E+01  0.25309024846E+01  0.58717942581E+01  0.51100000000E-03 0. -1.
         12    1    3    3    0    0 -0.17155477313E+02 -0.79020306320E+01  0.95971391240E+01  0.21186258974E+02  0.00000000000E+00 0. -1.
</event>
<event>
 7    1  0.5031164E-009  0.4778727E+02  0.7816164E-02  0.1312668E+00
        -11   -1    0    0    0    0  0.00000000000E+00  0.00000000000E+00  0.45593999997E+02  0.45594000000E+02  0.51100000000E-03 0.  1.
         11   -1    0    0    0    0 -0.00000000000E+00 -0.00000000000E+00 -0.45593999997E+02  0.45594000000E+02  0.51100000000E-03 0. -1.
    9900012    2    1    2    0    0  0.26723794443E+02 -0.16426334850E+02  0.29993958327E+02  0.47787271870E+02  0.20000003765E+02 0.  0.
         12    1    1    2    0    0 -0.26723794443E+02  0.16426334850E+02 -0.29993958327E+02  0.43400728130E+02  0.00000000000E+00 0. -1.
         11    1    3    3    0    0  0.10355923477E+02 -0.16448904246E+02  0.18428090643E+02  0.26784438149E+02  0.51100000000E-03 0. -1.
        -11    1    3    3    0    0  0.13489053475E+02 -0.12060136247E+01  0.11660916433E+02  0.17871373893E+02  0.51100000000E-03 0.  1.
         12    1    3    3    0    0  0.28788174912E+01  0.12285830208E+01 -0.95048748716E-01  0.31314598274E+01  0.00000000000E+00 0. -1.
</event>
<event>
 7    1  0.5031164E-009  0.4778727E+02  0.7816164E-02  0.1312668E+00
        -11   -1    0    0    0    0  0.00000000000E+00  0.00000000000E+00  0.45593999997E+02  0.45594000000E+02  0.51100000000E-03 0.  1.
         11   -1    0    0    0    0 -0.00000000000E+00 -0.00000000000E+00 -0.45593999997E+02  0.45594000000E+02  0.51100000000E-03 0. -1.
    9900012    2    1    2    0    0  0.21900892606E+02  0.18659897946E+02  0.32492807072E+02  0.47787269595E+02  0.19999993391E+02 0.  0.
         12    1    1    2    0    0 -0.21900892606E+02 -0.18659897946E+02 -0.32492807072E+02  0.43400730405E+02  0.00000000000E+00 0. -1.
         11    1    3    3    0    0  0.60686849842E+01 -0.14428504429E-01  0.11299610161E+02  0.12826158258E+02  0.51100000000E-03 0. -1.
        -11    1    3    3    0    0  0.15189380439E+02  0.19603238459E+02  0.22320804616E+02  0.33364989962E+02  0.51100000000E-03 0.  1.
        -12    1    3    3    0    0  0.64282718326E+00 -0.92891200816E+00 -0.11276077052E+01  0.15961213749E+01  0.00000000000E+00 0.  1.
</event>
<event>
 7    1  0.5405354E-009  0.4778727E+02  0.7816164E-02  0.1312668E+00
        -11   -1    0    0    0    0  0.00000000000E+00  0.00000000000E+00  0.45593999997E+02  0.45594000000E+02  0.51100000000E-03 0.  1.
         11   -1    0    0    0    0 -0.00000000000E+00 -0.00000000000E+00 -0.45593999997E+02  0.45594000000E+02  0.51100000000E-03 0. -1.
    9900012    2    1    2    0    0 -0.32017773169E+02 -0.29299861717E+02 -0.61023278621E-01  0.47787269371E+02  0.19999992370E+02 0.  0.
         12    1    1    2    0    0  0.32017773169E+02  0.29299861717E+02  0.61023278621E-01  0.43400730629E+02  0.00000000000E+00 0. -1.
         11    1    3    3    0    0  0.30694274106E+00 -0.24459094108E+01  0.29466479849E+01  0.38417992270E+01  0.51100000000E-03 0. -1.
        -11    1    3    3    0    0 -0.19758414397E+02 -0.83370707919E+01 -0.21157867068E+01  0.21549437174E+02  0.51100000000E-03 0.  1.
        -12    1    3    3    0    0 -0.12566301512E+02 -0.18516881514E+02 -0.89188455672E+00  0.22396032969E+02  0.00000000000E+00 0.  1.
</event>
<event>
 7    1  0.5031164E-009  0.4778727E+02  0.7816164E-02  0.1312668E+00
        -11   -1    0    0    0    0  0.00000000000E+00  0.00000000000E+00  0.45593999997E+02  0.45594000000E+02  0.51100000000E-03 0.  1.
         11   -1    0    0    0    0 -0.00000000000E+00 -0.00000000000E+00 -0.45593999997E+02  0.45594000000E+02  0.51100000000E-03 0. -1.
    9900012    2    1    2    0    0  0.68182777623E+01  0.37487850121E+02  0.20779690918E+02  0.47787269903E+02  0.19999994794E+02 0.  0.
         12    1    1    2    0    0 -0.68182777623E+01 -0.37487850121E+02 -0.20779690918E+02  0.43400730097E+02  0.00000000000E+00 0. -1.
         11    1    3    3    0    0  0.47682204614E+01  0.54017636307E+01  0.14103974052E+01  0.73419478201E+01  0.51100000000E-03 0. -1.
        -11    1    3    3    0    0 -0.42958651909E+01  0.23842601847E+02  0.92499420081E+01  0.25932326313E+02  0.51100000000E-03 0.  1.
        -12    1    3    3    0    0  0.63459224918E+01  0.82434846426E+01  0.10119351505E+02  0.14512995770E+02  0.00000000000E+00 0.  1.
</event>
<event>
 7    1  0.5031164E-009  0.4778727E+02  0.7816164E-02  0.1312668E+00
        -11   -1    0    0    0    0  0.00000000000E+00  0.00000000000E+00  0.45593999997E+02  0.45594000000E+02  0.51100000000E-03 0.  1.
         11   -1    0    0    0    0 -0.00000000000E+00 -0.00000000000E+00 -0.45593999997E+02  0.45594000000E+02  0.51100000000E-03 0. -1.
    9900012    2    1    2    0    0  0.45834177271E+01  0.40858075649E+02  0.13900835290E+02  0.47787270910E+02  0.19999999388E+02 0.  0.
         12    1    1    2    0    0 -0.45834177271E+01 -0.40858075649E+02 -0.13900835290E+02  0.43400729090E+02  0.00000000000E+00 0. -1.
         11    1    3    3    0    0 -0.11950233324E+01  0.15614295475E+02 -0.23503633902E+01  0.15835356399E+02  0.51100000000E-03 0. -1.
        -11    1    3    3    0    0  0.30248104878E+01  0.24308455924E+02  0.15347119161E+02  0.28906479805E+02  0.51100000000E-03 0.  1.
         12    1    3    3    0    0  0.27536305717E+01  0.93532424982E+00  0.90407951850E+00  0.30454347068E+01  0.00000000000E+00 0. -1.
</event>
<event>
 7    1  0.5031164E-009  0.4778727E+02  0.7816164E-02  0.1312668E+00
        -11   -1    0    0    0    0  0.00000000000E+00  0.00000000000E+00  0.45593999997E+02  0.45594000000E+02  0.51100000000E-03 0.  1.
         11   -1    0    0    0    0 -0.00000000000E+00 -0.00000000000E+00 -0.45593999997E+02  0.45594000000E+02  0.51100000000E-03 0. -1.
    9900012    2    1    2    0    0 -0.14471016818E+02  0.33372054797E+02  0.23675284122E+02  0.47787269046E+02  0.19999990887E+02 0.  0.
         12    1    1    2    0    0  0.14471016818E+02 -0.33372054797E+02 -0.23675284122E+02  0.43400730954E+02  0.00000000000E+00 0. -1.
         11    1    3    3    0    0 -0.97306081601E+01  0.15695367984E+02  0.24801722430E+01  0.18632782024E+02  0.51100000000E-03 0. -1.
        -11    1    3    3    0    0 -0.45223550909E+01  0.63900347936E+01  0.13108558634E+02  0.15268220261E+02  0.51100000000E-03 0.  1.
        -12    1    3    3    0    0 -0.21805356682E+00  0.11286652019E+02  0.80865532450E+01  0.13886266761E+02  0.00000000000E+00 0.  1.
</event>
<event>
 7    1  0.5031164E-009  0.4778727E+02  0.7816164E-02  0.1312668E+00
        -11   -1    0    0    0    0  0.00000000000E+00  0.00000000000E+00  0.45593999997E+02  0.45594000000E+02  0.51100000000E-03 0.  1.
         11   -1    0    0    0    0 -0.00000000000E+00 -0.00000000000E+00 -0.45593999997E+02  0.45594000000E+02  0.51100000000E-03 0. -1.
    9900012    2    1    2    0    0 -0.15059559760E+02  0.22951956843E+01  0.40639451855E+02  0.47787270623E+02  0.19999998077E+02 0.  0.
         12    1    1    2    0    0  0.15059559760E+02 -0.22951956843E+01 -0.40639451855E+02  0.43400729377E+02  0.00000000000E+00 0. -1.
         11    1    3    3    0    0  0.16730815425E+01 -0.13496040860E+01  0.48436693919E+01  0.52992231955E+01  0.51100000000E-03 0. -1.
        -11    1    3    3    0    0 -0.14101119322E+02 -0.41188715092E+01  0.23154168499E+02  0.27421199605E+02  0.51100000000E-03 0.  1.
        -12    1    3    3    0    0 -0.26315219803E+01  0.77636712794E+01  0.12641613965E+02  0.15066847822E+02  0.00000000000E+00 0.  1.
</event>
<event>
 7    1  0.5031164E-009  0.4778728E+02  0.7816164E-02  0.1312668E+00
        -11   -1    0    0    0    0  0.00000000000E+00  0.00000000000E+00  0.45593999997E+02  0.45594000000E+02  0.51100000000E-03 0.  1.
         11   -1    0    0    0    0 -0.00000000000E+00 -0.00000000000E+00 -0.45593999997E+02  0.45594000000E+02  0.51100000000E-03 0. -1.
    9900012    2    1    2    0    0  0.40969485638E+02 -0.94093551625E+01  0.10797594645E+02  0.47787276871E+02  0.20000026566E+02 0.  0.
         12    1    1    2    0    0 -0.40969485638E+02  0.94093551625E+01 -0.10797594645E+02  0.43400723129E+02  0.00000000000E+00 0. -1.
         11    1    3    3    0    0  0.90745925427E+01 -0.10787947744E+02  0.37866562301E+01  0.14596808282E+02  0.51100000000E-03 0. -1.
        -11    1    3    3    0    0  0.31417780932E+02  0.72782395036E+00  0.74133464459E+01  0.32288765728E+02  0.51100000000E-03 0.  1.
        -12    1    3    3    0    0  0.47711216268E+00  0.65076863144E+00 -0.40240803091E+00  0.90170286169E+00  0.00000000000E+00 0.  1.
</event>
<event>
 7    1  0.5031164E-009  0.4778727E+02  0.7816164E-02  0.1312668E+00
        -11   -1    0    0    0    0  0.00000000000E+00  0.00000000000E+00  0.45593999997E+02  0.45594000000E+02  0.51100000000E-03 0. -1.
         11   -1    0    0    0    0 -0.00000000000E+00 -0.00000000000E+00 -0.45593999997E+02  0.45594000000E+02  0.51100000000E-03 0.  1.
    9900012    2    1    2    0    0  0.30259617286E+02  0.30568509744E+02 -0.57918142225E+01  0.47787270302E+02  0.19999996617E+02 0.  0.
         12    1    1    2    0    0 -0.30259617286E+02 -0.30568509744E+02  0.57918142225E+01  0.43400729698E+02  0.00000000000E+00 0. -1.
         11    1    3    3    0    0  0.51635043686E+01  0.17923519438E+02 -0.58503510252E+01  0.19548425354E+02  0.51100000000E-03 0.  1.
        -11    1    3    3    0    0  0.23316539571E+02  0.12492870473E+02  0.25480153329E-01  0.26452475871E+02  0.51100000000E-03 0. -1.
         12    1    3    3    0    0  0.17795733466E+01  0.15211983316E+00  0.33056649342E-01  0.17863690776E+01  0.00000000000E+00 0. -1.
</event>
<event>
 7    1  0.5031164E-009  0.4778725E+02  0.7816164E-02  0.1312668E+00
        -11   -1    0    0    0    0  0.00000000000E+00  0.00000000000E+00  0.45593999997E+02  0.45594000000E+02  0.51100000000E-03 0.  1.
         11   -1    0    0    0    0 -0.00000000000E+00 -0.00000000000E+00 -0.45593999997E+02  0.45594000000E+02  0.51100000000E-03 0. -1.
    9900012    2    1    2    0    0  0.21586755834E+02 -0.16805384177E+02  0.33692974497E+02  0.47787245454E+02  0.19999883321E+02 0.  0.
         12    1    1    2    0    0 -0.21586755834E+02  0.16805384177E+02 -0.33692974497E+02  0.43400754546E+02  0.00000000000E+00 0. -1.
         11    1    3    3    0    0  0.17042901188E+01 -0.94864210886E+01  0.69970136794E+01  0.11910289273E+02  0.51100000000E-03 0. -1.
        -11    1    3    3    0    0  0.18428277558E+02 -0.86514170144E+01  0.27068616178E+02  0.33869727076E+02  0.51100000000E-03 0.  1.
        -12    1    3    3    0    0  0.14541881570E+01  0.13324539263E+01 -0.37265536101E+00  0.20072291049E+01  0.00000000000E+00 0.  1.
</event>
<event>
 7    1  0.5031164E-009  0.4778727E+02  0.7816164E-02  0.1312668E+00
        -11   -1    0    0    0    0  0.00000000000E+00  0.00000000000E+00  0.45593999997E+02  0.45594000000E+02  0.51100000000E-03 0.  1.
         11   -1    0    0    0    0 -0.00000000000E+00 -0.00000000000E+00 -0.45593999997E+02  0.45594000000E+02  0.51100000000E-03 0. -1.
    9900012    2    1    2    0    0  0.33836781221E+02 -0.54647434690E+01  0.26623899602E+02  0.47787271727E+02  0.20000003114E+02 0.  0.
         12    1    1    2    0    0 -0.33836781221E+02  0.54647434690E+01 -0.26623899602E+02  0.43400728273E+02  0.00000000000E+00 0. -1.
         11    1    3    3    0    0  0.93023183185E+01 -0.59321174322E+01  0.14045030427E+02  0.17860179822E+02  0.51100000000E-03 0. -1.
        -11    1    3    3    0    0  0.13147567352E+02  0.41505164398E+00  0.13051446688E+02  0.18530274042E+02  0.51100000000E-03 0.  1.
         12    1    3    3    0    0  0.11386895550E+02  0.52322319296E-01 -0.47257751349E+00  0.11396817863E+02  0.00000000000E+00 0. -1.
</event>
<event>
 7    1  0.5031164E-009  0.4778727E+02  0.7816164E-02  0.1312668E+00
        -11   -1    0    0    0    0  0.00000000000E+00  0.00000000000E+00  0.45593999997E+02  0.45594000000E+02  0.51100000000E-03 0.  1.
         11   -1    0    0    0    0 -0.00000000000E+00 -0.00000000000E+00 -0.45593999997E+02  0.45594000000E+02  0.51100000000E-03 0. -1.
    9900012    2    1    2    0    0 -0.14672949907E+02  0.75958423812E+01  0.40132671905E+02  0.47787266888E+02  0.19999981050E+02 0.  0.
         12    1    1    2    0    0  0.14672949907E+02 -0.75958423812E+01 -0.40132671905E+02  0.43400733112E+02  0.00000000000E+00 0. -1.
         11    1    3    3    0    0  0.29708580877E+00 -0.29426845964E+01  0.33887619887E+00  0.29769934415E+01  0.51100000000E-03 0. -1.
        -11    1    3    3    0    0 -0.44951622746E+00  0.20173219040E-01  0.10190995517E+02  0.10200924551E+02  0.51100000000E-03 0.  1.
         12    1    3    3    0    0 -0.14520519488E+02  0.10518353759E+02  0.29602800189E+02  0.34609348896E+02  0.00000000000E+00 0. -1.
</event>
<event>
 7    1  0.5031164E-009  0.4778726E+02  0.7816164E-02  0.1312668E+00
        -11   -1    0    0    0    0  0.00000000000E+00  0.00000000000E+00  0.45593999997E+02  0.45594000000E+02  0.51100000000E-03 0. -1.
         11   -1    0    0    0    0 -0.00000000000E+00 -0.00000000000E+00 -0.45593999997E+02  0.45594000000E+02  0.51100000000E-03 0.  1.
    9900012    2    1    2    0    0 -0.23141748141E+02 -0.34361183002E+02 -0.12938025792E+02  0.47787263650E+02  0.19999966287E+02 0.  0.
         12    1    1    2    0    0  0.23141748141E+02  0.34361183002E+02  0.12938025792E+02  0.43400736350E+02  0.00000000000E+00 0. -1.
         11    1    3    3    0    0 -0.96174330730E+01 -0.22527931158E+02 -0.13538502902E+02  0.27987385770E+02  0.51100000000E-03 0. -1.
        -11    1    3    3    0    0 -0.14125299025E+02 -0.11484992565E+02 -0.81471411910E+00  0.18223415874E+02  0.51100000000E-03 0.  1.
        -12    1    3    3    0    0  0.60098395740E+00 -0.34825927940E+00  0.14151912289E+01  0.15764620062E+01  0.00000000000E+00 0.  1.
</event>
<event>
 7    1  0.5031164E-009  0.4778726E+02  0.7816164E-02  0.1312668E+00
        -11   -1    0    0    0    0  0.00000000000E+00  0.00000000000E+00  0.45593999997E+02  0.45594000000E+02  0.51100000000E-03 0. -1.
         11   -1    0    0    0    0 -0.00000000000E+00 -0.00000000000E+00 -0.45593999997E+02  0.45594000000E+02  0.51100000000E-03 0.  1.
    9900012    2    1    2    0    0  0.40843745347E+02 -0.34983181079E+00 -0.14672786818E+02  0.47787255891E+02  0.19999930909E+02 0.  0.
         12    1    1    2    0    0 -0.40843745347E+02  0.34983181079E+00  0.14672786818E+02  0.43400744109E+02  0.00000000000E+00 0. -1.
         11    1    3    3    0    0  0.33476332012E+01  0.10861835164E+01 -0.52600701103E+01  0.63288846180E+01  0.51100000000E-03 0. -1.
        -11    1    3    3    0    0  0.17004760460E+02 -0.48829850136E+01  0.19094748513E+01  0.17794704701E+02  0.51100000000E-03 0.  1.
        -12    1    3    3    0    0  0.20491351685E+02  0.34469696864E+01 -0.11322191559E+02  0.23663666571E+02  0.00000000000E+00 0.  1.
</event>
<event>
 7    1  0.5031164E-009  0.4778727E+02  0.7816164E-02  0.1312668E+00
        -11   -1    0    0    0    0  0.00000000000E+00  0.00000000000E+00  0.45593999997E+02  0.45594000000E+02  0.51100000000E-03 0. -1.
         11   -1    0    0    0    0 -0.00000000000E+00 -0.00000000000E+00 -0.45593999997E+02  0.45594000000E+02  0.51100000000E-03 0.  1.
    9900012    2    1    2    0    0  0.15702180330E+01 -0.23691125086E+02 -0.36330268173E+02  0.47787269844E+02  0.19999994529E+02 0.  0.
         12    1    1    2    0    0 -0.15702180330E+01  0.23691125086E+02  0.36330268173E+02  0.43400730156E+02  0.00000000000E+00 0. -1.
         11    1    3    3    0    0  0.12766863142E+01 -0.10855675935E+02 -0.22510896815E+01  0.11159884989E+02  0.51100000000E-03 0. -1.
        -11    1    3    3    0    0 -0.15371168976E+01 -0.73930363120E+01 -0.16797033225E+02  0.18416298209E+02  0.51100000000E-03 0.  1.
         12    1    3    3    0    0  0.18306486164E+01 -0.54424128388E+01 -0.17282145266E+02  0.18211086647E+02  0.00000000000E+00 0. -1.
</event>
<event>
 7    1  0.5031164E-009  0.4778724E+02  0.7816164E-02  0.1312668E+00
        -11   -1    0    0    0    0  0.00000000000E+00  0.00000000000E+00  0.45593999997E+02  0.45594000000E+02  0.51100000000E-03 0.  1.
         11   -1    0    0    0    0 -0.00000000000E+00 -0.00000000000E+00 -0.45593999997E+02  0.45594000000E+02  0.51100000000E-03 0. -1.
    9900012    2    1    2    0    0 -0.11483921048E+02 -0.10822308674E+02  0.40430476172E+02  0.47787237206E+02  0.19999845715E+02 0.  0.
         12    1    1    2    0    0  0.11483921048E+02  0.10822308674E+02 -0.40430476172E+02  0.43400762794E+02  0.00000000000E+00 0. -1.
         11    1    3    3    0    0 -0.10346577164E+02  0.24410281842E+01  0.12018849440E+02  0.16045654232E+02  0.51100000000E-03 0. -1.
        -11    1    3    3    0    0 -0.10098364905E+01 -0.13679502773E+02  0.27601651738E+02  0.30822065874E+02  0.51100000000E-03 0.  1.
        -12    1    3    3    0    0 -0.12750739339E+00  0.41616591553E+00  0.80997499420E+00  0.91951709927E+00  0.00000000000E+00 0.  1.
</event>
<event>
 7    1  0.5031164E-009  0.4778727E+02  0.7816164E-02  0.1312668E+00
        -11   -1    0    0    0    0  0.00000000000E+00  0.00000000000E+00  0.45593999997E+02  0.45594000000E+02  0.51100000000E-03 0.  1.
         11   -1    0    0    0    0 -0.00000000000E+00 -0.00000000000E+00 -0.45593999997E+02  0.45594000000E+02  0.51100000000E-03 0. -1.
    9900012    2    1    2    0    0  0.33460338085E+02  0.56585018927E+01  0.27055692824E+02  0.47787269792E+02  0.19999994289E+02 0.  0.
         12    1    1    2    0    0 -0.33460338085E+02 -0.56585018927E+01 -0.27055692824E+02  0.43400730208E+02  0.00000000000E+00 0. -1.
         11    1    3    3    0    0  0.26852714110E+01  0.21401800555E+01 -0.15403446471E+01  0.37634711522E+01  0.51100000000E-03 0. -1.
        -11    1    3    3    0    0  0.28101896578E+02 -0.16385097302E+00  0.20673245080E+02  0.34887340123E+02  0.51100000000E-03 0.  1.
        -12    1    3    3    0    0  0.26731700954E+01  0.36821728103E+01  0.79227923908E+01  0.91364585169E+01  0.00000000000E+00 0.  1.
</event>
<event>
 7    1  0.5031164E-009  0.4778727E+02  0.7816164E-02  0.1312668E+00
        -11   -1    0    0    0    0  0.00000000000E+00  0.00000000000E+00  0.45593999997E+02  0.45594000000E+02  0.51100000000E-03 0. -1.
         11   -1    0    0    0    0 -0.00000000000E+00 -0.00000000000E+00 -0.45593999997E+02  0.45594000000E+02  0.51100000000E-03 0.  1.
    9900012    2    1    2    0    0  0.68165908488E+01  0.21268819853E+02 -0.37212832764E+02  0.47787268081E+02  0.19999986491E+02 0.  0.
         12    1    1    2    0    0 -0.68165908488E+01 -0.21268819853E+02  0.37212832764E+02  0.43400731919E+02  0.00000000000E+00 0. -1.
         11    1    3    3    0    0 -0.26978506327E+01  0.34867566050E+01 -0.14911190543E+02  0.15549259575E+02  0.51100000000E-03 0. -1.
        -11    1    3    3    0    0  0.98526882446E+01  0.11045958751E+02 -0.20448596630E+02  0.25243489751E+02  0.51100000000E-03 0.  1.
        -12    1    3    3    0    0 -0.33824676322E+00  0.67361044968E+01 -0.18530455906E+01  0.69945187558E+01  0.00000000000E+00 0.  1.
</event>
<event>
 7    1  0.5031164E-009  0.4778725E+02  0.7816164E-02  0.1312668E+00
        -11   -1    0    0    0    0  0.00000000000E+00  0.00000000000E+00  0.45593999997E+02  0.45594000000E+02  0.51100000000E-03 0.  1.
         11   -1    0    0    0    0 -0.00000000000E+00 -0.00000000000E+00 -0.45593999997E+02  0.45594000000E+02  0.51100000000E-03 0. -1.
    9900012    2    1    2    0    0  0.68359908951E+00 -0.11147554318E+02  0.41939125219E+02  0.47787245408E+02  0.19999883112E+02 0.  0.
         12    1    1    2    0    0 -0.68359908951E+00  0.11147554318E+02 -0.41939125219E+02  0.43400754592E+02  0.00000000000E+00 0. -1.
         11    1    3    3    0    0 -0.15540894411E+01  0.40355753348E+01  0.28013423767E+01  0.51525315765E+01  0.51100000000E-03 0. -1.
        -11    1    3    3    0    0  0.35677182777E+01 -0.94645162899E+01  0.17482322776E+02  0.20197457568E+02  0.51100000000E-03 0.  1.
         12    1    3    3    0    0 -0.13300297471E+01 -0.57186133632E+01  0.21655460067E+02  0.22437256263E+02  0.00000000000E+00 0. -1.
</event>
<event>
 7    1  0.5031164E-009  0.4778727E+02  0.7816164E-02  0.1312668E+00
        -11   -1    0    0    0    0  0.00000000000E+00  0.00000000000E+00  0.45593999997E+02  0.45594000000E+02  0.51100000000E-03 0.  1.
         11   -1    0    0    0    0 -0.00000000000E+00 -0.00000000000E+00 -0.45593999997E+02  0.45594000000E+02  0.51100000000E-03 0. -1.
    9900012    2    1    2    0    0  0.23534848938E+02  0.48625191490E+01  0.36139866525E+02  0.47787272363E+02  0.20000006013E+02 0.  0.
         12    1    1    2    0    0 -0.23534848938E+02 -0.48625191490E+01 -0.36139866525E+02  0.43400727637E+02  0.00000000000E+00 0. -1.
         11    1    3    3    0    0  0.24733961377E+02  0.57301457786E+01  0.27172962985E+02  0.37188349435E+02  0.51100000000E-03 0.  1.
        -11    1    3    3    0    0 -0.23492067481E+01  0.52384586968E+00  0.83518870766E+01  0.86917895075E+01  0.51100000000E-03 0. -1.
        -12    1    3    3    0    0  0.11500943086E+01 -0.13914724993E+01  0.61501646298E+00  0.19071334208E+01  0.00000000000E+00 0.  1.
</event>
<event>
 7    1  0.5031164E-009  0.4778727E+02  0.7816164E-02  0.1312668E+00
        -11   -1    0    0    0    0  0.00000000000E+00  0.00000000000E+00  0.45593999997E+02  0.45594000000E+02  0.51100000000E-03 0. -1.
         11   -1    0    0    0    0 -0.00000000000E+00 -0.00000000000E+00 -0.45593999997E+02  0.45594000000E+02  0.51100000000E-03 0.  1.
    9900012    2    1    2    0    0 -0.24023481880E+01  0.29547094711E+02  0.31698913272E+02  0.47787272065E+02  0.20000004652E+02 0.  0.
         12    1    1    2    0    0  0.24023481880E+01 -0.29547094711E+02 -0.31698913272E+02  0.43400727935E+02  0.00000000000E+00 0. -1.
         11    1    3    3    0    0  0.33546929144E+01  0.88191999393E+01  0.23877548946E+01  0.97331200454E+01  0.51100000000E-03 0.  1.
        -11    1    3    3    0    0 -0.44329890747E+00  0.11700414815E+02  0.23041852490E+02  0.25846144533E+02  0.51100000000E-03 0. -1.
        -12    1    3    3    0    0 -0.53137421950E+01  0.90274799568E+01  0.62693058873E+01  0.12208007487E+02  0.00000000000E+00 0.  1.
</event>
<event>
 7    1  0.5031164E-009  0.4778727E+02  0.7816164E-02  0.1312668E+00
        -11   -1    0    0    0    0  0.00000000000E+00  0.00000000000E+00  0.45593999997E+02  0.45594000000E+02  0.51100000000E-03 0.  1.
         11   -1    0    0    0    0 -0.00000000000E+00 -0.00000000000E+00 -0.45593999997E+02  0.45594000000E+02  0.51100000000E-03 0. -1.
    9900012    2    1    2    0    0 -0.43224526145E+02  0.38881614448E+01 -0.38205836250E+00  0.47787269263E+02  0.19999991877E+02 0.  0.
         12    1    1    2    0    0  0.43224526145E+02 -0.38881614448E+01  0.38205836250E+00  0.43400730737E+02  0.00000000000E+00 0. -1.
         11    1    3    3    0    0 -0.18335704270E+02  0.92421218313E+01  0.45372622449E+01  0.21028590441E+02  0.51100000000E-03 0. -1.
        -11    1    3    3    0    0 -0.45916387301E+01  0.14697474520E+01 -0.16625350535E+00  0.48239967133E+01  0.51100000000E-03 0.  1.
         12    1    3    3    0    0 -0.20297183146E+02 -0.68237078385E+01 -0.47530671021E+01  0.21934682108E+02  0.00000000000E+00 0. -1.
</event>
<event>
 7    1  0.5031164E-009  0.4778727E+02  0.7816164E-02  0.1312668E+00
        -11   -1    0    0    0    0  0.00000000000E+00  0.00000000000E+00  0.45593999997E+02  0.45594000000E+02  0.51100000000E-03 0.  1.
         11   -1    0    0    0    0 -0.00000000000E+00 -0.00000000000E+00 -0.45593999997E+02  0.45594000000E+02  0.51100000000E-03 0. -1.
    9900012    2    1    2    0    0  0.42368181843E+02  0.87845673825E+01 -0.33751270443E+01  0.47787274898E+02  0.20000017572E+02 0.  0.
         12    1    1    2    0    0 -0.42368181843E+02 -0.87845673825E+01  0.33751270443E+01  0.43400725102E+02  0.00000000000E+00 0. -1.
         11    1    3    3    0    0  0.29701600898E+01  0.32860098702E+01  0.19371540386E+01  0.48344883758E+01  0.51100000000E-03 0. -1.
        -11    1    3    3    0    0  0.14937951123E+02  0.61800596002E+01 -0.85203842996E+01  0.18273819231E+02  0.51100000000E-03 0.  1.
        -12    1    3    3    0    0  0.24460070630E+02 -0.68150208790E+00  0.32081032167E+01  0.24678967291E+02  0.00000000000E+00 0.  1.
</event>
<event>
 7    1  0.5031164E-009  0.4778727E+02  0.7816164E-02  0.1312668E+00
        -11   -1    0    0    0    0  0.00000000000E+00  0.00000000000E+00  0.45593999997E+02  0.45594000000E+02  0.51100000000E-03 0.  1.
         11   -1    0    0    0    0 -0.00000000000E+00 -0.00000000000E+00 -0.45593999997E+02  0.45594000000E+02  0.51100000000E-03 0. -1.
    9900012    2    1    2    0    0 -0.54465986581E+01  0.34995626363E+02  0.25085133789E+02  0.47787271450E+02  0.20000001848E+02 0.  0.
         12    1    1    2    0    0  0.54465986581E+01 -0.34995626363E+02 -0.25085133789E+02  0.43400728550E+02  0.00000000000E+00 0. -1.
         11    1    3    3    0    0  0.66739669945E+00  0.29853236257E+01  0.99802215584E+01  0.10438505550E+02  0.51100000000E-03 0. -1.
        -11    1    3    3    0    0 -0.52350906310E+01  0.16843656474E+02  0.13214599579E+02  0.22039523126E+02  0.51100000000E-03 0.  1.
         12    1    3    3    0    0 -0.87890472654E+00  0.15166646263E+02  0.18903126523E+01  0.15309242774E+02  0.00000000000E+00 0. -1.
</event>
<event>
 7    1  0.5031164E-009  0.4778727E+02  0.7816164E-02  0.1312668E+00
        -11   -1    0    0    0    0  0.00000000000E+00  0.00000000000E+00  0.45593999997E+02  0.45594000000E+02  0.51100000000E-03 0.  1.
         11   -1    0    0    0    0 -0.00000000000E+00 -0.00000000000E+00 -0.45593999997E+02  0.45594000000E+02  0.51100000000E-03 0. -1.
    9900012    2    1    2    0    0  0.91586010866E+01 -0.32770399103E+02 -0.26941496632E+02  0.47787271066E+02  0.20000000096E+02 0.  0.
         12    1    1    2    0    0 -0.91586010866E+01  0.32770399103E+02  0.26941496632E+02  0.43400728934E+02  0.00000000000E+00 0. -1.
         11    1    3    3    0    0  0.38149553809E+01 -0.31516252243E+01 -0.10868880848E+02  0.11942327966E+02  0.51100000000E-03 0. -1.
        -11    1    3    3    0    0  0.60813395586E+01 -0.85846673544E+01 -0.25397910681E+01  0.10822649553E+02  0.51100000000E-03 0.  1.
         12    1    3    3    0    0 -0.73769385293E+00 -0.21034106525E+02 -0.13532824717E+02  0.25022293546E+02  0.00000000000E+00 0. -1.
</event>
<event>
 7    1  0.5031164E-009  0.4778727E+02  0.7816164E-02  0.1312668E+00
        -11   -1    0    0    0    0  0.00000000000E+00  0.00000000000E+00  0.45593999997E+02  0.45594000000E+02  0.51100000000E-03 0. -1.
         11   -1    0    0    0    0 -0.00000000000E+00 -0.00000000000E+00 -0.45593999997E+02  0.45594000000E+02  0.51100000000E-03 0.  1.
    9900012    2    1    2    0    0  0.16632004157E+02  0.34642211523E+02 -0.20172175664E+02  0.47787273595E+02  0.20000011629E+02 0.  0.
         12    1    1    2    0    0 -0.16632004157E+02 -0.34642211523E+02  0.20172175664E+02  0.43400726405E+02  0.00000000000E+00 0. -1.
         11    1    3    3    0    0  0.11369523675E+02  0.79110017189E+01 -0.78215757687E+00  0.13873059775E+02  0.51100000000E-03 0. -1.
        -11    1    3    3    0    0  0.98404852374E+00  0.14278396910E+02 -0.12748451419E+02  0.19166741603E+02  0.51100000000E-03 0.  1.
        -12    1    3    3    0    0  0.42784319584E+01  0.12452812894E+02 -0.66415666679E+01  0.14747472217E+02  0.00000000000E+00 0.  1.
</event>
<event>
 7    1  0.5031164E-009  0.4778727E+02  0.7816164E-02  0.1312668E+00
        -11   -1    0    0    0    0  0.00000000000E+00  0.00000000000E+00  0.45593999997E+02  0.45594000000E+02  0.51100000000E-03 0.  1.
         11   -1    0    0    0    0 -0.00000000000E+00 -0.00000000000E+00 -0.45593999997E+02  0.45594000000E+02  0.51100000000E-03 0. -1.
    9900012    2    1    2    0    0  0.13903717153E+02  0.62240012631E+00  0.41108664130E+02  0.47787274210E+02  0.20000014431E+02 0.  0.
         12    1    1    2    0    0 -0.13903717153E+02 -0.62240012631E+00 -0.41108664130E+02  0.43400725790E+02  0.00000000000E+00 0. -1.
         11    1    3    3    0    0  0.10306619532E+02  0.57182560016E+01  0.20577684855E+02  0.23714256727E+02  0.51100000000E-03 0. -1.
        -11    1    3    3    0    0 -0.17470836486E+01 -0.64051830421E+01  0.80611064751E+01  0.10443184808E+02  0.51100000000E-03 0.  1.
        -12    1    3    3    0    0  0.53441812697E+01  0.13093271667E+01  0.12469872800E+02  0.13629832674E+02  0.00000000000E+00 0.  1.
</event>
<event>
 7    1  0.5031164E-009  0.4778725E+02  0.7816164E-02  0.1312668E+00
        -11   -1    0    0    0    0  0.00000000000E+00  0.00000000000E+00  0.45593999997E+02  0.45594000000E+02  0.51100000000E-03 0. -1.
         11   -1    0    0    0    0 -0.00000000000E+00 -0.00000000000E+00 -0.45593999997E+02  0.45594000000E+02  0.51100000000E-03 0.  1.
    9900012    2    1    2    0    0  0.35173494164E+02 -0.24028761545E+02 -0.83107766796E+01  0.47787250212E+02  0.19999905017E+02 0.  0.
         12    1    1    2    0    0 -0.35173494164E+02  0.24028761545E+02  0.83107766796E+01  0.43400749788E+02  0.00000000000E+00 0. -1.
         11    1    3    3    0    0  0.94068993863E+01 -0.16801787798E+02 -0.33262821986E+01  0.19541084483E+02  0.51100000000E-03 0. -1.
        -11    1    3    3    0    0  0.25883908651E+02 -0.74148493480E+01 -0.56788163496E+01  0.27517370392E+02  0.51100000000E-03 0.  1.
         12    1    3    3    0    0 -0.11731387256E+00  0.18787560061E+00  0.69432186857E+00  0.72879533696E+00  0.00000000000E+00 0. -1.
</event>
<event>
 7    1  0.5031164E-009  0.4778727E+02  0.7816164E-02  0.1312668E+00
        -11   -1    0    0    0    0  0.00000000000E+00  0.00000000000E+00  0.45593999997E+02  0.45594000000E+02  0.51100000000E-03 0.  1.
         11   -1    0    0    0    0 -0.00000000000E+00 -0.00000000000E+00 -0.45593999997E+02  0.45594000000E+02  0.51100000000E-03 0. -1.
    9900012    2    1    2    0    0  0.36537450586E+02  0.12543661552E+02 -0.19781170962E+02  0.47787268842E+02  0.19999989958E+02 0.  0.
         12    1    1    2    0    0 -0.36537450586E+02 -0.12543661552E+02  0.19781170962E+02  0.43400731158E+02  0.00000000000E+00 0. -1.
         11    1    3    3    0    0  0.27432009652E+02  0.38136765048E+01 -0.17093811152E+02  0.32546238830E+02  0.51100000000E-03 0. -1.
        -11    1    3    3    0    0  0.60546372707E+01  0.24055380201E+01 -0.45857864603E+01  0.79671000601E+01  0.51100000000E-03 0.  1.
         12    1    3    3    0    0  0.30508036634E+01  0.63244470274E+01  0.18984266509E+01  0.72739299518E+01  0.00000000000E+00 0. -1.
</event>
<event>
 7    1  0.5031164E-009  0.4778726E+02  0.7816164E-02  0.1312668E+00
        -11   -1    0    0    0    0  0.00000000000E+00  0.00000000000E+00  0.45593999997E+02  0.45594000000E+02  0.51100000000E-03 0. -1.
         11   -1    0    0    0    0 -0.00000000000E+00 -0.00000000000E+00 -0.45593999997E+02  0.45594000000E+02  0.51100000000E-03 0.  1.
    9900012    2    1    2    0    0  0.18131530479E+02  0.34771587485E+02 -0.18595918106E+02  0.47787264246E+02  0.19999969004E+02 0.  0.
         12    1    1    2    0    0 -0.18131530479E+02 -0.34771587485E+02  0.18595918106E+02  0.43400735754E+02  0.00000000000E+00 0. -1.
         11    1    3    3    0    0  0.58008944554E+01 -0.13719392710E+00  0.64257154609E+00  0.58379874195E+01  0.51100000000E-03 0. -1.
        -11    1    3    3    0    0  0.27853707068E+01  0.41957345292E+01 -0.16960710757E+01  0.53140507683E+01  0.51100000000E-03 0.  1.
         12    1    3    3    0    0  0.95452653170E+01  0.30713046883E+02 -0.17542418576E+02  0.36635226058E+02  0.00000000000E+00 0. -1.
</event>
<event>
 7    1  0.5031164E-009  0.4778727E+02  0.7816164E-02  0.1312668E+00
        -11   -1    0    0    0    0  0.00000000000E+00  0.00000000000E+00  0.45593999997E+02  0.45594000000E+02  0.51100000000E-03 0.  1.
         11   -1    0    0    0    0 -0.00000000000E+00 -0.00000000000E+00 -0.45593999997E+02  0.45594000000E+02  0.51100000000E-03 0. -1.
    9900012    2    1    2    0    0 -0.22361524059E+02 -0.60268798943E+01  0.36705071991E+02  0.47787270175E+02  0.19999996036E+02 0.  0.
         12    1    1    2    0    0  0.22361524059E+02  0.60268798943E+01 -0.36705071991E+02  0.43400729825E+02  0.00000000000E+00 0. -1.
         11    1    3    3    0    0 -0.10276975620E+02  0.57718667751E+01  0.11244608711E+02  0.16290239387E+02  0.51100000000E-03 0. -1.
        -11    1    3    3    0    0 -0.10870416932E+02 -0.88670419607E+01  0.24411208810E+02  0.28154884358E+02  0.51100000000E-03 0.  1.
        -12    1    3    3    0    0 -0.12141315076E+01 -0.29317047086E+01  0.10492544695E+01  0.33421464298E+01  0.00000000000E+00 0.  1.
</event>
<event>
 7    1  0.5031164E-009  0.4778727E+02  0.7816164E-02  0.1312668E+00
        -11   -1    0    0    0    0  0.00000000000E+00  0.00000000000E+00  0.45593999997E+02  0.45594000000E+02  0.51100000000E-03 0. -1.
         11   -1    0    0    0    0 -0.00000000000E+00 -0.00000000000E+00 -0.45593999997E+02  0.45594000000E+02  0.51100000000E-03 0.  1.
    9900012    2    1    2    0    0  0.10142361256E+02 -0.18123118053E+02 -0.38109165658E+02  0.47787269511E+02  0.19999993009E+02 0.  0.
         12    1    1    2    0    0 -0.10142361256E+02  0.18123118053E+02  0.38109165658E+02  0.43400730489E+02  0.00000000000E+00 0. -1.
         11    1    3    3    0    0  0.19512121912E+01 -0.59137602935E+01 -0.15966475251E+00  0.62293886472E+01  0.51100000000E-03 0. -1.
        -11    1    3    3    0    0  0.81822244586E+01 -0.13015016780E+02 -0.37700681520E+02  0.40714626932E+02  0.51100000000E-03 0.  1.
        -12    1    3    3    0    0  0.89246058584E-02  0.80565902115E+00 -0.24881938572E+00  0.84325393190E+00  0.00000000000E+00 0.  1.
</event>
<event>
 7    1  0.5031164E-009  0.4778727E+02  0.7816164E-02  0.1312668E+00
        -11   -1    0    0    0    0  0.00000000000E+00  0.00000000000E+00  0.45593999997E+02  0.45594000000E+02  0.51100000000E-03 0.  1.
         11   -1    0    0    0    0 -0.00000000000E+00 -0.00000000000E+00 -0.45593999997E+02  0.45594000000E+02  0.51100000000E-03 0. -1.
    9900012    2    1    2    0    0 -0.20101116039E+02 -0.37202787576E+02  0.97734791643E+01  0.47787272305E+02  0.20000005748E+02 0.  0.
         12    1    1    2    0    0  0.20101116039E+02  0.37202787576E+02 -0.97734791643E+01  0.43400727695E+02  0.00000000000E+00 0. -1.
         11    1    3    3    0    0 -0.24342496187E+01 -0.69857342744E+01  0.61423223764E+01  0.96153096152E+01  0.51100000000E-03 0. -1.
        -11    1    3    3    0    0 -0.16182115231E+02 -0.13498188506E+02  0.36543044104E+01  0.21387283307E+02  0.51100000000E-03 0.  1.
        -12    1    3    3    0    0 -0.14847511900E+01 -0.16718864796E+02 -0.23147622591E-01  0.16784679383E+02  0.00000000000E+00 0.  1.
</event>
<event>
 7    1  0.5031164E-009  0.4778727E+02  0.7816164E-02  0.1312668E+00
        -11   -1    0    0    0    0  0.00000000000E+00  0.00000000000E+00  0.45593999997E+02  0.45594000000E+02  0.51100000000E-03 0. -1.
         11   -1    0    0    0    0 -0.00000000000E+00 -0.00000000000E+00 -0.45593999997E+02  0.45594000000E+02  0.51100000000E-03 0.  1.
    9900012    2    1    2    0    0  0.40262488419E+02 -0.11146460437E+02 -0.11760593126E+02  0.47787272994E+02  0.20000008889E+02 0.  0.
         12    1    1    2    0    0 -0.40262488419E+02  0.11146460437E+02  0.11760593126E+02  0.43400727006E+02  0.00000000000E+00 0. -1.
         11    1    3    3    0    0  0.11697694969E+01  0.87546382290E+00  0.13827080206E+01  0.20116359791E+01  0.51100000000E-03 0. -1.
        -11    1    3    3    0    0  0.21045921681E+02  0.17410601830E+01 -0.54294548980E+01  0.21804611684E+02  0.51100000000E-03 0.  1.
        -12    1    3    3    0    0  0.18046797241E+02 -0.13762984443E+02 -0.77138462482E+01  0.23971025330E+02  0.00000000000E+00 0.  1.
</event>
<event>
 7    1  0.5031164E-009  0.4778727E+02  0.7816164E-02  0.1312668E+00
        -11   -1    0    0    0    0  0.00000000000E+00  0.00000000000E+00  0.45593999997E+02  0.45594000000E+02  0.51100000000E-03 0.  1.
         11   -1    0    0    0    0 -0.00000000000E+00 -0.00000000000E+00 -0.45593999997E+02  0.45594000000E+02  0.51100000000E-03 0. -1.
    9900012    2    1    2    0    0  0.97825041439E+01  0.86269870085E+01  0.41394459164E+02  0.47787267960E+02  0.19999985936E+02 0.  0.
         12    1    1    2    0    0 -0.97825041439E+01 -0.86269870085E+01 -0.41394459164E+02  0.43400732040E+02  0.00000000000E+00 0. -1.
         11    1    3    3    0    0 -0.13849759816E+01  0.10389250487E+02  0.18622048743E+02  0.21369028612E+02  0.51100000000E-03 0. -1.
        -11    1    3    3    0    0  0.68000646805E+01 -0.31878461837E+01  0.19142644007E+02  0.20563172488E+02  0.51100000000E-03 0.  1.
         12    1    3    3    0    0  0.43674154451E+01  0.14255827054E+01  0.36297664137E+01  0.58550668602E+01  0.00000000000E+00 0. -1.
</event>
<event>
 7    1  0.5031164E-009  0.4778728E+02  0.7816164E-02  0.1312668E+00
        -11   -1    0    0    0    0  0.00000000000E+00  0.00000000000E+00  0.45593999997E+02  0.45594000000E+02  0.51100000000E-03 0. -1.
         11   -1    0    0    0    0 -0.00000000000E+00 -0.00000000000E+00 -0.45593999997E+02  0.45594000000E+02  0.51100000000E-03 0.  1.
    9900012    2    1    2    0    0  0.39716046935E+02 -0.17295374122E+02  0.26699293906E+01  0.47787275661E+02  0.20000021050E+02 0.  0.
         12    1    1    2    0    0 -0.39716046935E+02  0.17295374122E+02 -0.26699293906E+01  0.43400724339E+02  0.00000000000E+00 0. -1.
         11    1    3    3    0    0  0.62786635010E+01 -0.48320885719E-01 -0.23468048509E+01  0.67030920877E+01  0.51100000000E-03 0. -1.
        -11    1    3    3    0    0  0.23394518543E+02 -0.33539801769E+01  0.28455892758E+01  0.23804412605E+02  0.51100000000E-03 0.  1.
        -12    1    3    3    0    0  0.10042864891E+02 -0.13893073059E+02  0.21711449657E+01  0.17279770968E+02  0.00000000000E+00 0.  1.
</event>
<event>
 7    1  0.5031164E-009  0.4778727E+02  0.7816164E-02  0.1312668E+00
        -11   -1    0    0    0    0  0.00000000000E+00  0.00000000000E+00  0.45593999997E+02  0.45594000000E+02  0.51100000000E-03 0.  1.
         11   -1    0    0    0    0 -0.00000000000E+00 -0.00000000000E+00 -0.45593999997E+02  0.45594000000E+02  0.51100000000E-03 0. -1.
    9900012    2    1    2    0    0  0.33497869207E+02 -0.14503387836E+02  0.23476972184E+02  0.47787265870E+02  0.19999976407E+02 0.  0.
         12    1    1    2    0    0 -0.33497869207E+02  0.14503387836E+02 -0.23476972184E+02  0.43400734130E+02  0.00000000000E+00 0. -1.
         11    1    3    3    0    0  0.54845967463E-01  0.22004901427E+01  0.41426161641E+01  0.46911015649E+01  0.51100000000E-03 0. -1.
        -11    1    3    3    0    0  0.18580655188E+02 -0.10529592507E+02  0.15936803861E+02  0.26647603703E+02  0.51100000000E-03 0.  1.
         12    1    3    3    0    0  0.14862368052E+02 -0.61742854717E+01  0.33975521591E+01  0.16448560602E+02  0.00000000000E+00 0. -1.
</event>
<event>
 7    1  0.5031164E-009  0.4778727E+02  0.7816164E-02  0.1312668E+00
        -11   -1    0    0    0    0  0.00000000000E+00  0.00000000000E+00  0.45593999997E+02  0.45594000000E+02  0.51100000000E-03 0. -1.
         11   -1    0    0    0    0 -0.00000000000E+00 -0.00000000000E+00 -0.45593999997E+02  0.45594000000E+02  0.51100000000E-03 0.  1.
    9900012    2    1    2    0    0  0.41214115859E+02  0.25308338948E+00 -0.13599851056E+02  0.47787270214E+02  0.19999996214E+02 0.  0.
         12    1    1    2    0    0 -0.41214115859E+02 -0.25308338948E+00  0.13599851056E+02  0.43400729786E+02  0.00000000000E+00 0. -1.
         11    1    3    3    0    0  0.30857799522E+01  0.45393214747E+01  0.86156112256E+00  0.55560566226E+01  0.51100000000E-03 0.  1.
        -11    1    3    3    0    0  0.25930604843E+02 -0.75978570535E+01 -0.10441519894E+02  0.28968069271E+02  0.51100000000E-03 0. -1.
         12    1    3    3    0    0  0.12197731063E+02  0.33116189683E+01 -0.40198922841E+01  0.13263144320E+02  0.00000000000E+00 0. -1.
</event>
<event>
 7    1  0.5031164E-009  0.4778727E+02  0.7816164E-02  0.1312668E+00
        -11   -1    0    0    0    0  0.00000000000E+00  0.00000000000E+00  0.45593999997E+02  0.45594000000E+02  0.51100000000E-03 0.  1.
         11   -1    0    0    0    0 -0.00000000000E+00 -0.00000000000E+00 -0.45593999997E+02  0.45594000000E+02  0.51100000000E-03 0. -1.
    9900012    2    1    2    0    0 -0.40280460186E+02  0.10329299734E+02  0.12426331196E+02  0.47787267140E+02  0.19999982199E+02 0.  0.
         12    1    1    2    0    0  0.40280460186E+02 -0.10329299734E+02 -0.12426331196E+02  0.43400732860E+02  0.00000000000E+00 0. -1.
         11    1    3    3    0    0 -0.25673425778E+02 -0.69020598911E+00  0.11056962864E+02  0.27961716748E+02  0.51100000000E-03 0. -1.
        -11    1    3    3    0    0 -0.31547164406E+01  0.62678854870E+01  0.23190433079E+01  0.73903035407E+01  0.51100000000E-03 0.  1.
        -12    1    3    3    0    0 -0.11452317967E+02  0.47516202363E+01 -0.94967497533E+00  0.12435246851E+02  0.00000000000E+00 0.  1.
</event>
<event>
 7    1  0.5031164E-009  0.4778727E+02  0.7816164E-02  0.1312668E+00
        -11   -1    0    0    0    0  0.00000000000E+00  0.00000000000E+00  0.45593999997E+02  0.45594000000E+02  0.51100000000E-03 0.  1.
         11   -1    0    0    0    0 -0.00000000000E+00 -0.00000000000E+00 -0.45593999997E+02  0.45594000000E+02  0.51100000000E-03 0. -1.
    9900012    2    1    2    0    0  0.34262416657E+02 -0.21874853818E+02  0.15205291318E+02  0.47787270641E+02  0.19999998163E+02 0.  0.
         12    1    1    2    0    0 -0.34262416657E+02  0.21874853818E+02 -0.15205291318E+02  0.43400729359E+02  0.00000000000E+00 0. -1.
         11    1    3    3    0    0  0.16996085026E+02 -0.45467233158E+01  0.10147988061E+02  0.20310619416E+02  0.51100000000E-03 0.  1.
        -11    1    3    3    0    0  0.26774548838E-01 -0.68049542264E+01  0.14975402759E+01  0.69678365394E+01  0.51100000000E-03 0. -1.
         12    1    3    3    0    0  0.17239557083E+02 -0.10523176276E+02  0.35597629818E+01  0.20508814686E+02  0.00000000000E+00 0. -1.
</event>
<event>
 7    1  0.5031164E-009  0.4778727E+02  0.7816164E-02  0.1312668E+00
        -11   -1    0    0    0    0  0.00000000000E+00  0.00000000000E+00  0.45593999997E+02  0.45594000000E+02  0.51100000000E-03 0.  1.
         11   -1    0    0    0    0 -0.00000000000E+00 -0.00000000000E+00 -0.45593999997E+02  0.45594000000E+02  0.51100000000E-03 0. -1.
    9900012    2    1    2    0    0  0.43096221744E+02  0.43937659803E+01 -0.26521535376E+01  0.47787269286E+02  0.19999991984E+02 0.  0.
         12    1    1    2    0    0 -0.43096221744E+02 -0.43937659803E+01  0.26521535376E+01  0.43400730714E+02  0.00000000000E+00 0. -1.
         11    1    3    3    0    0  0.48011181442E+01  0.34483047824E+01  0.43048878449E+01  0.73125645929E+01  0.51100000000E-03 0. -1.
        -11    1    3    3    0    0  0.19208269887E+02  0.41978791100E+01 -0.76572769847E+01  0.21100087965E+02  0.51100000000E-03 0.  1.
         12    1    3    3    0    0  0.19086833713E+02 -0.32524179121E+01  0.70023560221E+00  0.19374616728E+02  0.00000000000E+00 0. -1.
</event>
<event>
 7    1  0.5031164E-009  0.4778727E+02  0.7816164E-02  0.1312668E+00
        -11   -1    0    0    0    0  0.00000000000E+00  0.00000000000E+00  0.45593999997E+02  0.45594000000E+02  0.51100000000E-03 0.  1.
         11   -1    0    0    0    0 -0.00000000000E+00 -0.00000000000E+00 -0.45593999997E+02  0.45594000000E+02  0.51100000000E-03 0. -1.
    9900012    2    1    2    0    0  0.61801041460E+01 -0.32964502713E+02  0.27545801399E+02  0.47787270731E+02  0.19999998570E+02 0.  0.
         12    1    1    2    0    0 -0.61801041460E+01  0.32964502713E+02 -0.27545801399E+02  0.43400729269E+02  0.00000000000E+00 0. -1.
         11    1    3    3    0    0 -0.85506920799E+00  0.14835734288E+01  0.35638249719E-01  0.17127182533E+01  0.51100000000E-03 0. -1.
        -11    1    3    3    0    0  0.67915985597E+01 -0.35271700282E+02  0.26017157983E+02  0.44352126911E+02  0.51100000000E-03 0.  1.
        -12    1    3    3    0    0  0.24357479424E+00  0.82362414006E+00  0.14930051668E+01  0.17224255666E+01  0.00000000000E+00 0.  1.
</event>
<event>
 7    1  0.5031164E-009  0.4778726E+02  0.7816164E-02  0.1312668E+00
        -11   -1    0    0    0    0  0.00000000000E+00  0.00000000000E+00  0.45593999997E+02  0.45594000000E+02  0.51100000000E-03 0.  1.
         11   -1    0    0    0    0 -0.00000000000E+00 -0.00000000000E+00 -0.45593999997E+02  0.45594000000E+02  0.51100000000E-03 0. -1.
    9900012    2    1    2    0    0 -0.37244628862E+02  0.24174122972E+01  0.22149889997E+02  0.47787263968E+02  0.19999967734E+02 0.  0.
         12    1    1    2    0    0  0.37244628862E+02 -0.24174122972E+01 -0.22149889997E+02  0.43400736032E+02  0.00000000000E+00 0. -1.
         11    1    3    3    0    0 -0.14893975420E+02 -0.48308754607E+01  0.32464315099E+01  0.15990846736E+02  0.51100000000E-03 0. -1.
        -11    1    3    3    0    0 -0.15495402597E+02  0.17395190650E-01  0.10065238603E+02  0.18477468242E+02  0.51100000000E-03 0.  1.
         12    1    3    3    0    0 -0.68552508443E+01  0.72308925673E+01  0.88382198843E+01  0.13318948989E+02  0.00000000000E+00 0. -1.
</event>
<event>
 7    1  0.5031164E-009  0.4778727E+02  0.7816164E-02  0.1312668E+00
        -11   -1    0    0    0    0  0.00000000000E+00  0.00000000000E+00  0.45593999997E+02  0.45594000000E+02  0.51100000000E-03 0.  1.
         11   -1    0    0    0    0 -0.00000000000E+00 -0.00000000000E+00 -0.45593999997E+02  0.45594000000E+02  0.51100000000E-03 0. -1.
    9900012    2    1    2    0    0 -0.22213426539E+02  0.11315454023E+01  0.37268038173E+02  0.47787269789E+02  0.19999994275E+02 0.  0.
         12    1    1    2    0    0  0.22213426539E+02 -0.11315454023E+01 -0.37268038173E+02  0.43400730211E+02  0.00000000000E+00 0. -1.
         11    1    3    3    0    0 -0.13013086788E+02  0.93111566743E+01  0.18187678973E+02  0.24224568790E+02  0.51100000000E-03 0. -1.
        -11    1    3    3    0    0 -0.56568314463E+01 -0.69144315120E+01  0.84920972143E+01  0.12325778698E+02  0.51100000000E-03 0.  1.
         12    1    3    3    0    0 -0.35435083043E+01 -0.12651797599E+01  0.10588261985E+02  0.11236922301E+02  0.00000000000E+00 0. -1.
</event>
<event>
 7    1  0.5031164E-009  0.4778727E+02  0.7816164E-02  0.1312668E+00
        -11   -1    0    0    0    0  0.00000000000E+00  0.00000000000E+00  0.45593999997E+02  0.45594000000E+02  0.51100000000E-03 0.  1.
         11   -1    0    0    0    0 -0.00000000000E+00 -0.00000000000E+00 -0.45593999997E+02  0.45594000000E+02  0.51100000000E-03 0. -1.
    9900012    2    1    2    0    0  0.13863227285E+02 -0.68893857706E+00  0.41121276610E+02  0.47787273080E+02  0.20000009282E+02 0.  0.
         12    1    1    2    0    0 -0.13863227285E+02  0.68893857706E+00 -0.41121276610E+02  0.43400726920E+02  0.00000000000E+00 0. -1.
         11    1    3    3    0    0  0.59199955294E+01 -0.88154767097E+01  0.12972861974E+02  0.16764668942E+02  0.51100000000E-03 0. -1.
        -11    1    3    3    0    0  0.17403404896E+01  0.49301116503E+01  0.17717633847E+02  0.18472935211E+02  0.51100000000E-03 0.  1.
         12    1    3    3    0    0  0.62028912658E+01  0.31964264824E+01  0.10430780789E+02  0.12549668927E+02  0.00000000000E+00 0. -1.
</event>
<event>
 7    1  0.5031164E-009  0.4778727E+02  0.7816164E-02  0.1312668E+00
        -11   -1    0    0    0    0  0.00000000000E+00  0.00000000000E+00  0.45593999997E+02  0.45594000000E+02  0.51100000000E-03 0.  1.
         11   -1    0    0    0    0 -0.00000000000E+00 -0.00000000000E+00 -0.45593999997E+02  0.45594000000E+02  0.51100000000E-03 0. -1.
    9900012    2    1    2    0    0  0.14326046374E+02 -0.36629545016E+02  0.18348405909E+02  0.47787272216E+02  0.20000005341E+02 0.  0.
         12    1    1    2    0    0 -0.14326046374E+02  0.36629545016E+02 -0.18348405909E+02  0.43400727784E+02  0.00000000000E+00 0. -1.
         11    1    3    3    0    0  0.33682041237E+01 -0.61241185806E+01 -0.15650039447E+01  0.71623225993E+01  0.51100000000E-03 0. -1.
        -11    1    3    3    0    0  0.24073558124E+01 -0.15852137622E+02  0.17075908704E+02  0.23423754770E+02  0.51100000000E-03 0.  1.
        -12    1    3    3    0    0  0.85504864376E+01 -0.14653288813E+02  0.28375011491E+01  0.17201194846E+02  0.00000000000E+00 0.  1.
</event>
<event>
 7    1  0.5031164E-009  0.4778728E+02  0.7816164E-02  0.1312668E+00
        -11   -1    0    0    0    0  0.00000000000E+00  0.00000000000E+00  0.45593999997E+02  0.45594000000E+02  0.51100000000E-03 0. -1.
         11   -1    0    0    0    0 -0.00000000000E+00 -0.00000000000E+00 -0.45593999997E+02  0.45594000000E+02  0.51100000000E-03 0.  1.
    9900012    2    1    2    0    0 -0.56829156444E+01 -0.48421266857E+01 -0.42753722045E+02  0.47787280308E+02  0.20000042237E+02 0.  0.
         12    1    1    2    0    0  0.56829156444E+01  0.48421266857E+01  0.42753722045E+02  0.43400719692E+02  0.00000000000E+00 0. -1.
         11    1    3    3    0    0 -0.19324991133E+01  0.13716478170E+01 -0.33465769857E+02  0.33549571129E+02  0.51100000000E-03 0. -1.
        -11    1    3    3    0    0 -0.71622407765E+00 -0.74376777654E+01 -0.70564157194E+01  0.10277403881E+02  0.51100000000E-03 0.  1.
         12    1    3    3    0    0 -0.30341924535E+01  0.12239032627E+01 -0.22315364685E+01  0.39603052978E+01  0.00000000000E+00 0. -1.
</event>
<event>
 7    1  0.5031164E-009  0.4778727E+02  0.7816164E-02  0.1312668E+00
        -11   -1    0    0    0    0  0.00000000000E+00  0.00000000000E+00  0.45593999997E+02  0.45594000000E+02  0.51100000000E-03 0. -1.
         11   -1    0    0    0    0 -0.00000000000E+00 -0.00000000000E+00 -0.45593999997E+02  0.45594000000E+02  0.51100000000E-03 0.  1.
    9900012    2    1    2    0    0 -0.29217619294E+02 -0.17877470903E+02 -0.26652392372E+02  0.47787271179E+02  0.20000000613E+02 0.  0.
         12    1    1    2    0    0  0.29217619294E+02  0.17877470903E+02  0.26652392372E+02  0.43400728821E+02  0.00000000000E+00 0. -1.
         11    1    3    3    0    0 -0.13497645578E+02 -0.16075654348E+02 -0.12922145687E+02  0.24649441135E+02  0.51100000000E-03 0. -1.
        -11    1    3    3    0    0 -0.27878714386E+01  0.72756756914E+00 -0.84750421268E+01  0.89514200571E+01  0.51100000000E-03 0.  1.
         12    1    3    3    0    0 -0.12932102278E+02 -0.25293841242E+01 -0.52552045575E+01  0.14186409987E+02  0.00000000000E+00 0. -1.
</event>
<event>
 7    1  0.5031164E-009  0.4778727E+02  0.7816164E-02  0.1312668E+00
        -11   -1    0    0    0    0  0.00000000000E+00  0.00000000000E+00  0.45593999997E+02  0.45594000000E+02  0.51100000000E-03 0.  1.
         11   -1    0    0    0    0 -0.00000000000E+00 -0.00000000000E+00 -0.45593999997E+02  0.45594000000E+02  0.51100000000E-03 0. -1.
    9900012    2    1    2    0    0  0.33435141053E+02 -0.54679021233E+01  0.27125948586E+02  0.47787266164E+02  0.19999977748E+02 0.  0.
         12    1    1    2    0    0 -0.33435141053E+02  0.54679021233E+01 -0.27125948586E+02  0.43400733836E+02  0.00000000000E+00 0. -1.
         11    1    3    3    0    0 -0.93344140970E+00 -0.30648149373E+01  0.77945627406E+00  0.32972648983E+01  0.51100000000E-03 0. -1.
        -11    1    3    3    0    0  0.16753897242E+02 -0.25851099314E+01  0.18833255244E+02  0.25339048315E+02  0.51100000000E-03 0.  1.
        -12    1    3    3    0    0  0.17614685220E+02  0.18202274548E+00  0.75132370676E+01  0.19150952951E+02  0.00000000000E+00 0.  1.
</event>
<event>
 7    1  0.5031164E-009  0.4778727E+02  0.7816164E-02  0.1312668E+00
        -11   -1    0    0    0    0  0.00000000000E+00  0.00000000000E+00  0.45593999997E+02  0.45594000000E+02  0.51100000000E-03 0. -1.
         11   -1    0    0    0    0 -0.00000000000E+00 -0.00000000000E+00 -0.45593999997E+02  0.45594000000E+02  0.51100000000E-03 0.  1.
    9900012    2    1    2    0    0 -0.24929847816E+02  0.28883747159E+02 -0.20684657209E+02  0.47787271827E+02  0.20000003570E+02 0.  0.
         12    1    1    2    0    0  0.24929847816E+02 -0.28883747159E+02  0.20684657209E+02  0.43400728173E+02  0.00000000000E+00 0. -1.
         11    1    3    3    0    0 -0.14009824770E+02  0.16488781626E+02 -0.57840236631E+01  0.22396652420E+02  0.51100000000E-03 0. -1.
        -11    1    3    3    0    0 -0.65430148566E+01 -0.27437639085E+00 -0.79229675320E+01  0.10279092401E+02  0.51100000000E-03 0.  1.
         12    1    3    3    0    0 -0.43770081888E+01  0.12669341924E+02 -0.69776660136E+01  0.15111527006E+02  0.00000000000E+00 0. -1.
</event>
<event>
 7    1  0.5031164E-009  0.4778727E+02  0.7816164E-02  0.1312668E+00
        -11   -1    0    0    0    0  0.00000000000E+00  0.00000000000E+00  0.45593999997E+02  0.45594000000E+02  0.51100000000E-03 0.  1.
         11   -1    0    0    0    0 -0.00000000000E+00 -0.00000000000E+00 -0.45593999997E+02  0.45594000000E+02  0.51100000000E-03 0. -1.
    9900012    2    1    2    0    0  0.28455618149E+02 -0.23496447699E+02  0.22843339888E+02  0.47787269178E+02  0.19999991488E+02 0.  0.
         12    1    1    2    0    0 -0.28455618149E+02  0.23496447699E+02 -0.22843339888E+02  0.43400730822E+02  0.00000000000E+00 0. -1.
         11    1    3    3    0    0  0.24808070801E+02 -0.84830252540E+01  0.12067333612E+02  0.28862131507E+02  0.51100000000E-03 0.  1.
        -11    1    3    3    0    0  0.66731510217E+00 -0.63690899654E+01  0.41060674760E+01  0.76072601383E+01  0.51100000000E-03 0. -1.
         12    1    3    3    0    0  0.29802322452E+01 -0.86443324790E+01  0.66699388000E+01  0.11317877532E+02  0.00000000000E+00 0. -1.
</event>
<event>
 7    1  0.5031164E-009  0.4778727E+02  0.7816164E-02  0.1312668E+00
        -11   -1    0    0    0    0  0.00000000000E+00  0.00000000000E+00  0.45593999997E+02  0.45594000000E+02  0.51100000000E-03 0.  1.
         11   -1    0    0    0    0 -0.00000000000E+00 -0.00000000000E+00 -0.45593999997E+02  0.45594000000E+02  0.51100000000E-03 0. -1.
    9900012    2    1    2    0    0 -0.32216745445E+02  0.26950884684E+02  0.10924935901E+02  0.47787273085E+02  0.20000009305E+02 0.  0.
         12    1    1    2    0    0  0.32216745445E+02 -0.26950884684E+02 -0.10924935901E+02  0.43400726915E+02  0.00000000000E+00 0. -1.
         11    1    3    3    0    0 -0.90475805948E+01  0.15852055959E+02  0.56484714491E+01  0.19106324155E+02  0.51100000000E-03 0. -1.
        -11    1    3    3    0    0 -0.84656929002E+01  0.10480519505E+02  0.27091299281E+01  0.13742220730E+02  0.51100000000E-03 0.  1.
         12    1    3    3    0    0 -0.14703471950E+02  0.61830921981E+00  0.25673345238E+01  0.14938728200E+02  0.00000000000E+00 0. -1.
</event>
<event>
 7    1  0.5031164E-009  0.4778727E+02  0.7816164E-02  0.1312668E+00
        -11   -1    0    0    0    0  0.00000000000E+00  0.00000000000E+00  0.45593999997E+02  0.45594000000E+02  0.51100000000E-03 0.  1.
         11   -1    0    0    0    0 -0.00000000000E+00 -0.00000000000E+00 -0.45593999997E+02  0.45594000000E+02  0.51100000000E-03 0. -1.
    9900012    2    1    2    0    0  0.23229266170E+02  0.33160318681E+02  0.15633858393E+02  0.47787273392E+02  0.20000010705E+02 0.  0.
         12    1    1    2    0    0 -0.23229266170E+02 -0.33160318681E+02 -0.15633858393E+02  0.43400726608E+02  0.00000000000E+00 0. -1.
         11    1    3    3    0    0  0.49356441686E+01  0.28637981638E+01  0.64035233642E+01  0.85771227704E+01  0.51100000000E-03 0. -1.
        -11    1    3    3    0    0  0.19652734944E+02  0.30895447117E+02  0.87273924084E+01  0.37642077810E+02  0.51100000000E-03 0.  1.
        -12    1    3    3    0    0 -0.13591129428E+01 -0.59892659996E+00  0.50294262034E+00  0.15680728117E+01  0.00000000000E+00 0.  1.
</event>
<event>
 7    1  0.5031164E-009  0.4778727E+02  0.7816164E-02  0.1312668E+00
        -11   -1    0    0    0    0  0.00000000000E+00  0.00000000000E+00  0.45593999997E+02  0.45594000000E+02  0.51100000000E-03 0. -1.
         11   -1    0    0    0    0 -0.00000000000E+00 -0.00000000000E+00 -0.45593999997E+02  0.45594000000E+02  0.51100000000E-03 0.  1.
    9900012    2    1    2    0    0 -0.35093705013E+02  0.24698697389E+02 -0.64830193678E+01  0.47787270463E+02  0.19999997347E+02 0.  0.
         12    1    1    2    0    0  0.35093705013E+02 -0.24698697389E+02  0.64830193678E+01  0.43400729537E+02  0.00000000000E+00 0. -1.
         11    1    3    3    0    0 -0.48958802195E+01  0.11149731419E+02 -0.79269121080E+00  0.12203053448E+02  0.51100000000E-03 0. -1.
        -11    1    3    3    0    0 -0.22308330716E+02  0.41961903907E+01 -0.54559136624E+01  0.23346019517E+02  0.51100000000E-03 0.  1.
        -12    1    3    3    0    0 -0.78894940773E+01  0.93527755794E+01 -0.23441449465E+00  0.12238197498E+02  0.00000000000E+00 0.  1.
</event>
<event>
 7    1  0.5031164E-009  0.4778727E+02  0.7816164E-02  0.1312668E+00
        -11   -1    0    0    0    0  0.00000000000E+00  0.00000000000E+00  0.45593999997E+02  0.45594000000E+02  0.51100000000E-03 0.  1.
         11   -1    0    0    0    0 -0.00000000000E+00 -0.00000000000E+00 -0.45593999997E+02  0.45594000000E+02  0.51100000000E-03 0. -1.
    9900012    2    1    2    0    0 -0.40919884959E+02  0.59478674710E+01  0.13183669755E+02  0.47787271196E+02  0.20000000690E+02 0.  0.
         12    1    1    2    0    0  0.40919884959E+02 -0.59478674710E+01 -0.13183669755E+02  0.43400728804E+02  0.00000000000E+00 0. -1.
         11    1    3    3    0    0 -0.24061394906E+01  0.41253049294E+01 -0.13653839883E+01  0.49670838231E+01  0.51100000000E-03 0. -1.
        -11    1    3    3    0    0 -0.30336296321E+02  0.47727133852E+01  0.74592564805E+01  0.31602376098E+02  0.51100000000E-03 0.  1.
         12    1    3    3    0    0 -0.81774491474E+01 -0.29501508436E+01  0.70897972631E+01  0.11217811275E+02  0.00000000000E+00 0. -1.
</event>
<event>
 7    1  0.5031164E-009  0.4778727E+02  0.7816164E-02  0.1312668E+00
        -11   -1    0    0    0    0  0.00000000000E+00  0.00000000000E+00  0.45593999997E+02  0.45594000000E+02  0.51100000000E-03 0. -1.
         11   -1    0    0    0    0 -0.00000000000E+00 -0.00000000000E+00 -0.45593999997E+02  0.45594000000E+02  0.51100000000E-03 0.  1.
    9900012    2    1    2    0    0 -0.12399008439E+02  0.24259759707E+02 -0.33783899615E+02  0.47787271613E+02  0.20000002594E+02 0.  0.
         12    1    1    2    0    0  0.12399008439E+02 -0.24259759707E+02  0.33783899615E+02  0.43400728387E+02  0.00000000000E+00 0. -1.
         11    1    3    3    0    0  0.38716024489E+01  0.35709641380E+01 -0.32503227285E+01  0.61891589492E+01  0.51100000000E-03 0. -1.
        -11    1    3    3    0    0 -0.17249710683E+02  0.18736379744E+02 -0.29995054030E+02  0.39348541410E+02  0.51100000000E-03 0.  1.
        -12    1    3    3    0    0  0.97909979507E+00  0.19524158248E+01 -0.53852285625E+00  0.22495712544E+01  0.00000000000E+00 0.  1.
</event>
<event>
 7    1  0.5031164E-009  0.4778727E+02  0.7816164E-02  0.1312668E+00
        -11   -1    0    0    0    0  0.00000000000E+00  0.00000000000E+00  0.45593999997E+02  0.45594000000E+02  0.51100000000E-03 0. -1.
         11   -1    0    0    0    0 -0.00000000000E+00 -0.00000000000E+00 -0.45593999997E+02  0.45594000000E+02  0.51100000000E-03 0.  1.
    9900012    2    1    2    0    0 -0.24999343535E+02  0.32032989976E+02 -0.15249379413E+02  0.47787271936E+02  0.20000004067E+02 0.  0.
         12    1    1    2    0    0  0.24999343535E+02 -0.32032989976E+02  0.15249379413E+02  0.43400728064E+02  0.00000000000E+00 0. -1.
         11    1    3    3    0    0 -0.15795256427E+02  0.28114749083E+02 -0.91078228550E+01  0.33509426719E+02  0.51100000000E-03 0. -1.
        -11    1    3    3    0    0 -0.10152105483E+02  0.51106534434E+01 -0.53901740775E+01  0.12579268707E+02  0.51100000000E-03 0.  1.
         12    1    3    3    0    0  0.94801837464E+00 -0.11924125510E+01 -0.75138248056E+00  0.16985765106E+01  0.00000000000E+00 0. -1.
</event>
<event>
 7    1  0.5031164E-009  0.4778727E+02  0.7816164E-02  0.1312668E+00
        -11   -1    0    0    0    0  0.00000000000E+00  0.00000000000E+00  0.45593999997E+02  0.45594000000E+02  0.51100000000E-03 0.  1.
         11   -1    0    0    0    0 -0.00000000000E+00 -0.00000000000E+00 -0.45593999997E+02  0.45594000000E+02  0.51100000000E-03 0. -1.
    9900012    2    1    2    0    0 -0.99847135573E+01 -0.48113959896E+01  0.41961636792E+02  0.47787274218E+02  0.20000014469E+02 0.  0.
         12    1    1    2    0    0  0.99847135573E+01  0.48113959896E+01 -0.41961636792E+02  0.43400725782E+02  0.00000000000E+00 0. -1.
         11    1    3    3    0    0 -0.75723769801E+01 -0.10489476715E+02  0.19698171653E+02  0.23566670991E+02  0.51100000000E-03 0. -1.
        -11    1    3    3    0    0 -0.44196950128E+01  0.34965705468E+01  0.18970061414E+02  0.19789465377E+02  0.51100000000E-03 0.  1.
         12    1    3    3    0    0  0.20073584357E+01  0.21815101785E+01  0.32934037242E+01  0.44311378492E+01  0.00000000000E+00 0. -1.
</event>
<event>
 7    1  0.5031164E-009  0.4778726E+02  0.7816164E-02  0.1312668E+00
        -11   -1    0    0    0    0  0.00000000000E+00  0.00000000000E+00  0.45593999997E+02  0.45594000000E+02  0.51100000000E-03 0.  1.
         11   -1    0    0    0    0 -0.00000000000E+00 -0.00000000000E+00 -0.45593999997E+02  0.45594000000E+02  0.51100000000E-03 0. -1.
    9900012    2    1    2    0    0 -0.40144521036E+02  0.92643290955E+01  0.13646011719E+02  0.47787262695E+02  0.19999961931E+02 0.  0.
         12    1    1    2    0    0  0.40144521036E+02 -0.92643290955E+01 -0.13646011719E+02  0.43400737305E+02  0.00000000000E+00 0. -1.
         11    1    3    3    0    0 -0.70680479194E+01  0.29749316292E+01  0.46501260985E+01  0.89683439152E+01  0.51100000000E-03 0.  1.
        -11    1    3    3    0    0 -0.39982573478E+00 -0.23366765801E+01 -0.21823646204E+01  0.32222094370E+01  0.51100000000E-03 0. -1.
        -12    1    3    3    0    0 -0.32676647382E+02  0.86260740464E+01  0.11178250241E+02  0.35596709343E+02  0.00000000000E+00 0.  1.
</event>
<event>
 7    1  0.5031164E-009  0.4778728E+02  0.7816164E-02  0.1312668E+00
        -11   -1    0    0    0    0  0.00000000000E+00  0.00000000000E+00  0.45593999997E+02  0.45594000000E+02  0.51100000000E-03 0.  1.
         11   -1    0    0    0    0 -0.00000000000E+00 -0.00000000000E+00 -0.45593999997E+02  0.45594000000E+02  0.51100000000E-03 0. -1.
    9900012    2    1    2    0    0 -0.66235919273E+01 -0.13664535932E+02  0.40657483496E+02  0.47787280231E+02  0.20000041885E+02 0.  0.
         12    1    1    2    0    0  0.66235919273E+01  0.13664535932E+02 -0.40657483496E+02  0.43400719769E+02  0.00000000000E+00 0. -1.
         11    1    3    3    0    0  0.33142023476E+01 -0.59784551302E+01  0.52805270823E+01  0.86376981582E+01  0.51100000000E-03 0. -1.
        -11    1    3    3    0    0 -0.72800394503E+01 -0.58520509428E+01  0.34585861087E+02  0.35824953064E+02  0.51100000000E-03 0.  1.
        -12    1    3    3    0    0 -0.26577548246E+01 -0.18340298587E+01  0.79109532665E+00  0.33246290088E+01  0.00000000000E+00 0.  1.
</event>
<event>
 7    1  0.5031164E-009  0.4778727E+02  0.7816164E-02  0.1312668E+00
        -11   -1    0    0    0    0  0.00000000000E+00  0.00000000000E+00  0.45593999997E+02  0.45594000000E+02  0.51100000000E-03 0. -1.
         11   -1    0    0    0    0 -0.00000000000E+00 -0.00000000000E+00 -0.45593999997E+02  0.45594000000E+02  0.51100000000E-03 0.  1.
    9900012    2    1    2    0    0 -0.19582845090E+02  0.31392548371E+02  0.22685757072E+02  0.47787268566E+02  0.19999988701E+02 0.  0.
         12    1    1    2    0    0  0.19582845090E+02 -0.31392548371E+02 -0.22685757072E+02  0.43400731434E+02  0.00000000000E+00 0. -1.
         11    1    3    3    0    0 -0.39299423319E+01  0.14738348046E+02  0.91652888621E+01  0.17795108037E+02  0.51100000000E-03 0. -1.
        -11    1    3    3    0    0 -0.86683339683E+00 -0.17942810075E+01  0.40682310253E+01  0.45300494929E+01  0.51100000000E-03 0.  1.
        -12    1    3    3    0    0 -0.14786069361E+02  0.18448481332E+02  0.94522371844E+01  0.25462111036E+02  0.00000000000E+00 0.  1.
</event>
<event>
 7    1  0.5031164E-009  0.4778728E+02  0.7816164E-02  0.1312668E+00
        -11   -1    0    0    0    0  0.00000000000E+00  0.00000000000E+00  0.45593999997E+02  0.45594000000E+02  0.51100000000E-03 0. -1.
         11   -1    0    0    0    0 -0.00000000000E+00 -0.00000000000E+00 -0.45593999997E+02  0.45594000000E+02  0.51100000000E-03 0.  1.
    9900012    2    1    2    0    0 -0.17269005999E+02 -0.47143693696E+01 -0.39537059391E+02  0.47787275213E+02  0.20000019008E+02 0.  0.
         12    1    1    2    0    0  0.17269005999E+02  0.47143693696E+01  0.39537059391E+02  0.43400724787E+02  0.00000000000E+00 0. -1.
         11    1    3    3    0    0 -0.12420424370E+01 -0.20235455820E+01 -0.19124996375E+01  0.30487802909E+01  0.51100000000E-03 0. -1.
        -11    1    3    3    0    0 -0.10705215258E+01  0.77725147458E+00  0.19122528359E+01  0.23252628586E+01  0.51100000000E-03 0.  1.
        -12    1    3    3    0    0 -0.14956442036E+02 -0.34680752623E+01 -0.39536812589E+02  0.42413232064E+02  0.00000000000E+00 0.  1.
</event>
<event>
 7    1  0.5031164E-009  0.4778727E+02  0.7816164E-02  0.1312668E+00
        -11   -1    0    0    0    0  0.00000000000E+00  0.00000000000E+00  0.45593999997E+02  0.45594000000E+02  0.51100000000E-03 0.  1.
         11   -1    0    0    0    0 -0.00000000000E+00 -0.00000000000E+00 -0.45593999997E+02  0.45594000000E+02  0.51100000000E-03 0. -1.
    9900012    2    1    2    0    0 -0.30099636144E+02  0.57051428403E-01  0.31267106751E+02  0.47787270565E+02  0.19999997816E+02 0.  0.
         12    1    1    2    0    0  0.30099636144E+02 -0.57051428403E-01 -0.31267106751E+02  0.43400729435E+02  0.00000000000E+00 0. -1.
         11    1    3    3    0    0 -0.18792277720E+02  0.27608917938E+01  0.86507663716E+01  0.20871223838E+02  0.51100000000E-03 0.  1.
        -11    1    3    3    0    0 -0.10048044127E+02 -0.52165957530E+01  0.20421983153E+02  0.23350234650E+02  0.51100000000E-03 0. -1.
        -12    1    3    3    0    0 -0.12593142957E+01  0.25127553875E+01  0.21943572264E+01  0.35658120772E+01  0.00000000000E+00 0.  1.
</event>
<event>
 7    1  0.5031164E-009  0.4778727E+02  0.7816164E-02  0.1312668E+00
        -11   -1    0    0    0    0  0.00000000000E+00  0.00000000000E+00  0.45593999997E+02  0.45594000000E+02  0.51100000000E-03 0.  1.
         11   -1    0    0    0    0 -0.00000000000E+00 -0.00000000000E+00 -0.45593999997E+02  0.45594000000E+02  0.51100000000E-03 0. -1.
    9900012    2    1    2    0    0 -0.93468886025E+01 -0.38426640750E+02  0.17878828101E+02  0.47787267977E+02  0.19999986016E+02 0.  0.
         12    1    1    2    0    0  0.93468886025E+01  0.38426640750E+02 -0.17878828101E+02  0.43400732023E+02  0.00000000000E+00 0. -1.
         11    1    3    3    0    0 -0.38974840649E+00  0.86817033133E+00 -0.12740421216E+01  0.15902223534E+01  0.51100000000E-03 0. -1.
        -11    1    3    3    0    0 -0.75570315808E+01 -0.39758803441E+02  0.17862606463E+02  0.44237358502E+02  0.51100000000E-03 0.  1.
        -12    1    3    3    0    0 -0.14001086152E+01  0.46399235990E+00  0.12902637599E+01  0.19596871216E+01  0.00000000000E+00 0.  1.
</event>
<event>
 7    1  0.5031164E-009  0.4778727E+02  0.7816164E-02  0.1312668E+00
        -11   -1    0    0    0    0  0.00000000000E+00  0.00000000000E+00  0.45593999997E+02  0.45594000000E+02  0.51100000000E-03 0.  1.
         11   -1    0    0    0    0 -0.00000000000E+00 -0.00000000000E+00 -0.45593999997E+02  0.45594000000E+02  0.51100000000E-03 0. -1.
    9900012    2    1    2    0    0  0.34797021062E+01 -0.33289558642E+02  0.27628251219E+02  0.47787270665E+02  0.19999998272E+02 0.  0.
         12    1    1    2    0    0 -0.34797021062E+01  0.33289558642E+02 -0.27628251219E+02  0.43400729335E+02  0.00000000000E+00 0. -1.
         11    1    3    3    0    0  0.28468227231E+01  0.39303255122E+00 -0.27826700472E+00  0.28872663525E+01  0.51100000000E-03 0. -1.
        -11    1    3    3    0    0 -0.45278422105E+01 -0.20914912309E+02  0.17298298323E+02  0.27516650179E+02  0.51100000000E-03 0.  1.
        -12    1    3    3    0    0  0.51607215935E+01 -0.12767678885E+02  0.10608219901E+02  0.17383354134E+02  0.00000000000E+00 0.  1.
</event>
<event>
 7    1  0.5031164E-009  0.4778727E+02  0.7816164E-02  0.1312668E+00
        -11   -1    0    0    0    0  0.00000000000E+00  0.00000000000E+00  0.45593999997E+02  0.45594000000E+02  0.51100000000E-03 0.  1.
         11   -1    0    0    0    0 -0.00000000000E+00 -0.00000000000E+00 -0.45593999997E+02  0.45594000000E+02  0.51100000000E-03 0. -1.
    9900012    2    1    2    0    0 -0.86021482931E+00 -0.36695719746E+02  0.23158313142E+02  0.47787270918E+02  0.19999999423E+02 0.  0.
         12    1    1    2    0    0  0.86021482931E+00  0.36695719746E+02 -0.23158313142E+02  0.43400729082E+02  0.00000000000E+00 0. -1.
         11    1    3    3    0    0  0.66577464938E+01 -0.21290772465E+02  0.17821430518E+02  0.28552162204E+02  0.51100000000E-03 0. -1.
        -11    1    3    3    0    0 -0.35122161829E+01 -0.13634247024E+02  0.36782699284E+01  0.14551907928E+02  0.51100000000E-03 0.  1.
         12    1    3    3    0    0 -0.40057451402E+01 -0.17707002582E+01  0.16586126955E+01  0.46832007865E+01  0.00000000000E+00 0. -1.
</event>
<event>
 7    1  0.5031164E-009  0.4778727E+02  0.7816164E-02  0.1312668E+00
        -11   -1    0    0    0    0  0.00000000000E+00  0.00000000000E+00  0.45593999997E+02  0.45594000000E+02  0.51100000000E-03 0.  1.
         11   -1    0    0    0    0 -0.00000000000E+00 -0.00000000000E+00 -0.45593999997E+02  0.45594000000E+02  0.51100000000E-03 0. -1.
    9900012    2    1    2    0    0 -0.28606736711E+02  0.32384058884E+02 -0.40682489604E+01  0.47787270690E+02  0.19999998384E+02 0.  0.
         12    1    1    2    0    0  0.28606736711E+02 -0.32384058884E+02  0.40682489604E+01  0.43400729310E+02  0.00000000000E+00 0. -1.
         11    1    3    3    0    0  0.39104577617E+00 -0.70308563976E+00  0.18106605462E+01  0.19813475442E+01  0.51100000000E-03 0. -1.
        -11    1    3    3    0    0 -0.22197865995E+02  0.24053056079E+02 -0.92396907550E+01  0.34009802219E+02  0.51100000000E-03 0.  1.
        -12    1    3    3    0    0 -0.67999164915E+01  0.90340884447E+01  0.33607812483E+01  0.11796120927E+02  0.00000000000E+00 0.  1.
</event>
<event>
 7    1  0.5031164E-009  0.4778727E+02  0.7816164E-02  0.1312668E+00
        -11   -1    0    0    0    0  0.00000000000E+00  0.00000000000E+00  0.45593999997E+02  0.45594000000E+02  0.51100000000E-03 0. -1.
         11   -1    0    0    0    0 -0.00000000000E+00 -0.00000000000E+00 -0.45593999997E+02  0.45594000000E+02  0.51100000000E-03 0.  1.
    9900012    2    1    2    0    0  0.16619651756E+02  0.14807012083E+02 -0.37258057898E+02  0.47787270632E+02  0.19999998121E+02 0.  0.
         12    1    1    2    0    0 -0.16619651756E+02 -0.14807012083E+02  0.37258057898E+02  0.43400729368E+02  0.00000000000E+00 0. -1.
         11    1    3    3    0    0 -0.12492764861E+01 -0.22310904844E+01 -0.10452788907E+02  0.10761006118E+02  0.51100000000E-03 0. -1.
        -11    1    3    3    0    0  0.12740258939E+02  0.10674142729E+02 -0.13507001041E+02  0.21417063249E+02  0.51100000000E-03 0.  1.
         12    1    3    3    0    0  0.51286693027E+01  0.63639598380E+01 -0.13298267951E+02  0.15609201265E+02  0.00000000000E+00 0. -1.
</event>
<event>
 7    1  0.5031164E-009  0.4778728E+02  0.7816164E-02  0.1312668E+00
        -11   -1    0    0    0    0  0.00000000000E+00  0.00000000000E+00  0.45593999997E+02  0.45594000000E+02  0.51100000000E-03 0. -1.
         11   -1    0    0    0    0 -0.00000000000E+00 -0.00000000000E+00 -0.45593999997E+02  0.45594000000E+02  0.51100000000E-03 0.  1.
    9900012    2    1    2    0    0 -0.24436278179E+01  0.42839879459E+02  0.65112345147E+01  0.47787276920E+02  0.20000026790E+02 0.  0.
         12    1    1    2    0    0  0.24436278179E+01 -0.42839879459E+02 -0.65112345147E+01  0.43400723080E+02  0.00000000000E+00 0. -1.
         11    1    3    3    0    0 -0.91399079245E+01  0.27318975196E+02  0.34737782060E+01  0.29016055175E+02  0.51100000000E-03 0. -1.
        -11    1    3    3    0    0  0.53624528621E+01  0.10923395887E+02 -0.13935294159E+01  0.12248199986E+02  0.51100000000E-03 0.  1.
         12    1    3    3    0    0  0.13338272444E+01  0.45975083760E+01  0.44309857247E+01  0.65230217597E+01  0.00000000000E+00 0. -1.
</event>
<event>
 7    1  0.5031164E-009  0.4778727E+02  0.7816164E-02  0.1312668E+00
        -11   -1    0    0    0    0  0.00000000000E+00  0.00000000000E+00  0.45593999997E+02  0.45594000000E+02  0.51100000000E-03 0.  1.
         11   -1    0    0    0    0 -0.00000000000E+00 -0.00000000000E+00 -0.45593999997E+02  0.45594000000E+02  0.51100000000E-03 0. -1.
    9900012    2    1    2    0    0 -0.28181105219E+02 -0.65038027987E+01  0.32359681015E+02  0.47787273075E+02  0.20000009259E+02 0.  0.
         12    1    1    2    0    0  0.28181105219E+02  0.65038027987E+01 -0.32359681015E+02  0.43400726925E+02  0.00000000000E+00 0. -1.
         11    1    3    3    0    0 -0.12684821204E+01 -0.17296117348E+01 -0.21865116011E+01  0.30629131372E+01  0.51100000000E-03 0. -1.
        -11    1    3    3    0    0 -0.89074870937E+01 -0.39365606538E+01  0.78277783108E+01  0.12494556801E+02  0.51100000000E-03 0.  1.
         12    1    3    3    0    0 -0.18005136005E+02 -0.83763041020E+00  0.26718414305E+02  0.32229803137E+02  0.00000000000E+00 0. -1.
</event>
<event>
 7    1  0.5031164E-009  0.4778728E+02  0.7816164E-02  0.1312668E+00
        -11   -1    0    0    0    0  0.00000000000E+00  0.00000000000E+00  0.45593999997E+02  0.45594000000E+02  0.51100000000E-03 0.  1.
         11   -1    0    0    0    0 -0.00000000000E+00 -0.00000000000E+00 -0.45593999997E+02  0.45594000000E+02  0.51100000000E-03 0. -1.
    9900012    2    1    2    0    0 -0.16863077678E+02 -0.22769220358E+02  0.32875858544E+02  0.47787275819E+02  0.20000021768E+02 0.  0.
         12    1    1    2    0    0  0.16863077678E+02  0.22769220358E+02 -0.32875858544E+02  0.43400724181E+02  0.00000000000E+00 0. -1.
         11    1    3    3    0    0 -0.98007755894E+01 -0.61827339977E+01  0.80097593841E+01  0.14086789822E+02  0.51100000000E-03 0. -1.
        -11    1    3    3    0    0  0.30429829535E+01 -0.23340722785E+01  0.10173782084E+02  0.10872602302E+02  0.51100000000E-03 0.  1.
        -12    1    3    3    0    0 -0.10105285042E+02 -0.14252414082E+02  0.14692317076E+02  0.22827883695E+02  0.00000000000E+00 0.  1.
</event>
<event>
 7    1  0.5031164E-009  0.4778727E+02  0.7816164E-02  0.1312668E+00
        -11   -1    0    0    0    0  0.00000000000E+00  0.00000000000E+00  0.45593999997E+02  0.45594000000E+02  0.51100000000E-03 0. -1.
         11   -1    0    0    0    0 -0.00000000000E+00 -0.00000000000E+00 -0.45593999997E+02  0.45594000000E+02  0.51100000000E-03 0.  1.
    9900012    2    1    2    0    0 -0.23642968096E+02 -0.46194424508E+01 -0.36101171359E+02  0.47787265416E+02  0.19999974338E+02 0.  0.
         12    1    1    2    0    0  0.23642968096E+02  0.46194424508E+01  0.36101171359E+02  0.43400734584E+02  0.00000000000E+00 0. -1.
         11    1    3    3    0    0 -0.12355504210E+02  0.44761808401E+01 -0.77615905771E+01  0.15262272693E+02  0.51100000000E-03 0. -1.
        -11    1    3    3    0    0 -0.12034085886E+02 -0.92333206900E+01 -0.26483726972E+02  0.30519849748E+02  0.51100000000E-03 0.  1.
        -12    1    3    3    0    0  0.74662200073E+00  0.13769739904E+00 -0.18558538102E+01  0.20051429751E+01  0.00000000000E+00 0.  1.
</event>
<event>
 7    1  0.5031164E-009  0.4778727E+02  0.7816164E-02  0.1312668E+00
        -11   -1    0    0    0    0  0.00000000000E+00  0.00000000000E+00  0.45593999997E+02  0.45594000000E+02  0.51100000000E-03 0.  1.
         11   -1    0    0    0    0 -0.00000000000E+00 -0.00000000000E+00 -0.45593999997E+02  0.45594000000E+02  0.51100000000E-03 0. -1.
    9900012    2    1    2    0    0  0.97835084247E+01  0.39542519222E+02 -0.14976497687E+02  0.47787270208E+02  0.19999996188E+02 0.  0.
         12    1    1    2    0    0 -0.97835084247E+01 -0.39542519222E+02  0.14976497687E+02  0.43400729792E+02  0.00000000000E+00 0. -1.
         11    1    3    3    0    0  0.26151841013E+01  0.14235357761E+02 -0.13934256027E+02  0.20090995241E+02  0.51100000000E-03 0. -1.
        -11    1    3    3    0    0  0.81184557618E-01  0.15272544192E+02  0.69763975088E+00  0.15288685310E+02  0.51100000000E-03 0.  1.
         12    1    3    3    0    0  0.70871397657E+01  0.10034617269E+02 -0.17398814103E+01  0.12407589658E+02  0.00000000000E+00 0. -1.
</event>
<event>
 7    1  0.5031164E-009  0.4778727E+02  0.7816164E-02  0.1312668E+00
        -11   -1    0    0    0    0  0.00000000000E+00  0.00000000000E+00  0.45593999997E+02  0.45594000000E+02  0.51100000000E-03 0. -1.
         11   -1    0    0    0    0 -0.00000000000E+00 -0.00000000000E+00 -0.45593999997E+02  0.45594000000E+02  0.51100000000E-03 0.  1.
    9900012    2    1    2    0    0 -0.29742162841E+02 -0.16728553565E+02 -0.26817576431E+02  0.47787272351E+02  0.20000005957E+02 0.  0.
         12    1    1    2    0    0  0.29742162841E+02  0.16728553565E+02  0.26817576431E+02  0.43400727649E+02  0.00000000000E+00 0. -1.
         11    1    3    3    0    0 -0.12227562749E+02 -0.76343322124E+01 -0.98687884773E+00  0.14448884013E+02  0.51100000000E-03 0. -1.
        -11    1    3    3    0    0 -0.17911740517E+02 -0.88141587061E+01 -0.22952067569E+02  0.30419027730E+02  0.51100000000E-03 0.  1.
         12    1    3    3    0    0  0.39714042491E+00 -0.28006264644E+00 -0.28786300136E+01  0.29193606078E+01  0.00000000000E+00 0. -1.
</event>
<event>
 7    1  0.5031164E-009  0.4778726E+02  0.7816164E-02  0.1312668E+00
        -11   -1    0    0    0    0  0.00000000000E+00  0.00000000000E+00  0.45593999997E+02  0.45594000000E+02  0.51100000000E-03 0.  1.
         11   -1    0    0    0    0 -0.00000000000E+00 -0.00000000000E+00 -0.45593999997E+02  0.45594000000E+02  0.51100000000E-03 0. -1.
    9900012    2    1    2    0    0 -0.15789149150E+02  0.56477781038E+01  0.40030360808E+02  0.47787257900E+02  0.19999940070E+02 0.  0.
         12    1    1    2    0    0  0.15789149150E+02 -0.56477781038E+01 -0.40030360808E+02  0.43400742100E+02  0.00000000000E+00 0. -1.
         11    1    3    3    0    0 -0.60705019283E+01 -0.42800008584E+01  0.12236666915E+02  0.14314517751E+02  0.51100000000E-03 0. -1.
        -11    1    3    3    0    0 -0.12753799925E+02  0.81369191592E+01  0.22637395785E+02  0.27227202466E+02  0.51100000000E-03 0.  1.
        -12    1    3    3    0    0  0.30351527035E+01  0.17908598030E+01  0.51562981084E+01  0.62455376830E+01  0.00000000000E+00 0.  1.
</event>
<event>
 7    1  0.5031164E-009  0.4778727E+02  0.7816164E-02  0.1312668E+00
        -11   -1    0    0    0    0  0.00000000000E+00  0.00000000000E+00  0.45593999997E+02  0.45594000000E+02  0.51100000000E-03 0.  1.
         11   -1    0    0    0    0 -0.00000000000E+00 -0.00000000000E+00 -0.45593999997E+02  0.45594000000E+02  0.51100000000E-03 0. -1.
    9900012    2    1    2    0    0  0.19081600851E+02  0.38162086137E+02 -0.79480199552E+01  0.47787270391E+02  0.19999997021E+02 0.  0.
         12    1    1    2    0    0 -0.19081600851E+02 -0.38162086137E+02  0.79480199552E+01  0.43400729609E+02  0.00000000000E+00 0. -1.
         11    1    3    3    0    0  0.19110813397E+02  0.20898404437E+02 -0.98053790234E+00  0.28335983335E+02  0.51100000000E-03 0. -1.
        -11    1    3    3    0    0 -0.25476024402E+01  0.10259188330E+02 -0.28650356346E+01  0.10952152885E+02  0.51100000000E-03 0.  1.
         12    1    3    3    0    0  0.25183898938E+01  0.70044933708E+01 -0.41024464183E+01  0.84991341708E+01  0.00000000000E+00 0. -1.
</event>
<event>
 7    1  0.5031164E-009  0.4778729E+02  0.7816164E-02  0.1312668E+00
        -11   -1    0    0    0    0  0.00000000000E+00  0.00000000000E+00  0.45593999997E+02  0.45594000000E+02  0.51100000000E-03 0.  1.
         11   -1    0    0    0    0 -0.00000000000E+00 -0.00000000000E+00 -0.45593999997E+02  0.45594000000E+02  0.51100000000E-03 0. -1.
    9900012    2    1    2    0    0  0.21822656747E+01 -0.13651433458E+02  0.41139978704E+02  0.47787288407E+02  0.20000079165E+02 0.  0.
         12    1    1    2    0    0 -0.21822656747E+01  0.13651433458E+02 -0.41139978704E+02  0.43400711593E+02  0.00000000000E+00 0. -1.
         11    1    3    3    0    0  0.32753563626E+01 -0.12859725808E+02  0.21090139207E+02  0.24917754297E+02  0.51100000000E-03 0. -1.
        -11    1    3    3    0    0  0.19964721666E+01  0.44713483411E+01  0.90928216834E+01  0.10327548767E+02  0.51100000000E-03 0.  1.
        -12    1    3    3    0    0 -0.30895628545E+01 -0.52630559911E+01  0.10957017814E+02  0.12541985344E+02  0.00000000000E+00 0.  1.
</event>
<event>
 7    1  0.5031164E-009  0.4778725E+02  0.7816164E-02  0.1312668E+00
        -11   -1    0    0    0    0  0.00000000000E+00  0.00000000000E+00  0.45593999997E+02  0.45594000000E+02  0.51100000000E-03 0.  1.
         11   -1    0    0    0    0 -0.00000000000E+00 -0.00000000000E+00 -0.45593999997E+02  0.45594000000E+02  0.51100000000E-03 0. -1.
    9900012    2    1    2    0    0 -0.20158602123E+02 -0.18032454002E+02  0.33942397784E+02  0.47787251110E+02  0.19999909111E+02 0.  0.
         12    1    1    2    0    0  0.20158602123E+02  0.18032454002E+02 -0.33942397784E+02  0.43400748890E+02  0.00000000000E+00 0. -1.
         11    1    3    3    0    0 -0.35987644248E+01 -0.14562657039E+01 -0.16239998932E+01  0.42082289743E+01  0.51100000000E-03 0. -1.
        -11    1    3    3    0    0 -0.95711366593E+01 -0.10424982696E+02  0.28736241416E+02  0.32032147791E+02  0.51100000000E-03 0.  1.
         12    1    3    3    0    0 -0.69887010390E+01 -0.61512056021E+01  0.68301562611E+01  0.11546874344E+02  0.00000000000E+00 0. -1.
</event>
<event>
 7    1  0.5031164E-009  0.4778727E+02  0.7816164E-02  0.1312668E+00
        -11   -1    0    0    0    0  0.00000000000E+00  0.00000000000E+00  0.45593999997E+02  0.45594000000E+02  0.51100000000E-03 0. -1.
         11   -1    0    0    0    0 -0.00000000000E+00 -0.00000000000E+00 -0.45593999997E+02  0.45594000000E+02  0.51100000000E-03 0.  1.
    9900012    2    1    2    0    0 -0.33166460451E+02 -0.18042982869E+02  0.21402335973E+02  0.47787270573E+02  0.19999997852E+02 0.  0.
         12    1    1    2    0    0  0.33166460451E+02  0.18042982869E+02 -0.21402335973E+02  0.43400729427E+02  0.00000000000E+00 0. -1.
         11    1    3    3    0    0 -0.13725018909E+02  0.16181154579E+01  0.71958444030E+01  0.15581226480E+02  0.51100000000E-03 0. -1.
        -11    1    3    3    0    0 -0.27716117542E+01 -0.57169316234E+01  0.21162576701E+00  0.63568801018E+01  0.51100000000E-03 0.  1.
         12    1    3    3    0    0 -0.16669829788E+02 -0.13944166704E+02  0.13994865803E+02  0.25849163992E+02  0.00000000000E+00 0. -1.
</event>
<event>
 7    1  0.5031164E-009  0.4778727E+02  0.7816164E-02  0.1312668E+00
        -11   -1    0    0    0    0  0.00000000000E+00  0.00000000000E+00  0.45593999997E+02  0.45594000000E+02  0.51100000000E-03 0.  1.
         11   -1    0    0    0    0 -0.00000000000E+00 -0.00000000000E+00 -0.45593999997E+02  0.45594000000E+02  0.51100000000E-03 0. -1.
    9900012    2    1    2    0    0  0.35716984259E+02  0.73944986130E+01  0.23521091396E+02  0.47787270573E+02  0.19999997852E+02 0.  0.
         12    1    1    2    0    0 -0.35716984259E+02 -0.73944986130E+01 -0.23521091396E+02  0.43400729427E+02  0.00000000000E+00 0. -1.
         11    1    3    3    0    0  0.32072718912E+02  0.75086500455E+01  0.16330836292E+02  0.36765953519E+02  0.51100000000E-03 0.  1.
        -11    1    3    3    0    0 -0.15904210497E+01  0.21220667152E+01  0.25205355709E+01  0.36586481225E+01  0.51100000000E-03 0. -1.
        -12    1    3    3    0    0  0.52346863968E+01 -0.22362181477E+01  0.46697195332E+01  0.73626689315E+01  0.00000000000E+00 0.  1.
</event>
<event>
 7    1  0.5031164E-009  0.4778727E+02  0.7816164E-02  0.1312668E+00
        -11   -1    0    0    0    0  0.00000000000E+00  0.00000000000E+00  0.45593999997E+02  0.45594000000E+02  0.51100000000E-03 0.  1.
         11   -1    0    0    0    0 -0.00000000000E+00 -0.00000000000E+00 -0.45593999997E+02  0.45594000000E+02  0.51100000000E-03 0. -1.
    9900012    2    1    2    0    0 -0.90755823291E+01  0.24275608510E+02  0.34813099072E+02  0.47787271548E+02  0.20000002296E+02 0.  0.
         12    1    1    2    0    0  0.90755823291E+01 -0.24275608510E+02 -0.34813099072E+02  0.43400728452E+02  0.00000000000E+00 0. -1.
         11    1    3    3    0    0  0.19964068949E+01 -0.10147727580E+01  0.74661385902E+01  0.77947822259E+01  0.51100000000E-03 0. -1.
        -11    1    3    3    0    0 -0.29578729902E+01  0.16544953129E+02  0.19350469833E+02  0.25630551490E+02  0.51100000000E-03 0.  1.
         12    1    3    3    0    0 -0.81141162339E+01  0.87454281394E+01  0.79964906492E+01  0.14361937832E+02  0.00000000000E+00 0. -1.
</event>
<event>
 7    1  0.5031164E-009  0.4778727E+02  0.7816164E-02  0.1312668E+00
        -11   -1    0    0    0    0  0.00000000000E+00  0.00000000000E+00  0.45593999997E+02  0.45594000000E+02  0.51100000000E-03 0.  1.
         11   -1    0    0    0    0 -0.00000000000E+00 -0.00000000000E+00 -0.45593999997E+02  0.45594000000E+02  0.51100000000E-03 0. -1.
    9900012    2    1    2    0    0 -0.18263447762E+02 -0.37646964217E+02  0.11522830791E+02  0.47787273412E+02  0.20000010796E+02 0.  0.
         12    1    1    2    0    0  0.18263447762E+02  0.37646964217E+02 -0.11522830791E+02  0.43400726588E+02  0.00000000000E+00 0. -1.
         11    1    3    3    0    0  0.29222766781E+01 -0.23663875650E+01 -0.57158597250E+00  0.38034460528E+01  0.51100000000E-03 0. -1.
        -11    1    3    3    0    0 -0.14175181716E+02 -0.29571513775E+02  0.67489241793E+01  0.33480713575E+02  0.51100000000E-03 0.  1.
         12    1    3    3    0    0 -0.70105427235E+01 -0.57090628767E+01  0.53454925838E+01  0.10503113785E+02  0.00000000000E+00 0. -1.
</event>
<event>
 7    1  0.5031164E-009  0.4778726E+02  0.7816164E-02  0.1312668E+00
        -11   -1    0    0    0    0  0.00000000000E+00  0.00000000000E+00  0.45593999997E+02  0.45594000000E+02  0.51100000000E-03 0.  1.
         11   -1    0    0    0    0 -0.00000000000E+00 -0.00000000000E+00 -0.45593999997E+02  0.45594000000E+02  0.51100000000E-03 0. -1.
    9900012    2    1    2    0    0  0.17362940010E+02  0.36159718777E+02  0.16571881951E+02  0.47787260154E+02  0.19999950345E+02 0.  0.
         12    1    1    2    0    0 -0.17362940010E+02 -0.36159718777E+02 -0.16571881951E+02  0.43400739846E+02  0.00000000000E+00 0. -1.
         11    1    3    3    0    0  0.73677311932E+01  0.10067750131E+01  0.22830556139E+01  0.77787789568E+01  0.51100000000E-03 0. -1.
        -11    1    3    3    0    0  0.13980704253E+01  0.15676502988E+02  0.34239794614E+01  0.16106861347E+02  0.51100000000E-03 0.  1.
         12    1    3    3    0    0  0.85971383916E+01  0.19476440775E+02  0.10864846876E+02  0.23901619850E+02  0.00000000000E+00 0. -1.
</event>
<event>
 7    1  0.5031164E-009  0.4778727E+02  0.7816164E-02  0.1312668E+00
        -11   -1    0    0    0    0  0.00000000000E+00  0.00000000000E+00  0.45593999997E+02  0.45594000000E+02  0.51100000000E-03 0.  1.
         11   -1    0    0    0    0 -0.00000000000E+00 -0.00000000000E+00 -0.45593999997E+02  0.45594000000E+02  0.51100000000E-03 0. -1.
    9900012    2    1    2    0    0  0.40649581231E+01 -0.31211759367E+02  0.29881860719E+02  0.47787269506E+02  0.19999992988E+02 0.  0.
         12    1    1    2    0    0 -0.40649581231E+01  0.31211759367E+02 -0.29881860719E+02  0.43400730494E+02  0.00000000000E+00 0. -1.
         11    1    3    3    0    0 -0.11830509071E+01  0.16169773503E+01  0.51704797772E+01  0.55450957240E+01  0.51100000000E-03 0. -1.
        -11    1    3    3    0    0  0.29118559322E+01 -0.23841917406E+02  0.13049267981E+02  0.27334946967E+02  0.51100000000E-03 0.  1.
         12    1    3    3    0    0  0.23361530980E+01 -0.89868193114E+01  0.11662112961E+02  0.14907226816E+02  0.00000000000E+00 0. -1.
</event>
<event>
 7    1  0.5031164E-009  0.4778727E+02  0.7816164E-02  0.1312668E+00
        -11   -1    0    0    0    0  0.00000000000E+00  0.00000000000E+00  0.45593999997E+02  0.45594000000E+02  0.51100000000E-03 0. -1.
         11   -1    0    0    0    0 -0.00000000000E+00 -0.00000000000E+00 -0.45593999997E+02  0.45594000000E+02  0.51100000000E-03 0.  1.
    9900012    2    1    2    0    0  0.35182830011E+02 -0.98413448332E+01 -0.23429469015E+02  0.47787267126E+02  0.19999982133E+02 0.  0.
         12    1    1    2    0    0 -0.35182830011E+02  0.98413448332E+01  0.23429469015E+02  0.43400732874E+02  0.00000000000E+00 0. -1.
         11    1    3    3    0    0  0.15745525083E+01 -0.30104896946E+01 -0.18496854828E+01  0.38682813301E+01  0.51100000000E-03 0. -1.
        -11    1    3    3    0    0  0.11140489239E+02 -0.10223660330E+02 -0.11805409458E+02  0.19183363203E+02  0.51100000000E-03 0.  1.
        -12    1    3    3    0    0  0.22467788263E+02  0.33928051916E+01 -0.97743740744E+01  0.24735622593E+02  0.00000000000E+00 0.  1.
</event>
<event>
 7    1  0.5031164E-009  0.4778726E+02  0.7816164E-02  0.1312668E+00
        -11   -1    0    0    0    0  0.00000000000E+00  0.00000000000E+00  0.45593999997E+02  0.45594000000E+02  0.51100000000E-03 0.  1.
         11   -1    0    0    0    0 -0.00000000000E+00 -0.00000000000E+00 -0.45593999997E+02  0.45594000000E+02  0.51100000000E-03 0. -1.
    9900012    2    1    2    0    0  0.36777911943E+02 -0.12823315710E+01  0.23007929731E+02  0.47787262545E+02  0.19999961246E+02 0.  0.
         12    1    1    2    0    0 -0.36777911943E+02  0.12823315710E+01 -0.23007929731E+02  0.43400737455E+02  0.00000000000E+00 0. -1.
         11    1    3    3    0    0  0.17037162130E+02  0.55518765954E+01  0.38603057910E+01  0.18330035140E+02  0.51100000000E-03 0. -1.
        -11    1    3    3    0    0  0.41028193173E+01 -0.29943760023E+01  0.92593357683E+01  0.10560999627E+02  0.51100000000E-03 0.  1.
        -12    1    3    3    0    0  0.15637930496E+02 -0.38398321640E+01  0.98882881715E+01  0.18896227777E+02  0.00000000000E+00 0.  1.
</event>
<event>
 7    1  0.5031164E-009  0.4778727E+02  0.7816164E-02  0.1312668E+00
        -11   -1    0    0    0    0  0.00000000000E+00  0.00000000000E+00  0.45593999997E+02  0.45594000000E+02  0.51100000000E-03 0. -1.
         11   -1    0    0    0    0 -0.00000000000E+00 -0.00000000000E+00 -0.45593999997E+02  0.45594000000E+02  0.51100000000E-03 0.  1.
    9900012    2    1    2    0    0 -0.23049176620E+01  0.37090725190E+02 -0.22418489319E+02  0.47787271850E+02  0.20000003674E+02 0.  0.
         12    1    1    2    0    0  0.23049176620E+01 -0.37090725190E+02  0.22418489319E+02  0.43400728150E+02  0.00000000000E+00 0. -1.
         11    1    3    3    0    0 -0.24578199040E+01  0.17350810168E+02 -0.10884138421E+02  0.20629007770E+02  0.51100000000E-03 0. -1.
        -11    1    3    3    0    0 -0.16149279051E+01  0.21757746477E+02 -0.10955882082E+02  0.24413907438E+02  0.51100000000E-03 0.  1.
         12    1    3    3    0    0  0.17678301471E+01 -0.20178314549E+01 -0.57846881622E+00  0.27443566424E+01  0.00000000000E+00 0. -1.
</event>
<event>
 7    1  0.5031164E-009  0.4778727E+02  0.7816164E-02  0.1312668E+00
        -11   -1    0    0    0    0  0.00000000000E+00  0.00000000000E+00  0.45593999997E+02  0.45594000000E+02  0.51100000000E-03 0.  1.
         11   -1    0    0    0    0 -0.00000000000E+00 -0.00000000000E+00 -0.45593999997E+02  0.45594000000E+02  0.51100000000E-03 0. -1.
    9900012    2    1    2    0    0 -0.24446043230E+02  0.16270445096E+02  0.31957580280E+02  0.47787270160E+02  0.19999995970E+02 0.  0.
         12    1    1    2    0    0  0.24446043230E+02 -0.16270445096E+02 -0.31957580280E+02  0.43400729840E+02  0.00000000000E+00 0. -1.
         11    1    3    3    0    0 -0.23443223781E+01  0.17237215947E+01 -0.20470766572E+01  0.35577502231E+01  0.51100000000E-03 0. -1.
        -11    1    3    3    0    0 -0.74921677824E+01  0.10431404800E+02  0.12619730061E+02  0.18005676084E+02  0.51100000000E-03 0.  1.
         12    1    3    3    0    0 -0.14609553070E+02  0.41153187011E+01  0.21384926877E+02  0.26223843853E+02  0.00000000000E+00 0. -1.
</event>
<event>
 7    1  0.5031164E-009  0.4778725E+02  0.7816164E-02  0.1312668E+00
        -11   -1    0    0    0    0  0.00000000000E+00  0.00000000000E+00  0.45593999997E+02  0.45594000000E+02  0.51100000000E-03 0.  1.
         11   -1    0    0    0    0 -0.00000000000E+00 -0.00000000000E+00 -0.45593999997E+02  0.45594000000E+02  0.51100000000E-03 0. -1.
    9900012    2    1    2    0    0  0.94789185893E-01 -0.44871544313E+01  0.43168063260E+02  0.47787248560E+02  0.19999897485E+02 0.  0.
         12    1    1    2    0    0 -0.94789185893E-01  0.44871544313E+01 -0.43168063260E+02  0.43400751440E+02  0.00000000000E+00 0. -1.
         11    1    3    3    0    0  0.19190642445E+01 -0.50478565303E+01  0.90496437038E+01  0.10538487299E+02  0.51100000000E-03 0. -1.
        -11    1    3    3    0    0  0.41963010953E+01 -0.36103648479E+01  0.24726321046E+02  0.25338402277E+02  0.51100000000E-03 0.  1.
        -12    1    3    3    0    0 -0.60205761540E+01  0.41710669469E+01  0.93920985105E+01  0.11910358984E+02  0.00000000000E+00 0.  1.
</event>
<event>
 7    1  0.5031164E-009  0.4778727E+02  0.7816164E-02  0.1312668E+00
        -11   -1    0    0    0    0  0.00000000000E+00  0.00000000000E+00  0.45593999997E+02  0.45594000000E+02  0.51100000000E-03 0.  1.
         11   -1    0    0    0    0 -0.00000000000E+00 -0.00000000000E+00 -0.45593999997E+02  0.45594000000E+02  0.51100000000E-03 0. -1.
    9900012    2    1    2    0    0  0.18788599429E+02  0.14875140204E+02  0.36184830612E+02  0.47787271539E+02  0.20000002253E+02 0.  0.
         12    1    1    2    0    0 -0.18788599429E+02 -0.14875140204E+02 -0.36184830612E+02  0.43400728461E+02  0.00000000000E+00 0. -1.
         11    1    3    3    0    0  0.91614321474E+01 -0.32348184643E+01  0.97901995264E+01  0.13792892971E+02  0.51100000000E-03 0.  1.
        -11    1    3    3    0    0  0.13943069690E+01  0.82377997210E+01  0.12792739676E+02  0.15279385617E+02  0.51100000000E-03 0. -1.
         12    1    3    3    0    0  0.82328603126E+01  0.98721589468E+01  0.13601891409E+02  0.18714992950E+02  0.00000000000E+00 0. -1.
</event>
<event>
 7    1  0.5031164E-009  0.4778727E+02  0.7816164E-02  0.1312668E+00
        -11   -1    0    0    0    0  0.00000000000E+00  0.00000000000E+00  0.45593999997E+02  0.45594000000E+02  0.51100000000E-03 0.  1.
         11   -1    0    0    0    0 -0.00000000000E+00 -0.00000000000E+00 -0.45593999997E+02  0.45594000000E+02  0.51100000000E-03 0. -1.
    9900012    2    1    2    0    0  0.40419665833E+00 -0.12732256481E+02  0.41489151631E+02  0.47787269210E+02  0.19999991635E+02 0.  0.
         12    1    1    2    0    0 -0.40419665833E+00  0.12732256481E+02 -0.41489151631E+02  0.43400730790E+02  0.00000000000E+00 0. -1.
         11    1    3    3    0    0  0.93766599276E+01 -0.84219045396E+01  0.18255644472E+02  0.22183750423E+02  0.51100000000E-03 0. -1.
        -11    1    3    3    0    0 -0.26787042223E+00 -0.12908948925E+01  0.50470950591E+01  0.52164483112E+01  0.51100000000E-03 0.  1.
         12    1    3    3    0    0 -0.87045928470E+01 -0.30194570487E+01  0.18186412100E+02  0.20387070475E+02  0.00000000000E+00 0. -1.
</event>
<event>
 7    1  0.5031164E-009  0.4778727E+02  0.7816164E-02  0.1312668E+00
        -11   -1    0    0    0    0  0.00000000000E+00  0.00000000000E+00  0.45593999997E+02  0.45594000000E+02  0.51100000000E-03 0.  1.
         11   -1    0    0    0    0 -0.00000000000E+00 -0.00000000000E+00 -0.45593999997E+02  0.45594000000E+02  0.51100000000E-03 0. -1.
    9900012    2    1    2    0    0 -0.46462073731E+01  0.38355185616E+02 -0.19771581709E+02  0.47787274777E+02  0.20000017018E+02 0.  0.
         12    1    1    2    0    0  0.46462073731E+01 -0.38355185616E+02  0.19771581709E+02  0.43400725223E+02  0.00000000000E+00 0. -1.
         11    1    3    3    0    0  0.25580163825E+01  0.13679375005E+02  0.62866300374E+00  0.13930684325E+02  0.51100000000E-03 0. -1.
        -11    1    3    3    0    0 -0.55126059893E+01  0.23378715299E+02 -0.20693956638E+02  0.31704778747E+02  0.51100000000E-03 0.  1.
        -12    1    3    3    0    0 -0.16916177662E+01  0.12970953119E+01  0.29371192472E+00  0.21518117040E+01  0.00000000000E+00 0.  1.
</event>
<event>
 7    1  0.5031164E-009  0.4778727E+02  0.7816164E-02  0.1312668E+00
        -11   -1    0    0    0    0  0.00000000000E+00  0.00000000000E+00  0.45593999997E+02  0.45594000000E+02  0.51100000000E-03 0. -1.
         11   -1    0    0    0    0 -0.00000000000E+00 -0.00000000000E+00 -0.45593999997E+02  0.45594000000E+02  0.51100000000E-03 0.  1.
    9900012    2    1    2    0    0  0.86530064658E+00  0.36150644703E+02 -0.24000110585E+02  0.47787272290E+02  0.20000005681E+02 0.  0.
         12    1    1    2    0    0 -0.86530064658E+00 -0.36150644703E+02  0.24000110585E+02  0.43400727710E+02  0.00000000000E+00 0. -1.
         11    1    3    3    0    0 -0.67448020649E+01  0.70257449103E+01 -0.83156745836E+01  0.12806400372E+02  0.51100000000E-03 0. -1.
        -11    1    3    3    0    0  0.67433195427E+01  0.97403049945E+01 -0.53911842503E+01  0.13015789170E+02  0.51100000000E-03 0.  1.
        -12    1    3    3    0    0  0.86678316878E+00  0.19384594798E+02 -0.10293251751E+02  0.21965082749E+02  0.00000000000E+00 0.  1.
</event>
<event>
 7    1  0.5031164E-009  0.4778724E+02  0.7816164E-02  0.1312668E+00
        -11   -1    0    0    0    0  0.00000000000E+00  0.00000000000E+00  0.45593999997E+02  0.45594000000E+02  0.51100000000E-03 0. -1.
         11   -1    0    0    0    0 -0.00000000000E+00 -0.00000000000E+00 -0.45593999997E+02  0.45594000000E+02  0.51100000000E-03 0.  1.
    9900012    2    1    2    0    0  0.23645104729E+02  0.43828994280E+01 -0.36129283103E+02  0.47787240991E+02  0.19999862974E+02 0.  0.
         12    1    1    2    0    0 -0.23645104729E+02 -0.43828994280E+01  0.36129283103E+02  0.43400759009E+02  0.00000000000E+00 0. -1.
         11    1    3    3    0    0 -0.14106927829E+01 -0.16350469762E+01 -0.59838177532E+01  0.63615648945E+01  0.51100000000E-03 0. -1.
        -11    1    3    3    0    0  0.22722176051E+02  0.60602484112E+01 -0.19565681966E+02  0.30591498923E+02  0.51100000000E-03 0.  1.
        -12    1    3    3    0    0  0.23336214608E+01 -0.42302006940E-01 -0.10579783383E+02  0.10834177173E+02  0.00000000000E+00 0.  1.
</event>
<event>
 7    1  0.5031164E-009  0.4778728E+02  0.7816164E-02  0.1312668E+00
        -11   -1    0    0    0    0  0.00000000000E+00  0.00000000000E+00  0.45593999997E+02  0.45594000000E+02  0.51100000000E-03 0.  1.
         11   -1    0    0    0    0 -0.00000000000E+00 -0.00000000000E+00 -0.45593999997E+02  0.45594000000E+02  0.51100000000E-03 0. -1.
    9900012    2    1    2    0    0  0.35102636470E+02  0.96008108410E+01  0.23648508784E+02  0.47787278535E+02  0.20000034153E+02 0.  0.
         12    1    1    2    0    0 -0.35102636470E+02 -0.96008108410E+01 -0.23648508784E+02  0.43400721465E+02  0.00000000000E+00 0. -1.
         11    1    3    3    0    0  0.29241510753E+02  0.59276411373E+01  0.12704331959E+02  0.32428427827E+02  0.51100000000E-03 0. -1.
        -11    1    3    3    0    0  0.48837951283E+01  0.87496851560E+00  0.11331080062E+02  0.12369737280E+02  0.51100000000E-03 0.  1.
        -12    1    3    3    0    0  0.97733058943E+00  0.27982011881E+01 -0.38690323682E+00  0.29891134279E+01  0.00000000000E+00 0.  1.
</event>
<event>
 7    1  0.5031164E-009  0.4778727E+02  0.7816164E-02  0.1312668E+00
        -11   -1    0    0    0    0  0.00000000000E+00  0.00000000000E+00  0.45593999997E+02  0.45594000000E+02  0.51100000000E-03 0. -1.
         11   -1    0    0    0    0 -0.00000000000E+00 -0.00000000000E+00 -0.45593999997E+02  0.45594000000E+02  0.51100000000E-03 0.  1.
    9900012    2    1    2    0    0 -0.19529410890E+02  0.35063881898E+02 -0.16515131100E+02  0.47787271219E+02  0.20000000795E+02 0.  0.
         12    1    1    2    0    0  0.19529410890E+02 -0.35063881898E+02  0.16515131100E+02  0.43400728781E+02  0.00000000000E+00 0. -1.
         11    1    3    3    0    0 -0.50742949150E+01  0.13413821288E+02 -0.11340176798E+02  0.18283289652E+02  0.51100000000E-03 0. -1.
        -11    1    3    3    0    0 -0.13558636459E+02  0.93627153034E+01 -0.10453882113E+01  0.16510296704E+02  0.51100000000E-03 0.  1.
         12    1    3    3    0    0 -0.89647951548E+00  0.12287345306E+02 -0.41295660911E+01  0.12993684862E+02  0.00000000000E+00 0. -1.
</event>
<event>
 7    1  0.5031164E-009  0.4778728E+02  0.7816164E-02  0.1312668E+00
        -11   -1    0    0    0    0  0.00000000000E+00  0.00000000000E+00  0.45593999997E+02  0.45594000000E+02  0.51100000000E-03 0.  1.
         11   -1    0    0    0    0 -0.00000000000E+00 -0.00000000000E+00 -0.45593999997E+02  0.45594000000E+02  0.51100000000E-03 0. -1.
    9900012    2    1    2    0    0 -0.34435817285E+02 -0.19682523904E+02  0.17618038821E+02  0.47787279370E+02  0.20000037962E+02 0.  0.
         12    1    1    2    0    0  0.34435817285E+02  0.19682523904E+02 -0.17618038821E+02  0.43400720630E+02  0.00000000000E+00 0. -1.
         11    1    3    3    0    0 -0.27017299753E+02 -0.19240182536E+02  0.89020788625E+01  0.34341900330E+02  0.51100000000E-03 0. -1.
        -11    1    3    3    0    0 -0.54765707658E+01  0.29562016817E+01  0.44184374933E+01  0.76324665659E+01  0.51100000000E-03 0.  1.
        -12    1    3    3    0    0 -0.19419467659E+01 -0.33985430489E+01  0.42975224648E+01  0.58129124742E+01  0.00000000000E+00 0.  1.
</event>
<event>
 7    1  0.5031164E-009  0.4778727E+02  0.7816164E-02  0.1312668E+00
        -11   -1    0    0    0    0  0.00000000000E+00  0.00000000000E+00  0.45593999997E+02  0.45594000000E+02  0.51100000000E-03 0. -1.
         11   -1    0    0    0    0 -0.00000000000E+00 -0.00000000000E+00 -0.45593999997E+02  0.45594000000E+02  0.51100000000E-03 0.  1.
    9900012    2    1    2    0    0  0.36699806728E+02 -0.22668872246E+02  0.47822200875E+01  0.47787271760E+02  0.20000003264E+02 0.  0.
         12    1    1    2    0    0 -0.36699806728E+02  0.22668872246E+02 -0.47822200875E+01  0.43400728240E+02  0.00000000000E+00 0. -1.
         11    1    3    3    0    0  0.78675470231E+01 -0.11295288508E+02  0.31608669699E+01  0.14123488199E+02  0.51100000000E-03 0. -1.
        -11    1    3    3    0    0  0.19939792922E+02 -0.12559659371E+01 -0.71752186580E+00  0.19992189227E+02  0.51100000000E-03 0.  1.
        -12    1    3    3    0    0  0.88924667826E+01 -0.10117617801E+02  0.23388749834E+01  0.13671594334E+02  0.00000000000E+00 0.  1.
</event>
<event>
 7    1  0.5031164E-009  0.4778726E+02  0.7816164E-02  0.1312668E+00
        -11   -1    0    0    0    0  0.00000000000E+00  0.00000000000E+00  0.45593999997E+02  0.45594000000E+02  0.51100000000E-03 0.  1.
         11   -1    0    0    0    0 -0.00000000000E+00 -0.00000000000E+00 -0.45593999997E+02  0.45594000000E+02  0.51100000000E-03 0. -1.
    9900012    2    1    2    0    0  0.42614964796E+02  0.39213381045E+01 -0.72257737945E+01  0.47787263554E+02  0.19999965849E+02 0.  0.
         12    1    1    2    0    0 -0.42614964796E+02 -0.39213381045E+01  0.72257737945E+01  0.43400736446E+02  0.00000000000E+00 0. -1.
         11    1    3    3    0    0  0.63117246427E+01 -0.34418903210E+01 -0.32281874343E+01  0.78807151527E+01  0.51100000000E-03 0. -1.
        -11    1    3    3    0    0  0.25033644583E+02  0.11935472516E+01 -0.82310670761E+01  0.26379127765E+02  0.51100000000E-03 0.  1.
        -12    1    3    3    0    0  0.11269595571E+02  0.61696811739E+01  0.42334807159E+01  0.13527420637E+02  0.00000000000E+00 0.  1.
</event>
<event>
 7    1  0.5031164E-009  0.4778728E+02  0.7816164E-02  0.1312668E+00
        -11   -1    0    0    0    0  0.00000000000E+00  0.00000000000E+00  0.45593999997E+02  0.45594000000E+02  0.51100000000E-03 0.  1.
         11   -1    0    0    0    0 -0.00000000000E+00 -0.00000000000E+00 -0.45593999997E+02  0.45594000000E+02  0.51100000000E-03 0. -1.
    9900012    2    1    2    0    0 -0.20840653958E+02  0.26657903258E+02  0.27178044695E+02  0.47787276770E+02  0.20000026103E+02 0.  0.
         12    1    1    2    0    0  0.20840653958E+02 -0.26657903258E+02 -0.27178044695E+02  0.43400723230E+02  0.00000000000E+00 0. -1.
         11    1    3    3    0    0 -0.30537556981E+01  0.13682986734E+01  0.11862703258E+01  0.35503383881E+01  0.51100000000E-03 0. -1.
        -11    1    3    3    0    0 -0.17315267815E+02  0.27229636095E+02  0.26931154863E+02  0.42030449485E+02  0.51100000000E-03 0.  1.
        -12    1    3    3    0    0 -0.47163044486E+00 -0.19400315103E+01 -0.93938049441E+00  0.22064888966E+01  0.00000000000E+00 0.  1.
</event>
<event>
 7    1  0.5031164E-009  0.4778727E+02  0.7816164E-02  0.1312668E+00
        -11   -1    0    0    0    0  0.00000000000E+00  0.00000000000E+00  0.45593999997E+02  0.45594000000E+02  0.51100000000E-03 0.  1.
         11   -1    0    0    0    0 -0.00000000000E+00 -0.00000000000E+00 -0.45593999997E+02  0.45594000000E+02  0.51100000000E-03 0. -1.
    9900012    2    1    2    0    0 -0.15591000561E+02 -0.38807268492E+02  0.11599125721E+02  0.47787273003E+02  0.20000008932E+02 0.  0.
         12    1    1    2    0    0  0.15591000561E+02  0.38807268492E+02 -0.11599125721E+02  0.43400726997E+02  0.00000000000E+00 0. -1.
         11    1    3    3    0    0  0.17891949044E+01 -0.98866879103E+01  0.77466716582E+01  0.12686951497E+02  0.51100000000E-03 0. -1.
        -11    1    3    3    0    0 -0.16811945734E+02 -0.27415970532E+02  0.56885674559E+01  0.32659405377E+02  0.51100000000E-03 0.  1.
        -12    1    3    3    0    0 -0.56824973136E+00 -0.15046100501E+01 -0.18361133935E+01  0.24409161301E+01  0.00000000000E+00 0.  1.
</event>
<event>
 7    1  0.5031164E-009  0.4778727E+02  0.7816164E-02  0.1312668E+00
        -11   -1    0    0    0    0  0.00000000000E+00  0.00000000000E+00  0.45593999997E+02  0.45594000000E+02  0.51100000000E-03 0.  1.
         11   -1    0    0    0    0 -0.00000000000E+00 -0.00000000000E+00 -0.45593999997E+02  0.45594000000E+02  0.51100000000E-03 0. -1.
    9900012    2    1    2    0    0  0.32178885235E+02 -0.98030401477E+01  0.27423403007E+02  0.47787270933E+02  0.19999999490E+02 0.  0.
         12    1    1    2    0    0 -0.32178885235E+02  0.98030401477E+01 -0.27423403007E+02  0.43400729067E+02  0.00000000000E+00 0. -1.
         11    1    3    3    0    0  0.17048046660E+01  0.18280657418E+01 -0.87519702856E+00  0.26484247026E+01  0.51100000000E-03 0. -1.
        -11    1    3    3    0    0  0.24390224454E+02 -0.31369831940E+01  0.21577424123E+02  0.32715576481E+02  0.51100000000E-03 0.  1.
        -12    1    3    3    0    0  0.60838561150E+01 -0.84941226955E+01  0.67211759130E+01  0.12423269749E+02  0.00000000000E+00 0.  1.
</event>
<event>
 7    1  0.5031164E-009  0.4778726E+02  0.7816164E-02  0.1312668E+00
        -11   -1    0    0    0    0  0.00000000000E+00  0.00000000000E+00  0.45593999997E+02  0.45594000000E+02  0.51100000000E-03 0. -1.
         11   -1    0    0    0    0 -0.00000000000E+00 -0.00000000000E+00 -0.45593999997E+02  0.45594000000E+02  0.51100000000E-03 0.  1.
    9900012    2    1    2    0    0 -0.33612773719E+02 -0.27414642018E+02  0.14976822949E+01  0.47787260302E+02  0.19999951020E+02 0.  0.
         12    1    1    2    0    0  0.33612773719E+02  0.27414642018E+02 -0.14976822949E+01  0.43400739698E+02  0.00000000000E+00 0. -1.
         11    1    3    3    0    0 -0.70147295530E+01 -0.54958861940E+01  0.51225585156E+01  0.10278706230E+02  0.51100000000E-03 0. -1.
        -11    1    3    3    0    0 -0.26695641525E+02 -0.20396367570E+02 -0.65326451242E+01  0.34224911089E+02  0.51100000000E-03 0.  1.
        -12    1    3    3    0    0  0.97597358624E-01 -0.15223882535E+01  0.29077689035E+01  0.32836429823E+01  0.00000000000E+00 0.  1.
</event>
<event>
 7    1  0.5031164E-009  0.4778727E+02  0.7816164E-02  0.1312668E+00
        -11   -1    0    0    0    0  0.00000000000E+00  0.00000000000E+00  0.45593999997E+02  0.45594000000E+02  0.51100000000E-03 0.  1.
         11   -1    0    0    0    0 -0.00000000000E+00 -0.00000000000E+00 -0.45593999997E+02  0.45594000000E+02  0.51100000000E-03 0. -1.
    9900012    2    1    2    0    0  0.79284372109E+01 -0.36962726829E+02  0.21319469903E+02  0.47787273183E+02  0.20000009753E+02 0.  0.
         12    1    1    2    0    0 -0.79284372109E+01  0.36962726829E+02 -0.21319469903E+02  0.43400726817E+02  0.00000000000E+00 0. -1.
         11    1    3    3    0    0  0.66021752486E+01 -0.12590235455E+02  0.34884504353E+01  0.14638033800E+02  0.51100000000E-03 0. -1.
        -11    1    3    3    0    0  0.26027560348E+01 -0.10020146184E+02  0.15370204673E+02  0.18531617859E+02  0.51100000000E-03 0.  1.
        -12    1    3    3    0    0 -0.12764940725E+01 -0.14352345191E+02  0.24608147949E+01  0.14617621525E+02  0.00000000000E+00 0.  1.
</event>
<event>
 7    1  0.5031164E-009  0.4778727E+02  0.7816164E-02  0.1312668E+00
        -11   -1    0    0    0    0  0.00000000000E+00  0.00000000000E+00  0.45593999997E+02  0.45594000000E+02  0.51100000000E-03 0.  1.
         11   -1    0    0    0    0 -0.00000000000E+00 -0.00000000000E+00 -0.45593999997E+02  0.45594000000E+02  0.51100000000E-03 0. -1.
    9900012    2    1    2    0    0  0.85075965347E+01  0.76538209447E+01  0.41864818328E+02  0.47787272039E+02  0.20000004536E+02 0.  0.
         12    1    1    2    0    0 -0.85075965347E+01 -0.76538209447E+01 -0.41864818328E+02  0.43400727961E+02  0.00000000000E+00 0. -1.
         11    1    3    3    0    0  0.27319050127E+01  0.26427375545E+01  0.57020951441E+01  0.68528283266E+01  0.51100000000E-03 0. -1.
        -11    1    3    3    0    0  0.84643504029E+01  0.19722755038E+01  0.35823614542E+02  0.36862805883E+02  0.51100000000E-03 0.  1.
        -12    1    3    3    0    0 -0.26886588808E+01  0.30388078864E+01  0.33910864204E+00  0.40716378300E+01  0.00000000000E+00 0.  1.
</event>
<event>
 7    1  0.5031164E-009  0.4778726E+02  0.7816164E-02  0.1312668E+00
        -11   -1    0    0    0    0  0.00000000000E+00  0.00000000000E+00  0.45593999997E+02  0.45594000000E+02  0.51100000000E-03 0. -1.
         11   -1    0    0    0    0 -0.00000000000E+00 -0.00000000000E+00 -0.45593999997E+02  0.45594000000E+02  0.51100000000E-03 0.  1.
    9900012    2    1    2    0    0 -0.77908288194E+01 -0.12449202305E+02 -0.40840477625E+02  0.47787259633E+02  0.19999947971E+02 0.  0.
         12    1    1    2    0    0  0.77908288194E+01  0.12449202305E+02  0.40840477625E+02  0.43400740367E+02  0.00000000000E+00 0. -1.
         11    1    3    3    0    0 -0.93006462283E+01 -0.73849516262E+01 -0.23323386998E+02  0.26172885055E+02  0.51100000000E-03 0. -1.
        -11    1    3    3    0    0  0.47970676681E+01  0.17370363798E+01 -0.73986564230E+01  0.89871725656E+01  0.51100000000E-03 0.  1.
        -12    1    3    3    0    0 -0.32872502592E+01 -0.68012870581E+01 -0.10118434204E+02  0.12627202012E+02  0.00000000000E+00 0.  1.
</event>
<event>
 7    1  0.5031164E-009  0.4778727E+02  0.7816164E-02  0.1312668E+00
        -11   -1    0    0    0    0  0.00000000000E+00  0.00000000000E+00  0.45593999997E+02  0.45594000000E+02  0.51100000000E-03 0.  1.
         11   -1    0    0    0    0 -0.00000000000E+00 -0.00000000000E+00 -0.45593999997E+02  0.45594000000E+02  0.51100000000E-03 0. -1.
    9900012    2    1    2    0    0 -0.35468328982E+02  0.14024345434E+02  0.20710832677E+02  0.47787271713E+02  0.20000003050E+02 0.  0.
         12    1    1    2    0    0  0.35468328982E+02 -0.14024345434E+02 -0.20710832677E+02  0.43400728287E+02  0.00000000000E+00 0. -1.
         11    1    3    3    0    0  0.24736838199E+01  0.11088031519E+01  0.35633948070E+00  0.27341423074E+01  0.51100000000E-03 0. -1.
        -11    1    3    3    0    0 -0.14670858938E+02  0.47430798550E+01  0.62214504936E+01  0.16626405354E+02  0.51100000000E-03 0.  1.
         12    1    3    3    0    0 -0.23271153864E+02  0.81724624276E+01  0.14133042702E+02  0.28426724052E+02  0.00000000000E+00 0. -1.
</event>
<event>
 7    1  0.5031164E-009  0.4778728E+02  0.7816164E-02  0.1312668E+00
        -11   -1    0    0    0    0  0.00000000000E+00  0.00000000000E+00  0.45593999997E+02  0.45594000000E+02  0.51100000000E-03 0.  1.
         11   -1    0    0    0    0 -0.00000000000E+00 -0.00000000000E+00 -0.45593999997E+02  0.45594000000E+02  0.51100000000E-03 0. -1.
    9900012    2    1    2    0    0  0.41508489575E+02  0.96791736101E+01 -0.81842392289E+01  0.47787275578E+02  0.20000020671E+02 0.  0.
         12    1    1    2    0    0 -0.41508489575E+02 -0.96791736101E+01  0.81842392289E+01  0.43400724422E+02  0.00000000000E+00 0. -1.
         11    1    3    3    0    0  0.33372671889E+01 -0.35821294313E+01  0.18090539602E+01  0.52193562864E+01  0.51100000000E-03 0. -1.
        -11    1    3    3    0    0  0.26604858563E+02  0.55979306166E+01 -0.90782890601E+01  0.28663053900E+02  0.51100000000E-03 0.  1.
         12    1    3    3    0    0  0.11566363823E+02  0.76633724248E+01 -0.91500412900E+00  0.13904865392E+02  0.00000000000E+00 0. -1.
</event>
<event>
 7    1  0.5031164E-009  0.4778727E+02  0.7816164E-02  0.1312668E+00
        -11   -1    0    0    0    0  0.00000000000E+00  0.00000000000E+00  0.45593999997E+02  0.45594000000E+02  0.51100000000E-03 0.  1.
         11   -1    0    0    0    0 -0.00000000000E+00 -0.00000000000E+00 -0.45593999997E+02  0.45594000000E+02  0.51100000000E-03 0. -1.
    9900012    2    1    2    0    0  0.10484594459E+02  0.41892645019E+02  0.43246910128E+01  0.47787269822E+02  0.19999994426E+02 0.  0.
         12    1    1    2    0    0 -0.10484594459E+02 -0.41892645019E+02 -0.43246910128E+01  0.43400730178E+02  0.00000000000E+00 0. -1.
         11    1    3    3    0    0  0.11973303865E+01  0.13981945887E+01  0.44607917194E+01  0.48256824582E+01  0.51100000000E-03 0. -1.
        -11    1    3    3    0    0  0.54470105946E+01  0.33326598922E+02 -0.39143916550E+01  0.33994919950E+02  0.51100000000E-03 0.  1.
        -12    1    3    3    0    0  0.38402534775E+01  0.71678515080E+01  0.37782909484E+01  0.89666674134E+01  0.00000000000E+00 0.  1.
</event>
<event>
 7    1  0.5031164E-009  0.4778727E+02  0.7816164E-02  0.1312668E+00
        -11   -1    0    0    0    0  0.00000000000E+00  0.00000000000E+00  0.45593999997E+02  0.45594000000E+02  0.51100000000E-03 0.  1.
         11   -1    0    0    0    0 -0.00000000000E+00 -0.00000000000E+00 -0.45593999997E+02  0.45594000000E+02  0.51100000000E-03 0. -1.
    9900012    2    1    2    0    0 -0.69241287885E+01  0.29952766586E+02  0.30635134757E+02  0.47787271121E+02  0.20000000351E+02 0.  0.
         12    1    1    2    0    0  0.69241287885E+01 -0.29952766586E+02 -0.30635134757E+02  0.43400728879E+02  0.00000000000E+00 0. -1.
         11    1    3    3    0    0 -0.63504106083E+01  0.11121993621E+02  0.17817774524E+02  0.21943097918E+02  0.51100000000E-03 0. -1.
        -11    1    3    3    0    0  0.34910940847E+01  0.97805686181E+00  0.24521918631E+00  0.36337949645E+01  0.51100000000E-03 0.  1.
        -12    1    3    3    0    0 -0.40648122649E+01  0.17852716103E+02  0.12572141047E+02  0.22210378239E+02  0.00000000000E+00 0.  1.
</event>
<event>
 7    1  0.5031164E-009  0.4778728E+02  0.7816164E-02  0.1312668E+00
        -11   -1    0    0    0    0  0.00000000000E+00  0.00000000000E+00  0.45593999997E+02  0.45594000000E+02  0.51100000000E-03 0. -1.
         11   -1    0    0    0    0 -0.00000000000E+00 -0.00000000000E+00 -0.45593999997E+02  0.45594000000E+02  0.51100000000E-03 0.  1.
    9900012    2    1    2    0    0 -0.49613099821E+01 -0.26792358984E+02 -0.33781321277E+02  0.47787276920E+02  0.20000026787E+02 0.  0.
         12    1    1    2    0    0  0.49613099821E+01  0.26792358984E+02  0.33781321277E+02  0.43400723080E+02  0.00000000000E+00 0. -1.
         11    1    3    3    0    0 -0.10349507518E+01 -0.85390356551E+01 -0.66737698364E+01  0.10886939748E+02  0.51100000000E-03 0. -1.
        -11    1    3    3    0    0 -0.75824778538E+01 -0.19121284919E+02 -0.25627529789E+02  0.32861646196E+02  0.51100000000E-03 0.  1.
        -12    1    3    3    0    0  0.36561186234E+01  0.86796158997E+00 -0.14800216516E+01  0.40386909760E+01  0.00000000000E+00 0.  1.
</event>
<event>
 7    1  0.5031164E-009  0.4778727E+02  0.7816164E-02  0.1312668E+00
        -11   -1    0    0    0    0  0.00000000000E+00  0.00000000000E+00  0.45593999997E+02  0.45594000000E+02  0.51100000000E-03 0.  1.
         11   -1    0    0    0    0 -0.00000000000E+00 -0.00000000000E+00 -0.45593999997E+02  0.45594000000E+02  0.51100000000E-03 0. -1.
    9900012    2    1    2    0    0  0.15258556293E+02 -0.36245380035E+02  0.18359522049E+02  0.47787272311E+02  0.20000005776E+02 0.  0.
         12    1    1    2    0    0 -0.15258556293E+02  0.36245380035E+02 -0.18359522049E+02  0.43400727689E+02  0.00000000000E+00 0. -1.
         11    1    3    3    0    0  0.32683578962E+01 -0.23714097783E+01  0.16088651725E+01  0.43467453432E+01  0.51100000000E-03 0. -1.
        -11    1    3    3    0    0  0.14710045502E+02 -0.26830402639E+02  0.75081888964E+01  0.31506012842E+02  0.51100000000E-03 0.  1.
        -12    1    3    3    0    0 -0.27198471051E+01 -0.70435676179E+01  0.92424679797E+01  0.11934514126E+02  0.00000000000E+00 0.  1.
</event>
<event>
 7    1  0.5031164E-009  0.4778727E+02  0.7816164E-02  0.1312668E+00
        -11   -1    0    0    0    0  0.00000000000E+00  0.00000000000E+00  0.45593999997E+02  0.45594000000E+02  0.51100000000E-03 0. -1.
         11   -1    0    0    0    0 -0.00000000000E+00 -0.00000000000E+00 -0.45593999997E+02  0.45594000000E+02  0.51100000000E-03 0.  1.
    9900012    2    1    2    0    0 -0.16566688274E+02 -0.30625507187E+02  0.25908417964E+02  0.47787274519E+02  0.20000015844E+02 0.  0.
         12    1    1    2    0    0  0.16566688274E+02  0.30625507187E+02 -0.25908417964E+02  0.43400725481E+02  0.00000000000E+00 0. -1.
         11    1    3    3    0    0  0.12601539519E+01 -0.10544437432E+01  0.13292276819E+00  0.16484866737E+01  0.51100000000E-03 0. -1.
        -11    1    3    3    0    0 -0.10821032393E+02 -0.48622104444E+01  0.41634496629E+01  0.12572595031E+02  0.51100000000E-03 0.  1.
        -12    1    3    3    0    0 -0.70058098334E+01 -0.24708853000E+02  0.21612045533E+02  0.33566192815E+02  0.00000000000E+00 0.  1.
</event>
<event>
 7    1  0.5031164E-009  0.4778727E+02  0.7816164E-02  0.1312668E+00
        -11   -1    0    0    0    0  0.00000000000E+00  0.00000000000E+00  0.45593999997E+02  0.45594000000E+02  0.51100000000E-03 0.  1.
         11   -1    0    0    0    0 -0.00000000000E+00 -0.00000000000E+00 -0.45593999997E+02  0.45594000000E+02  0.51100000000E-03 0. -1.
    9900012    2    1    2    0    0 -0.51378579410E+00  0.90187940946E+01  0.42450216186E+02  0.47787268704E+02  0.19999989329E+02 0.  0.
         12    1    1    2    0    0  0.51378579410E+00 -0.90187940946E+01 -0.42450216186E+02  0.43400731296E+02  0.00000000000E+00 0. -1.
         11    1    3    3    0    0 -0.56081725883E+00  0.42349455421E+01  0.17680507834E+01  0.46233411702E+01  0.51100000000E-03 0. -1.
        -11    1    3    3    0    0 -0.54098770005E+01  0.29124471016E+01  0.32943971530E+02  0.33512003487E+02  0.51100000000E-03 0.  1.
        -12    1    3    3    0    0  0.54569084652E+01  0.18714014509E+01  0.77381938725E+01  0.96519240464E+01  0.00000000000E+00 0.  1.
</event>
<event>
 7    1  0.5031164E-009  0.4778727E+02  0.7816164E-02  0.1312668E+00
        -11   -1    0    0    0    0  0.00000000000E+00  0.00000000000E+00  0.45593999997E+02  0.45594000000E+02  0.51100000000E-03 0.  1.
         11   -1    0    0    0    0 -0.00000000000E+00 -0.00000000000E+00 -0.45593999997E+02  0.45594000000E+02  0.51100000000E-03 0. -1.
    9900012    2    1    2    0    0 -0.20636434421E+02  0.29241555316E+02  0.24549787093E+02  0.47787273863E+02  0.20000012852E+02 0.  0.
         12    1    1    2    0    0  0.20636434421E+02 -0.29241555316E+02 -0.24549787093E+02  0.43400726137E+02  0.00000000000E+00 0. -1.
         11    1    3    3    0    0 -0.13113907644E+02  0.23323057022E+02  0.17778477249E+02  0.32124971846E+02  0.51100000000E-03 0.  1.
        -11    1    3    3    0    0 -0.53618580407E+01 -0.13923999851E+01  0.57265650256E+01  0.79675495995E+01  0.51100000000E-03 0. -1.
        -12    1    3    3    0    0 -0.21606687358E+01  0.73108982796E+01  0.10447448183E+01  0.76947524181E+01  0.00000000000E+00 0.  1.
</event>
<event>
 7    1  0.5031164E-009  0.4778728E+02  0.7816164E-02  0.1312668E+00
        -11   -1    0    0    0    0  0.00000000000E+00  0.00000000000E+00  0.45593999997E+02  0.45594000000E+02  0.51100000000E-03 0.  1.
         11   -1    0    0    0    0 -0.00000000000E+00 -0.00000000000E+00 -0.45593999997E+02  0.45594000000E+02  0.51100000000E-03 0. -1.
    9900012    2    1    2    0    0 -0.12990561761E+01  0.15355655400E+02  0.40572639006E+02  0.47787277245E+02  0.20000028271E+02 0.  0.
         12    1    1    2    0    0  0.12990561761E+01 -0.15355655400E+02 -0.40572639006E+02  0.43400722755E+02  0.00000000000E+00 0. -1.
         11    1    3    3    0    0  0.13006947417E+00  0.37977369021E+01 -0.47635291618E+00  0.38297044283E+01  0.51100000000E-03 0. -1.
        -11    1    3    3    0    0 -0.10034689248E+01 -0.19207898469E+01  0.43638384652E+01  0.48723166903E+01  0.51100000000E-03 0.  1.
         12    1    3    3    0    0 -0.42565672542E+00  0.13478708345E+02  0.36685153457E+02  0.39085256126E+02  0.00000000000E+00 0. -1.
</event>
<event>
 7    1  0.5031164E-009  0.4778727E+02  0.7816164E-02  0.1312668E+00
        -11   -1    0    0    0    0  0.00000000000E+00  0.00000000000E+00  0.45593999997E+02  0.45594000000E+02  0.51100000000E-03 0.  1.
         11   -1    0    0    0    0 -0.00000000000E+00 -0.00000000000E+00 -0.45593999997E+02  0.45594000000E+02  0.51100000000E-03 0. -1.
    9900012    2    1    2    0    0  0.27687206060E+02  0.13243651925E+02  0.30686275353E+02  0.47787272002E+02  0.20000004367E+02 0.  0.
         12    1    1    2    0    0 -0.27687206060E+02 -0.13243651925E+02 -0.30686275353E+02  0.43400727998E+02  0.00000000000E+00 0. -1.
         11    1    3    3    0    0  0.42091067768E+01  0.83663869450E+01  0.60813163157E+01  0.11166710293E+02  0.51100000000E-03 0. -1.
        -11    1    3    3    0    0  0.60982713335E+01 -0.42943399658E+01  0.72836145030E+01  0.10425032829E+02  0.51100000000E-03 0.  1.
        -12    1    3    3    0    0  0.17379827950E+02  0.91716049454E+01  0.17321344534E+02  0.26195528880E+02  0.00000000000E+00 0.  1.
</event>
<event>
 7    1  0.5031164E-009  0.4778727E+02  0.7816164E-02  0.1312668E+00
        -11   -1    0    0    0    0  0.00000000000E+00  0.00000000000E+00  0.45593999997E+02  0.45594000000E+02  0.51100000000E-03 0. -1.
         11   -1    0    0    0    0 -0.00000000000E+00 -0.00000000000E+00 -0.45593999997E+02  0.45594000000E+02  0.51100000000E-03 0.  1.
    9900012    2    1    2    0    0  0.20199424543E+02  0.28235732059E+02 -0.26045150569E+02  0.47787272069E+02  0.20000004670E+02 0.  0.
         12    1    1    2    0    0 -0.20199424543E+02 -0.28235732059E+02  0.26045150569E+02  0.43400727931E+02  0.00000000000E+00 0. -1.
         11    1    3    3    0    0  0.53144140370E+00  0.55773179851E+00  0.21110608587E+01  0.22472367332E+01  0.51100000000E-03 0. -1.
        -11    1    3    3    0    0  0.16065676559E+02  0.19130157474E+02 -0.25919120953E+02  0.35998190503E+02  0.51100000000E-03 0.  1.
        -12    1    3    3    0    0  0.36023065805E+01  0.85478427872E+01 -0.22370904748E+01  0.95418448324E+01  0.00000000000E+00 0.  1.
</event>
<event>
 7    1  0.5031164E-009  0.4778729E+02  0.7816164E-02  0.1312668E+00
        -11   -1    0    0    0    0  0.00000000000E+00  0.00000000000E+00  0.45593999997E+02  0.45594000000E+02  0.51100000000E-03 0.  1.
         11   -1    0    0    0    0 -0.00000000000E+00 -0.00000000000E+00 -0.45593999997E+02  0.45594000000E+02  0.51100000000E-03 0. -1.
    9900012    2    1    2    0    0  0.75521576439E+01  0.19757197966E+02  0.37897753457E+02  0.47787289480E+02  0.20000084053E+02 0.  0.
         12    1    1    2    0    0 -0.75521576439E+01 -0.19757197966E+02 -0.37897753457E+02  0.43400710520E+02  0.00000000000E+00 0. -1.
         11    1    3    3    0    0  0.13431556084E+01 -0.17775176977E+00  0.26571086941E+01  0.29825977860E+01  0.51100000000E-03 0. -1.
        -11    1    3    3    0    0  0.53397992284E+01  0.14757026183E+01  0.20295362213E+02  0.21037891568E+02  0.51100000000E-03 0.  1.
        -12    1    3    3    0    0  0.86920280705E+00  0.18459247118E+02  0.14945282550E+02  0.23766800125E+02  0.00000000000E+00 0.  1.
</event>
<event>
 7    1  0.5031164E-009  0.4778726E+02  0.7816164E-02  0.1312668E+00
        -11   -1    0    0    0    0  0.00000000000E+00  0.00000000000E+00  0.45593999997E+02  0.45594000000E+02  0.51100000000E-03 0.  1.
         11   -1    0    0    0    0 -0.00000000000E+00 -0.00000000000E+00 -0.45593999997E+02  0.45594000000E+02  0.51100000000E-03 0. -1.
    9900012    2    1    2    0    0  0.42246955003E+02  0.92936365473E+01  0.35280447064E+01  0.47787262832E+02  0.19999962557E+02 0.  0.
         12    1    1    2    0    0 -0.42246955003E+02 -0.92936365473E+01 -0.35280447064E+01  0.43400737168E+02  0.00000000000E+00 0. -1.
         11    1    3    3    0    0  0.10981560170E+02  0.24768037970E+01 -0.51702157889E+01  0.12387911542E+02  0.51100000000E-03 0. -1.
        -11    1    3    3    0    0  0.30656136728E+02  0.71628846761E+01  0.10722128293E+02  0.33257625762E+02  0.51100000000E-03 0.  1.
         12    1    3    3    0    0  0.60925810519E+00 -0.34605192584E+00 -0.20238677977E+01  0.21417255279E+01  0.00000000000E+00 0. -1.
</event>
<event>
 7    1  0.5031164E-009  0.4778725E+02  0.7816164E-02  0.1312668E+00
        -11   -1    0    0    0    0  0.00000000000E+00  0.00000000000E+00  0.45593999997E+02  0.45594000000E+02  0.51100000000E-03 0.  1.
         11   -1    0    0    0    0 -0.00000000000E+00 -0.00000000000E+00 -0.45593999997E+02  0.45594000000E+02  0.51100000000E-03 0. -1.
    9900012    2    1    2    0    0 -0.18383577288E+02 -0.28545970993E+02  0.27033246695E+02  0.47787253455E+02  0.19999919800E+02 0.  0.
         12    1    1    2    0    0  0.18383577288E+02  0.28545970993E+02 -0.27033246695E+02  0.43400746545E+02  0.00000000000E+00 0. -1.
         11    1    3    3    0    0 -0.18901860620E+02 -0.28287817413E+02  0.18564102910E+02  0.38757023441E+02  0.51100000000E-03 0. -1.
        -11    1    3    3    0    0 -0.81946916287E+00  0.10024825314E+01  0.35821032932E+01  0.38089322912E+01  0.51100000000E-03 0.  1.
         12    1    3    3    0    0  0.13377524945E+01 -0.12606361117E+01  0.48870404915E+01  0.52212977226E+01  0.00000000000E+00 0. -1.
</event>
<event>
 7    1  0.5031164E-009  0.4778727E+02  0.7816164E-02  0.1312668E+00
        -11   -1    0    0    0    0  0.00000000000E+00  0.00000000000E+00  0.45593999997E+02  0.45594000000E+02  0.51100000000E-03 0. -1.
         11   -1    0    0    0    0 -0.00000000000E+00 -0.00000000000E+00 -0.45593999997E+02  0.45594000000E+02  0.51100000000E-03 0.  1.
    9900012    2    1    2    0    0  0.30645694137E+02  0.12145469259E+02 -0.28230346975E+02  0.47787268635E+02  0.19999989015E+02 0.  0.
         12    1    1    2    0    0 -0.30645694137E+02 -0.12145469259E+02  0.28230346975E+02  0.43400731365E+02  0.00000000000E+00 0. -1.
         11    1    3    3    0    0  0.28298287422E+01 -0.40768982671E+01 -0.19314023800E+01  0.53253493411E+01  0.51100000000E-03 0. -1.
        -11    1    3    3    0    0  0.10193451004E+02  0.28877188585E+01 -0.48020045031E+01  0.11632051027E+02  0.51100000000E-03 0.  1.
         12    1    3    3    0    0  0.17622414390E+02  0.13334648668E+02 -0.21496940092E+02  0.30829868267E+02  0.00000000000E+00 0. -1.
</event>
<event>
 7    1  0.5801509E-009  0.4778728E+02  0.7816164E-02  0.1312668E+00
        -11   -1    0    0    0    0  0.00000000000E+00  0.00000000000E+00  0.45593999997E+02  0.45594000000E+02  0.51100000000E-03 0. -1.
         11   -1    0    0    0    0 -0.00000000000E+00 -0.00000000000E+00 -0.45593999997E+02  0.45594000000E+02  0.51100000000E-03 0.  1.
    9900012    2    1    2    0    0 -0.25542265000E+02 -0.14380082849E+02 -0.32006698002E+02  0.47787276491E+02  0.20000024835E+02 0.  0.
         12    1    1    2    0    0  0.25542265000E+02  0.14380082849E+02  0.32006698002E+02  0.43400723509E+02  0.00000000000E+00 0. -1.
         11    1    3    3    0    0  0.37662440885E+00 -0.27919741535E+01  0.60633817101E+00  0.28817723467E+01  0.51100000000E-03 0. -1.
        -11    1    3    3    0    0 -0.26783779262E+02 -0.10311250698E+02 -0.28221457389E+02  0.40251004707E+02  0.51100000000E-03 0.  1.
        -12    1    3    3    0    0  0.86488985251E+00 -0.12768579982E+01 -0.43915787838E+01  0.46544994380E+01  0.00000000000E+00 0.  1.
</event>
<event>
 7    1  0.5031164E-009  0.4778727E+02  0.7816164E-02  0.1312668E+00
        -11   -1    0    0    0    0  0.00000000000E+00  0.00000000000E+00  0.45593999997E+02  0.45594000000E+02  0.51100000000E-03 0.  1.
         11   -1    0    0    0    0 -0.00000000000E+00 -0.00000000000E+00 -0.45593999997E+02  0.45594000000E+02  0.51100000000E-03 0. -1.
    9900012    2    1    2    0    0  0.34737479067E+02  0.97861327265E+01  0.24107313429E+02  0.47787269518E+02  0.19999993038E+02 0.  0.
         12    1    1    2    0    0 -0.34737479067E+02 -0.97861327265E+01 -0.24107313429E+02  0.43400730482E+02  0.00000000000E+00 0. -1.
         11    1    3    3    0    0  0.12588671507E+02  0.35157117768E+01  0.17688168325E+02  0.21993321226E+02  0.51100000000E-03 0. -1.
        -11    1    3    3    0    0  0.12884756326E+02  0.13587155385E+01 -0.92973598474E+00  0.12989513568E+02  0.51100000000E-03 0.  1.
        -12    1    3    3    0    0  0.92640512339E+01  0.49117054112E+01  0.73488810890E+01  0.12804434723E+02  0.00000000000E+00 0.  1.
</event>
<event>
 7    1  0.5031164E-009  0.4778726E+02  0.7816164E-02  0.1312668E+00
        -11   -1    0    0    0    0  0.00000000000E+00  0.00000000000E+00  0.45593999997E+02  0.45594000000E+02  0.51100000000E-03 0. -1.
         11   -1    0    0    0    0 -0.00000000000E+00 -0.00000000000E+00 -0.45593999997E+02  0.45594000000E+02  0.51100000000E-03 0.  1.
    9900012    2    1    2    0    0 -0.54546988694E+01 -0.42000376671E+02 -0.94783163049E+01  0.47787264290E+02  0.19999969202E+02 0.  0.
         12    1    1    2    0    0  0.54546988694E+01  0.42000376671E+02  0.94783163049E+01  0.43400735710E+02  0.00000000000E+00 0. -1.
         11    1    3    3    0    0 -0.33760588213E+01 -0.78677268553E+01 -0.83315958229E+01  0.11946312747E+02  0.51100000000E-03 0. -1.
        -11    1    3    3    0    0  0.36190245334E+01 -0.20321649934E+02  0.13851874514E+01  0.20687811367E+02  0.51100000000E-03 0.  1.
        -12    1    3    3    0    0 -0.56976645815E+01 -0.13810999881E+02 -0.25319079334E+01  0.15153140176E+02  0.00000000000E+00 0.  1.
</event>
<event>
 7    1  0.5031164E-009  0.4778729E+02  0.7816164E-02  0.1312668E+00
        -11   -1    0    0    0    0  0.00000000000E+00  0.00000000000E+00  0.45593999997E+02  0.45594000000E+02  0.51100000000E-03 0. -1.
         11   -1    0    0    0    0 -0.00000000000E+00 -0.00000000000E+00 -0.45593999997E+02  0.45594000000E+02  0.51100000000E-03 0.  1.
    9900012    2    1    2    0    0 -0.41253783895E+02  0.12301381724E+02  0.55156897493E+01  0.47787291349E+02  0.20000092579E+02 0.  0.
         12    1    1    2    0    0  0.41253783895E+02 -0.12301381724E+02 -0.55156897493E+01  0.43400708651E+02  0.00000000000E+00 0. -1.
         11    1    3    3    0    0 -0.62101838611E-01 -0.14206571705E+00  0.19034753364E+01  0.19097795485E+01  0.51100000000E-03 0. -1.
        -11    1    3    3    0    0 -0.34111417016E+02  0.37726368646E+01  0.46596213591E+01  0.34634284044E+02  0.51100000000E-03 0.  1.
        -12    1    3    3    0    0 -0.70802650400E+01  0.86708105763E+01 -0.10474069462E+01  0.11243227757E+02  0.00000000000E+00 0.  1.
</event>
<event>
 7    1  0.5031164E-009  0.4778726E+02  0.7816164E-02  0.1312668E+00
        -11   -1    0    0    0    0  0.00000000000E+00  0.00000000000E+00  0.45593999997E+02  0.45594000000E+02  0.51100000000E-03 0.  1.
         11   -1    0    0    0    0 -0.00000000000E+00 -0.00000000000E+00 -0.45593999997E+02  0.45594000000E+02  0.51100000000E-03 0. -1.
    9900012    2    1    2    0    0  0.41736137349E+02  0.15545522440E+00  0.11903549122E+02  0.47787264881E+02  0.19999971900E+02 0.  0.
         12    1    1    2    0    0 -0.41736137349E+02 -0.15545522440E+00 -0.11903549122E+02  0.43400735119E+02  0.00000000000E+00 0. -1.
         11    1    3    3    0    0  0.69828658945E+01  0.64254475513E+01  0.47131808956E+01  0.10595322871E+02  0.51100000000E-03 0. -1.
        -11    1    3    3    0    0  0.26992648010E+02 -0.86699000710E+01  0.51261942982E+01  0.28810555047E+02  0.51100000000E-03 0.  1.
        -12    1    3    3    0    0  0.77606234441E+01  0.23999077441E+01  0.20641739279E+01  0.83813869631E+01  0.00000000000E+00 0.  1.
</event>
<event>
 7    1  0.5031164E-009  0.4778725E+02  0.7816164E-02  0.1312668E+00
        -11   -1    0    0    0    0  0.00000000000E+00  0.00000000000E+00  0.45593999997E+02  0.45594000000E+02  0.51100000000E-03 0.  1.
         11   -1    0    0    0    0 -0.00000000000E+00 -0.00000000000E+00 -0.45593999997E+02  0.45594000000E+02  0.51100000000E-03 0. -1.
    9900012    2    1    2    0    0  0.95702105414E+01 -0.15078382829E+02  0.39556017045E+02  0.47787250663E+02  0.19999907071E+02 0.  0.
         12    1    1    2    0    0 -0.95702105414E+01  0.15078382829E+02 -0.39556017045E+02  0.43400749337E+02  0.00000000000E+00 0. -1.
         11    1    3    3    0    0 -0.36061931473E+01 -0.35653403803E+01  0.42260221152E+01  0.66011774875E+01  0.51100000000E-03 0. -1.
        -11    1    3    3    0    0  0.12661367846E+02 -0.13855610933E+02  0.31279664704E+02  0.36478837897E+02  0.51100000000E-03 0.  1.
        -12    1    3    3    0    0  0.51503584263E+00  0.23425684843E+01  0.40503302262E+01  0.47072352782E+01  0.00000000000E+00 0.  1.
</event>
<event>
 7    1  0.5031164E-009  0.4778727E+02  0.7816164E-02  0.1312668E+00
        -11   -1    0    0    0    0  0.00000000000E+00  0.00000000000E+00  0.45593999997E+02  0.45594000000E+02  0.51100000000E-03 0.  1.
         11   -1    0    0    0    0 -0.00000000000E+00 -0.00000000000E+00 -0.45593999997E+02  0.45594000000E+02  0.51100000000E-03 0. -1.
    9900012    2    1    2    0    0 -0.19819674010E+01 -0.40559982187E+02  0.15316100040E+02  0.47787271086E+02  0.20000000191E+02 0.  0.
         12    1    1    2    0    0  0.19819674010E+01  0.40559982187E+02 -0.15316100040E+02  0.43400728914E+02  0.00000000000E+00 0. -1.
         11    1    3    3    0    0 -0.47790810878E+00 -0.51846407301E+00 -0.56439801200E+00  0.90318687574E+00  0.51100000000E-03 0. -1.
        -11    1    3    3    0    0 -0.63931326585E+01 -0.38212388895E+02  0.12702223165E+02  0.40772604575E+02  0.51100000000E-03 0.  1.
        -12    1    3    3    0    0  0.48890733663E+01 -0.18291292197E+01  0.31782748863E+01  0.61114796356E+01  0.00000000000E+00 0.  1.
</event>
<event>
 7    1  0.5031164E-009  0.4778727E+02  0.7816164E-02  0.1312668E+00
        -11   -1    0    0    0    0  0.00000000000E+00  0.00000000000E+00  0.45593999997E+02  0.45594000000E+02  0.51100000000E-03 0.  1.
         11   -1    0    0    0    0 -0.00000000000E+00 -0.00000000000E+00 -0.45593999997E+02  0.45594000000E+02  0.51100000000E-03 0. -1.
    9900012    2    1    2    0    0  0.31115868845E+01 -0.27269436925E+02  0.33620217907E+02  0.47787271720E+02  0.20000003079E+02 0.  0.
         12    1    1    2    0    0 -0.31115868845E+01  0.27269436925E+02 -0.33620217907E+02  0.43400728280E+02  0.00000000000E+00 0. -1.
         11    1    3    3    0    0  0.29259239833E+01 -0.19195733324E+01 -0.69483758424E+00  0.35677153003E+01  0.51100000000E-03 0. -1.
        -11    1    3    3    0    0 -0.45609081575E+01 -0.19448151568E+02  0.21609235374E+02  0.29427734135E+02  0.51100000000E-03 0.  1.
        -12    1    3    3    0    0  0.47465710587E+01 -0.59017120246E+01  0.12705820117E+02  0.14791822284E+02  0.00000000000E+00 0.  1.
</event>
<event>
 7    1  0.5031164E-009  0.4778727E+02  0.7816164E-02  0.1312668E+00
        -11   -1    0    0    0    0  0.00000000000E+00  0.00000000000E+00  0.45593999997E+02  0.45594000000E+02  0.51100000000E-03 0.  1.
         11   -1    0    0    0    0 -0.00000000000E+00 -0.00000000000E+00 -0.45593999997E+02  0.45594000000E+02  0.51100000000E-03 0. -1.
    9900012    2    1    2    0    0 -0.14523689047E+02 -0.18723522947E+02  0.36360901462E+02  0.47787274082E+02  0.20000013849E+02 0.  0.
         12    1    1    2    0    0  0.14523689047E+02  0.18723522947E+02 -0.36360901462E+02  0.43400725918E+02  0.00000000000E+00 0. -1.
         11    1    3    3    0    0 -0.32815159665E+01 -0.37260298764E+01  0.41318464221E+01  0.64593963182E+01  0.51100000000E-03 0. -1.
        -11    1    3    3    0    0 -0.34951490467E+01 -0.16241531798E+02  0.27610136633E+02  0.32223020764E+02  0.51100000000E-03 0.  1.
        -12    1    3    3    0    0 -0.77470240339E+01  0.12440387270E+01  0.46189184073E+01  0.91048569999E+01  0.00000000000E+00 0.  1.
</event>
<event>
 7    1  0.5031164E-009  0.4778727E+02  0.7816164E-02  0.1312668E+00
        -11   -1    0    0    0    0  0.00000000000E+00  0.00000000000E+00  0.45593999997E+02  0.45594000000E+02  0.51100000000E-03 0.  1.
         11   -1    0    0    0    0 -0.00000000000E+00 -0.00000000000E+00 -0.45593999997E+02  0.45594000000E+02  0.51100000000E-03 0. -1.
    9900012    2    1    2    0    0 -0.40364069820E+01  0.38425033733E+02  0.19769864009E+02  0.47787270494E+02  0.19999997492E+02 0.  0.
         12    1    1    2    0    0  0.40364069820E+01 -0.38425033733E+02 -0.19769864009E+02  0.43400729506E+02  0.00000000000E+00 0. -1.
         11    1    3    3    0    0  0.12946092394E+01  0.10433852332E+02  0.15285321225E+02  0.18552151702E+02  0.51100000000E-03 0. -1.
        -11    1    3    3    0    0 -0.45784941532E+01  0.25151949976E+02  0.54567436792E+01  0.26141140911E+02  0.51100000000E-03 0.  1.
        -12    1    3    3    0    0 -0.75252206817E+00  0.28392314257E+01 -0.97220089531E+00  0.30939778817E+01  0.00000000000E+00 0.  1.
</event>
<event>
 7    1  0.5031164E-009  0.4778727E+02  0.7816164E-02  0.1312668E+00
        -11   -1    0    0    0    0  0.00000000000E+00  0.00000000000E+00  0.45593999997E+02  0.45594000000E+02  0.51100000000E-03 0.  1.
         11   -1    0    0    0    0 -0.00000000000E+00 -0.00000000000E+00 -0.45593999997E+02  0.45594000000E+02  0.51100000000E-03 0. -1.
    9900012    2    1    2    0    0 -0.42300711062E+01  0.17971614265E+02  0.39277867828E+02  0.47787270491E+02  0.19999997475E+02 0.  0.
         12    1    1    2    0    0  0.42300711062E+01 -0.17971614265E+02 -0.39277867828E+02  0.43400729509E+02  0.00000000000E+00 0. -1.
         11    1    3    3    0    0 -0.87373686289E+01  0.41457370542E+01  0.63648428751E+01  0.11577563274E+02  0.51100000000E-03 0. -1.
        -11    1    3    3    0    0  0.28946320637E+01  0.55093363347E+01  0.18168045135E+02  0.19204414751E+02  0.51100000000E-03 0.  1.
         12    1    3    3    0    0  0.16126654590E+01  0.83165408762E+01  0.14744979818E+02  0.17005292466E+02  0.00000000000E+00 0. -1.
</event>
<event>
 7    1  0.5031164E-009  0.4778727E+02  0.7816164E-02  0.1312668E+00
        -11   -1    0    0    0    0  0.00000000000E+00  0.00000000000E+00  0.45593999997E+02  0.45594000000E+02  0.51100000000E-03 0.  1.
         11   -1    0    0    0    0 -0.00000000000E+00 -0.00000000000E+00 -0.45593999997E+02  0.45594000000E+02  0.51100000000E-03 0. -1.
    9900012    2    1    2    0    0  0.37817648495E+00  0.43316670034E+02 -0.26732836920E+01  0.47787269983E+02  0.19999995161E+02 0.  0.
         12    1    1    2    0    0 -0.37817648495E+00 -0.43316670034E+02  0.26732836920E+01  0.43400730017E+02  0.00000000000E+00 0. -1.
         11    1    3    3    0    0 -0.56042259436E+01  0.13973686047E+02  0.43330854511E+01  0.15666744396E+02  0.51100000000E-03 0. -1.
        -11    1    3    3    0    0  0.84659859727E+01  0.23150712634E+02 -0.60380661726E+01  0.25378862412E+02  0.51100000000E-03 0.  1.
        -12    1    3    3    0    0 -0.24835835442E+01  0.61922713527E+01 -0.96830297046E+00  0.67416631753E+01  0.00000000000E+00 0.  1.
</event>
<event>
 7    1  0.5031164E-009  0.4778724E+02  0.7816164E-02  0.1312668E+00
        -11   -1    0    0    0    0  0.00000000000E+00  0.00000000000E+00  0.45593999997E+02  0.45594000000E+02  0.51100000000E-03 0. -1.
         11   -1    0    0    0    0 -0.00000000000E+00 -0.00000000000E+00 -0.45593999997E+02  0.45594000000E+02  0.51100000000E-03 0.  1.
    9900012    2    1    2    0    0 -0.30311578066E+02 -0.24150512264E+02 -0.19534255444E+02  0.47787237988E+02  0.19999849281E+02 0.  0.
         12    1    1    2    0    0  0.30311578066E+02  0.24150512264E+02  0.19534255444E+02  0.43400762012E+02  0.00000000000E+00 0. -1.
         11    1    3    3    0    0 -0.16464388411E+02 -0.18953977513E+02 -0.88157221473E+01  0.26609139531E+02  0.51100000000E-03 0. -1.
        -11    1    3    3    0    0 -0.10872253011E+02 -0.45880680091E+01 -0.12866535880E+02  0.17458636814E+02  0.51100000000E-03 0.  1.
        -12    1    3    3    0    0 -0.29749366444E+01 -0.60846674192E+00  0.21480025836E+01  0.37194616430E+01  0.00000000000E+00 0.  1.
</event>
<event>
 7    1  0.5031164E-009  0.4778731E+02  0.7816164E-02  0.1312668E+00
        -11   -1    0    0    0    0  0.00000000000E+00  0.00000000000E+00  0.45593999997E+02  0.45594000000E+02  0.51100000000E-03 0.  1.
         11   -1    0    0    0    0 -0.00000000000E+00 -0.00000000000E+00 -0.45593999997E+02  0.45594000000E+02  0.51100000000E-03 0. -1.
    9900012    2    1    2    0    0 -0.20952758786E+02  0.31427442778E+02  0.21375638989E+02  0.47787306428E+02  0.20000161328E+02 0.  0.
         12    1    1    2    0    0  0.20952758786E+02 -0.31427442778E+02 -0.21375638989E+02  0.43400693572E+02  0.00000000000E+00 0. -1.
         11    1    3    3    0    0 -0.55458014338E+01  0.64233825810E+01 -0.30754397275E+00  0.84917807838E+01  0.51100000000E-03 0. -1.
        -11    1    3    3    0    0 -0.15332898479E+02  0.26605090219E+02  0.21844983162E+02  0.37684637333E+02  0.51100000000E-03 0.  1.
        -12    1    3    3    0    0 -0.74058873575E-01 -0.16010300214E+01 -0.16180020031E+00  0.16108883112E+01  0.00000000000E+00 0.  1.
</event>
<event>
 7    1  0.5031164E-009  0.4778727E+02  0.7816164E-02  0.1312668E+00
        -11   -1    0    0    0    0  0.00000000000E+00  0.00000000000E+00  0.45593999997E+02  0.45594000000E+02  0.51100000000E-03 0.  1.
         11   -1    0    0    0    0 -0.00000000000E+00 -0.00000000000E+00 -0.45593999997E+02  0.45594000000E+02  0.51100000000E-03 0. -1.
    9900012    2    1    2    0    0 -0.24592562364E+02 -0.31105789287E+01  0.35625178173E+02  0.47787272532E+02  0.20000006782E+02 0.  0.
         12    1    1    2    0    0  0.24592562364E+02  0.31105789287E+01 -0.35625178173E+02  0.43400727468E+02  0.00000000000E+00 0. -1.
         11    1    3    3    0    0 -0.14510132406E+02  0.33110545709E+01  0.20421011073E+02  0.25269046644E+02  0.51100000000E-03 0.  1.
        -11    1    3    3    0    0 -0.59240826985E+01 -0.28929084440E+01  0.24649464143E+00  0.65973051281E+01  0.51100000000E-03 0. -1.
        -12    1    3    3    0    0 -0.41583472592E+01 -0.35287250556E+01  0.14957672459E+02  0.15920920759E+02  0.00000000000E+00 0.  1.
</event>
<event>
 7    1  0.7772298E-009  0.4778727E+02  0.7816164E-02  0.1312668E+00
        -11   -1    0    0    0    0  0.00000000000E+00  0.00000000000E+00  0.45593999997E+02  0.45594000000E+02  0.51100000000E-03 0. -1.
         11   -1    0    0    0    0 -0.00000000000E+00 -0.00000000000E+00 -0.45593999997E+02  0.45594000000E+02  0.51100000000E-03 0.  1.
    9900012    2    1    2    0    0 -0.24827035140E+02  0.35132774045E+02 -0.57384424102E+01  0.47787271812E+02  0.20000003501E+02 0.  0.
         12    1    1    2    0    0  0.24827035140E+02 -0.35132774045E+02  0.57384424102E+01  0.43400728188E+02  0.00000000000E+00 0. -1.
         11    1    3    3    0    0 -0.10152018797E+01  0.10720969409E+02 -0.36469989112E+01  0.11369715091E+02  0.51100000000E-03 0. -1.
        -11    1    3    3    0    0 -0.17409978255E+02  0.16961840388E+02  0.43200813903E+01  0.24687536849E+02  0.51100000000E-03 0.  1.
        -12    1    3    3    0    0 -0.64018550055E+01  0.74499642479E+01 -0.64115248893E+01  0.11730019873E+02  0.00000000000E+00 0.  1.
</event>
<event>
 7    1  0.5031164E-009  0.4778727E+02  0.7816164E-02  0.1312668E+00
        -11   -1    0    0    0    0  0.00000000000E+00  0.00000000000E+00  0.45593999997E+02  0.45594000000E+02  0.51100000000E-03 0.  1.
         11   -1    0    0    0    0 -0.00000000000E+00 -0.00000000000E+00 -0.45593999997E+02  0.45594000000E+02  0.51100000000E-03 0. -1.
    9900012    2    1    2    0    0  0.13950666325E+02  0.13735762689E+02  0.38734111296E+02  0.47787266764E+02  0.19999980482E+02 0.  0.
         12    1    1    2    0    0 -0.13950666325E+02 -0.13735762689E+02 -0.38734111296E+02  0.43400733236E+02  0.00000000000E+00 0. -1.
         11    1    3    3    0    0  0.24864731752E+01  0.55850993123E+01  0.11102185948E+01  0.62135713377E+01  0.51100000000E-03 0. -1.
        -11    1    3    3    0    0  0.11392208630E+02  0.38267181744E+01  0.33530368707E+02  0.35618981111E+02  0.51100000000E-03 0.  1.
        -12    1    3    3    0    0  0.71984519584E-01  0.43239452029E+01  0.40935239937E+01  0.59547143152E+01  0.00000000000E+00 0.  1.
</event>
<event>
 7    1  0.5031164E-009  0.4778727E+02  0.7816164E-02  0.1312668E+00
        -11   -1    0    0    0    0  0.00000000000E+00  0.00000000000E+00  0.45593999997E+02  0.45594000000E+02  0.51100000000E-03 0.  1.
         11   -1    0    0    0    0 -0.00000000000E+00 -0.00000000000E+00 -0.45593999997E+02  0.45594000000E+02  0.51100000000E-03 0. -1.
    9900012    2    1    2    0    0 -0.64313448567E+01 -0.42712701561E+02  0.42291703250E+01  0.47787274742E+02  0.20000016856E+02 0.  0.
         12    1    1    2    0    0  0.64313448567E+01  0.42712701561E+02 -0.42291703250E+01  0.43400725258E+02  0.00000000000E+00 0. -1.
         11    1    3    3    0    0 -0.71413671830E+01 -0.10863632797E+02  0.86018970472E+01  0.15588786863E+02  0.51100000000E-03 0. -1.
        -11    1    3    3    0    0 -0.74123675751E-01 -0.21556137119E+02 -0.35045537982E+01  0.21839286604E+02  0.51100000000E-03 0.  1.
         12    1    3    3    0    0  0.78414600208E+00 -0.10292931645E+02 -0.86817292405E+00  0.10359201274E+02  0.00000000000E+00 0. -1.
</event>
<event>
 7    1  0.5785108E-009  0.4778727E+02  0.7816164E-02  0.1312668E+00
        -11   -1    0    0    0    0  0.00000000000E+00  0.00000000000E+00  0.45593999997E+02  0.45594000000E+02  0.51100000000E-03 0.  1.
         11   -1    0    0    0    0 -0.00000000000E+00 -0.00000000000E+00 -0.45593999997E+02  0.45594000000E+02  0.51100000000E-03 0. -1.
    9900012    2    1    2    0    0  0.20697598451E+02 -0.18567366937E+02  0.33323947980E+02  0.47787271831E+02  0.20000003588E+02 0.  0.
         12    1    1    2    0    0 -0.20697598451E+02  0.18567366937E+02 -0.33323947980E+02  0.43400728169E+02  0.00000000000E+00 0. -1.
         11    1    3    3    0    0  0.28959032768E+01  0.11270689647E+01  0.34765396837E+01  0.46629249054E+01  0.51100000000E-03 0. -1.
        -11    1    3    3    0    0 -0.14773495101E+01 -0.47438415143E+01  0.54982024081E+00  0.49988895213E+01  0.51100000000E-03 0.  1.
        -12    1    3    3    0    0  0.19279044684E+02 -0.14950594387E+02  0.29297588055E+02  0.38125457405E+02  0.00000000000E+00 0.  1.
</event>
<event>
 7    1  0.5031164E-009  0.4778727E+02  0.7816164E-02  0.1312668E+00
        -11   -1    0    0    0    0  0.00000000000E+00  0.00000000000E+00  0.45593999997E+02  0.45594000000E+02  0.51100000000E-03 0. -1.
         11   -1    0    0    0    0 -0.00000000000E+00 -0.00000000000E+00 -0.45593999997E+02  0.45594000000E+02  0.51100000000E-03 0.  1.
    9900012    2    1    2    0    0  0.65088326255E+01 -0.42716088131E+02  0.40735870786E+01  0.47787271906E+02  0.20000003929E+02 0.  0.
         12    1    1    2    0    0 -0.65088326255E+01  0.42716088131E+02 -0.40735870786E+01  0.43400728094E+02  0.00000000000E+00 0. -1.
         11    1    3    3    0    0 -0.19342817973E+01 -0.10252061239E+02  0.67712515771E+01  0.12437686839E+02  0.51100000000E-03 0. -1.
        -11    1    3    3    0    0  0.83927572152E+01 -0.12336143239E+02 -0.30016030259E+01  0.15219343766E+02  0.51100000000E-03 0.  1.
        -12    1    3    3    0    0  0.50357207584E-01 -0.20127883653E+02  0.30393852734E+00  0.20130241301E+02  0.00000000000E+00 0.  1.
</event>
<event>
 7    1  0.5031164E-009  0.4778727E+02  0.7816164E-02  0.1312668E+00
        -11   -1    0    0    0    0  0.00000000000E+00  0.00000000000E+00  0.45593999997E+02  0.45594000000E+02  0.51100000000E-03 0.  1.
         11   -1    0    0    0    0 -0.00000000000E+00 -0.00000000000E+00 -0.45593999997E+02  0.45594000000E+02  0.51100000000E-03 0. -1.
    9900012    2    1    2    0    0 -0.18477502862E+02 -0.14167333695E+02  0.36626379591E+02  0.47787272610E+02  0.20000007136E+02 0.  0.
         12    1    1    2    0    0  0.18477502862E+02  0.14167333695E+02 -0.36626379591E+02  0.43400727390E+02  0.00000000000E+00 0. -1.
         11    1    3    3    0    0 -0.68702516181E+01 -0.59417380181E+01  0.44639713382E+01  0.10120852155E+02  0.51100000000E-03 0. -1.
        -11    1    3    3    0    0 -0.84024928202E+01 -0.47559737210E+01  0.31438945449E+02  0.32888120390E+02  0.51100000000E-03 0.  1.
        -12    1    3    3    0    0 -0.32047584242E+01 -0.34696219560E+01  0.72346280424E+00  0.47783000643E+01  0.00000000000E+00 0.  1.
</event>
<event>
 7    1  0.5031164E-009  0.4778727E+02  0.7816164E-02  0.1312668E+00
        -11   -1    0    0    0    0  0.00000000000E+00  0.00000000000E+00  0.45593999997E+02  0.45594000000E+02  0.51100000000E-03 0.  1.
         11   -1    0    0    0    0 -0.00000000000E+00 -0.00000000000E+00 -0.45593999997E+02  0.45594000000E+02  0.51100000000E-03 0. -1.
    9900012    2    1    2    0    0 -0.12138139711E+02 -0.13960396910E+02  0.39260620041E+02  0.47787269551E+02  0.19999993191E+02 0.  0.
         12    1    1    2    0    0  0.12138139711E+02  0.13960396910E+02 -0.39260620041E+02  0.43400730449E+02  0.00000000000E+00 0. -1.
         11    1    3    3    0    0 -0.63057018435E+01 -0.38489932957E+01  0.11803651034E+01  0.74813025048E+01  0.51100000000E-03 0. -1.
        -11    1    3    3    0    0 -0.64562569946E+01 -0.58094345593E+01  0.28310373275E+02  0.29612666538E+02  0.51100000000E-03 0.  1.
         12    1    3    3    0    0  0.62381912734E+00 -0.43019690551E+01  0.97698816628E+01  0.10693300508E+02  0.00000000000E+00 0. -1.
</event>
<event>
 7    1  0.5031164E-009  0.4778727E+02  0.7816164E-02  0.1312668E+00
        -11   -1    0    0    0    0  0.00000000000E+00  0.00000000000E+00  0.45593999997E+02  0.45594000000E+02  0.51100000000E-03 0.  1.
         11   -1    0    0    0    0 -0.00000000000E+00 -0.00000000000E+00 -0.45593999997E+02  0.45594000000E+02  0.51100000000E-03 0. -1.
    9900012    2    1    2    0    0 -0.43110285207E+02  0.45316894667E+01  0.21424843295E+01  0.47787272597E+02  0.20000007078E+02 0.  0.
         12    1    1    2    0    0  0.43110285207E+02 -0.45316894667E+01 -0.21424843295E+01  0.43400727403E+02  0.00000000000E+00 0. -1.
         11    1    3    3    0    0 -0.47423010326E+01  0.58286901533E+01 -0.16081455423E+01  0.76843464480E+01  0.51100000000E-03 0. -1.
        -11    1    3    3    0    0 -0.29197353050E+02  0.89407492951E+00 -0.16126640241E+01  0.29255520515E+02  0.51100000000E-03 0.  1.
        -12    1    3    3    0    0 -0.91706311244E+01 -0.21910756161E+01  0.53632938959E+01  0.10847405634E+02  0.00000000000E+00 0.  1.
</event>
<event>
 7    1  0.5031164E-009  0.4778727E+02  0.7816164E-02  0.1312668E+00
        -11   -1    0    0    0    0  0.00000000000E+00  0.00000000000E+00  0.45593999997E+02  0.45594000000E+02  0.51100000000E-03 0. -1.
         11   -1    0    0    0    0 -0.00000000000E+00 -0.00000000000E+00 -0.45593999997E+02  0.45594000000E+02  0.51100000000E-03 0.  1.
    9900012    2    1    2    0    0  0.21015768580E+02  0.17031851613E+02 -0.33939313870E+02  0.47787268159E+02  0.19999986842E+02 0.  0.
         12    1    1    2    0    0 -0.21015768580E+02 -0.17031851613E+02  0.33939313870E+02  0.43400731841E+02  0.00000000000E+00 0. -1.
         11    1    3    3    0    0  0.17452831538E+02  0.16257953165E+02 -0.24941810793E+02  0.34511103948E+02  0.51100000000E-03 0. -1.
        -11    1    3    3    0    0  0.36597229070E+01  0.41279795829E+01 -0.81044613277E+01  0.98038809084E+01  0.51100000000E-03 0.  1.
         12    1    3    3    0    0 -0.96785865122E-01 -0.33540811349E+01 -0.89304174952E+00  0.34722833021E+01  0.00000000000E+00 0. -1.
</event>
<event>
 7    1  0.5031164E-009  0.4778727E+02  0.7816164E-02  0.1312668E+00
        -11   -1    0    0    0    0  0.00000000000E+00  0.00000000000E+00  0.45593999997E+02  0.45594000000E+02  0.51100000000E-03 0.  1.
         11   -1    0    0    0    0 -0.00000000000E+00 -0.00000000000E+00 -0.45593999997E+02  0.45594000000E+02  0.51100000000E-03 0. -1.
    9900012    2    1    2    0    0 -0.64065275281E+01 -0.42302255815E+02  0.72868873918E+01  0.47787272242E+02  0.20000005462E+02 0.  0.
         12    1    1    2    0    0  0.64065275281E+01  0.42302255815E+02 -0.72868873918E+01  0.43400727758E+02  0.00000000000E+00 0. -1.
         11    1    3    3    0    0 -0.29564935811E+01 -0.38643626788E+01  0.57479395401E+01  0.75308009153E+01  0.51100000000E-03 0. -1.
        -11    1    3    3    0    0 -0.32004380001E+01 -0.36284119210E+02  0.43747509970E+01  0.36686762692E+02  0.51100000000E-03 0.  1.
        -12    1    3    3    0    0 -0.24959594689E+00 -0.21537739263E+01 -0.28358031454E+01  0.35697086354E+01  0.00000000000E+00 0.  1.
</event>
<event>
 7    1  0.5031164E-009  0.4778727E+02  0.7816164E-02  0.1312668E+00
        -11   -1    0    0    0    0  0.00000000000E+00  0.00000000000E+00  0.45593999997E+02  0.45594000000E+02  0.51100000000E-03 0.  1.
         11   -1    0    0    0    0 -0.00000000000E+00 -0.00000000000E+00 -0.45593999997E+02  0.45594000000E+02  0.51100000000E-03 0. -1.
    9900012    2    1    2    0    0  0.29968605847E+02 -0.30342061204E+02  0.80538957573E+01  0.47787271303E+02  0.20000001181E+02 0.  0.
         12    1    1    2    0    0 -0.29968605847E+02  0.30342061204E+02 -0.80538957573E+01  0.43400728697E+02  0.00000000000E+00 0. -1.
         11    1    3    3    0    0  0.14598765737E+02 -0.88119749690E+01 -0.43809691655E+01  0.17605901141E+02  0.51100000000E-03 0. -1.
        -11    1    3    3    0    0  0.55407299281E+01 -0.14106448217E+02  0.61861791275E+01  0.16369495468E+02  0.51100000000E-03 0.  1.
         12    1    3    3    0    0  0.98291101815E+01 -0.74236380186E+01  0.62486857953E+01  0.13811874694E+02  0.00000000000E+00 0. -1.
</event>
<event>
 7    1  0.5031164E-009  0.4778727E+02  0.7816164E-02  0.1312668E+00
        -11   -1    0    0    0    0  0.00000000000E+00  0.00000000000E+00  0.45593999997E+02  0.45594000000E+02  0.51100000000E-03 0.  1.
         11   -1    0    0    0    0 -0.00000000000E+00 -0.00000000000E+00 -0.45593999997E+02  0.45594000000E+02  0.51100000000E-03 0. -1.
    9900012    2    1    2    0    0  0.74286767032E+00 -0.43376800645E+02 -0.12346867922E+01  0.47787272609E+02  0.20000007133E+02 0.  0.
         12    1    1    2    0    0 -0.74286767032E+00  0.43376800645E+02  0.12346867922E+01  0.43400727391E+02  0.00000000000E+00 0. -1.
         11    1    3    3    0    0 -0.66278339380E+01 -0.15529094347E+02 -0.62402477719E+01  0.18000601281E+02  0.51100000000E-03 0. -1.
        -11    1    3    3    0    0  0.64539638208E+01 -0.27075608143E+02  0.38099472203E+01  0.28093734237E+02  0.51100000000E-03 0.  1.
         12    1    3    3    0    0  0.91673778747E+00 -0.77209815543E+00  0.11956137594E+01  0.16929370910E+01  0.00000000000E+00 0. -1.
</event>
<event>
 7    1  0.5031164E-009  0.4778727E+02  0.7816164E-02  0.1312668E+00
        -11   -1    0    0    0    0  0.00000000000E+00  0.00000000000E+00  0.45593999997E+02  0.45594000000E+02  0.51100000000E-03 0.  1.
         11   -1    0    0    0    0 -0.00000000000E+00 -0.00000000000E+00 -0.45593999997E+02  0.45594000000E+02  0.51100000000E-03 0. -1.
    9900012    2    1    2    0    0  0.93531931843E+01  0.41552090866E+02  0.83405532866E+01  0.47787270661E+02  0.19999998250E+02 0.  0.
         12    1    1    2    0    0 -0.93531931843E+01 -0.41552090866E+02 -0.83405532866E+01  0.43400729339E+02  0.00000000000E+00 0. -1.
         11    1    3    3    0    0  0.34845719636E+01  0.22759547173E+02 -0.39325923400E+01  0.23358178698E+02  0.51100000000E-03 0. -1.
        -11    1    3    3    0    0  0.25937587548E+01  0.57126401220E+01  0.11738719349E+00  0.62749997335E+01  0.51100000000E-03 0.  1.
         12    1    3    3    0    0  0.32748624660E+01  0.13079903570E+02  0.12155758433E+02  0.18154092229E+02  0.00000000000E+00 0. -1.
</event>
<event>
 7    1  0.5031164E-009  0.4778727E+02  0.7816164E-02  0.1312668E+00
        -11   -1    0    0    0    0  0.00000000000E+00  0.00000000000E+00  0.45593999997E+02  0.45594000000E+02  0.51100000000E-03 0. -1.
         11   -1    0    0    0    0 -0.00000000000E+00 -0.00000000000E+00 -0.45593999997E+02  0.45594000000E+02  0.51100000000E-03 0.  1.
    9900012    2    1    2    0    0  0.42472515243E+02  0.36985800543E+01 -0.81258390678E+01  0.47787270673E+02  0.19999998309E+02 0.  0.
         12    1    1    2    0    0 -0.42472515243E+02 -0.36985800543E+01  0.81258390678E+01  0.43400729327E+02  0.00000000000E+00 0. -1.
         11    1    3    3    0    0  0.13124022755E+00  0.66833347437E+00  0.31057313717E+01  0.31795378979E+01  0.51100000000E-03 0. -1.
        -11    1    3    3    0    0  0.37707714161E+02  0.27101127239E+01 -0.72581575293E+01  0.38495418808E+02  0.51100000000E-03 0.  1.
         12    1    3    3    0    0  0.46335608544E+01  0.32013385603E+00 -0.39734129102E+01  0.61123139671E+01  0.00000000000E+00 0. -1.
</event>
<event>
 7    1  0.5031164E-009  0.4778727E+02  0.7816164E-02  0.1312668E+00
        -11   -1    0    0    0    0  0.00000000000E+00  0.00000000000E+00  0.45593999997E+02  0.45594000000E+02  0.51100000000E-03 0.  1.
         11   -1    0    0    0    0 -0.00000000000E+00 -0.00000000000E+00 -0.45593999997E+02  0.45594000000E+02  0.51100000000E-03 0. -1.
    9900012    2    1    2    0    0  0.20345377429E+02  0.12252723795E+02  0.36325750706E+02  0.47787265127E+02  0.19999973022E+02 0.  0.
         12    1    1    2    0    0 -0.20345377429E+02 -0.12252723795E+02 -0.36325750706E+02  0.43400734873E+02  0.00000000000E+00 0. -1.
         11    1    3    3    0    0  0.13527545336E+02  0.51174838653E+01  0.12049512902E+02  0.18824820992E+02  0.51100000000E-03 0. -1.
        -11    1    3    3    0    0 -0.67858801413E+00  0.14010107898E+01  0.16932326475E+02  0.17003734679E+02  0.51100000000E-03 0.  1.
        -12    1    3    3    0    0  0.74964201078E+01  0.57342291398E+01  0.73439113286E+01  0.11958709456E+02  0.00000000000E+00 0.  1.
</event>
<event>
 7    1  0.5031164E-009  0.4778727E+02  0.7816164E-02  0.1312668E+00
        -11   -1    0    0    0    0  0.00000000000E+00  0.00000000000E+00  0.45593999997E+02  0.45594000000E+02  0.51100000000E-03 0. -1.
         11   -1    0    0    0    0 -0.00000000000E+00 -0.00000000000E+00 -0.45593999997E+02  0.45594000000E+02  0.51100000000E-03 0.  1.
    9900012    2    1    2    0    0 -0.35621877216E+02  0.23796672010E+02 -0.69587099331E+01  0.47787269833E+02  0.19999994475E+02 0.  0.
         12    1    1    2    0    0  0.35621877216E+02 -0.23796672010E+02  0.69587099331E+01  0.43400730167E+02  0.00000000000E+00 0. -1.
         11    1    3    3    0    0 -0.31379094620E+01 -0.33077800953E+01 -0.20293634686E+00  0.45638874189E+01  0.51100000000E-03 0. -1.
        -11    1    3    3    0    0 -0.30754088587E+02  0.23613578060E+02 -0.65386383037E+01  0.39321353293E+02  0.51100000000E-03 0.  1.
         12    1    3    3    0    0 -0.17298791664E+01  0.34908740454E+01 -0.21713528255E+00  0.39020291211E+01  0.00000000000E+00 0. -1.
</event>
<event>
 7    1  0.5031164E-009  0.4778727E+02  0.7816164E-02  0.1312668E+00
        -11   -1    0    0    0    0  0.00000000000E+00  0.00000000000E+00  0.45593999997E+02  0.45594000000E+02  0.51100000000E-03 0.  1.
         11   -1    0    0    0    0 -0.00000000000E+00 -0.00000000000E+00 -0.45593999997E+02  0.45594000000E+02  0.51100000000E-03 0. -1.
    9900012    2    1    2    0    0 -0.36261210298E+02  0.69956717051E+01  0.22799309683E+02  0.47787270549E+02  0.19999997741E+02 0.  0.
         12    1    1    2    0    0  0.36261210298E+02 -0.69956717051E+01 -0.22799309683E+02  0.43400729451E+02  0.00000000000E+00 0. -1.
         11    1    3    3    0    0  0.12237570533E+01  0.66015435616E+00  0.24475348217E+01  0.28149266534E+01  0.51100000000E-03 0. -1.
        -11    1    3    3    0    0 -0.31377393423E+02  0.67142379673E+01  0.11245920738E+02  0.34001360899E+02  0.51100000000E-03 0.  1.
        -12    1    3    3    0    0 -0.61075739282E+01 -0.37872061840E+00  0.91058541230E+01  0.10970982996E+02  0.00000000000E+00 0.  1.
</event>
<event>
 7    1  0.5031164E-009  0.4778723E+02  0.7816164E-02  0.1312668E+00
        -11   -1    0    0    0    0  0.00000000000E+00  0.00000000000E+00  0.45593999997E+02  0.45594000000E+02  0.51100000000E-03 0.  1.
         11   -1    0    0    0    0 -0.00000000000E+00 -0.00000000000E+00 -0.45593999997E+02  0.45594000000E+02  0.51100000000E-03 0. -1.
    9900012    2    1    2    0    0  0.37330954163E+02 -0.19737943969E+02  0.10021980562E+02  0.47787231974E+02  0.19999821864E+02 0.  0.
         12    1    1    2    0    0 -0.37330954163E+02  0.19737943969E+02 -0.10021980562E+02  0.43400768026E+02  0.00000000000E+00 0. -1.
         11    1    3    3    0    0  0.27640662537E+01 -0.11829742964E+01  0.45060066284E+01  0.54169720728E+01  0.51100000000E-03 0. -1.
        -11    1    3    3    0    0  0.28159054228E+02 -0.15865170183E+02 -0.16825015877E+01  0.32364591328E+02  0.51100000000E-03 0.  1.
        -12    1    3    3    0    0  0.64078336804E+01 -0.26897994895E+01  0.71984755217E+01  0.10005668574E+02  0.00000000000E+00 0.  1.
</event>
<event>
 7    1  0.5031164E-009  0.4778729E+02  0.7816164E-02  0.1312668E+00
        -11   -1    0    0    0    0  0.00000000000E+00  0.00000000000E+00  0.45593999997E+02  0.45594000000E+02  0.51100000000E-03 0. -1.
         11   -1    0    0    0    0 -0.00000000000E+00 -0.00000000000E+00 -0.45593999997E+02  0.45594000000E+02  0.51100000000E-03 0.  1.
    9900012    2    1    2    0    0 -0.29232047199E+02 -0.21159077329E+02 -0.24112292011E+02  0.47787288452E+02  0.20000079369E+02 0.  0.
         12    1    1    2    0    0  0.29232047199E+02  0.21159077329E+02  0.24112292011E+02  0.43400711548E+02  0.00000000000E+00 0. -1.
         11    1    3    3    0    0 -0.68196867110E+00 -0.14696012038E+00  0.23390492899E+01  0.24408667287E+01  0.51100000000E-03 0. -1.
        -11    1    3    3    0    0 -0.33568017953E+01  0.26605781014E+00 -0.49233264505E+01  0.59647337451E+01  0.51100000000E-03 0.  1.
         12    1    3    3    0    0 -0.25193276732E+02 -0.21278175019E+02 -0.21528014850E+02  0.39381687978E+02  0.00000000000E+00 0. -1.
</event>
<event>
 7    1  0.5031164E-009  0.4778727E+02  0.7816164E-02  0.1312668E+00
        -11   -1    0    0    0    0  0.00000000000E+00  0.00000000000E+00  0.45593999997E+02  0.45594000000E+02  0.51100000000E-03 0.  1.
         11   -1    0    0    0    0 -0.00000000000E+00 -0.00000000000E+00 -0.45593999997E+02  0.45594000000E+02  0.51100000000E-03 0. -1.
    9900012    2    1    2    0    0 -0.91255080345E+01 -0.81123173014E+01  0.41647789910E+02  0.47787274277E+02  0.20000014739E+02 0.  0.
         12    1    1    2    0    0  0.91255080345E+01  0.81123173014E+01 -0.41647789910E+02  0.43400725723E+02  0.00000000000E+00 0. -1.
         11    1    3    3    0    0 -0.30117333307E+01 -0.12607519998E+02  0.17544693429E+02  0.21813673830E+02  0.51100000000E-03 0. -1.
        -11    1    3    3    0    0 -0.64638915086E+01  0.18963921270E+01  0.14009171934E+02  0.15544616272E+02  0.51100000000E-03 0.  1.
         12    1    3    3    0    0  0.35011680478E+00  0.25988105700E+01  0.10093924547E+02  0.10428984175E+02  0.00000000000E+00 0. -1.
</event>
<event>
 7    1  0.5031164E-009  0.4778728E+02  0.7816164E-02  0.1312668E+00
        -11   -1    0    0    0    0  0.00000000000E+00  0.00000000000E+00  0.45593999997E+02  0.45594000000E+02  0.51100000000E-03 0.  1.
         11   -1    0    0    0    0 -0.00000000000E+00 -0.00000000000E+00 -0.45593999997E+02  0.45594000000E+02  0.51100000000E-03 0. -1.
    9900012    2    1    2    0    0  0.22422517458E+02 -0.25832793436E+02  0.26711801417E+02  0.47787276034E+02  0.20000022747E+02 0.  0.
         12    1    1    2    0    0 -0.22422517458E+02  0.25832793436E+02 -0.26711801417E+02  0.43400723966E+02  0.00000000000E+00 0. -1.
         11    1    3    3    0    0  0.52650381898E+01 -0.15917538828E+02  0.13844363182E+02  0.21742931303E+02  0.51100000000E-03 0. -1.
        -11    1    3    3    0    0  0.86034076566E+01 -0.29335007243E+00  0.93258771107E+01  0.12691598076E+02  0.51100000000E-03 0.  1.
         12    1    3    3    0    0  0.85540716118E+01 -0.96219045353E+01  0.35415611251E+01  0.13352746655E+02  0.00000000000E+00 0. -1.
</event>
<event>
 7    1  0.5031164E-009  0.4778727E+02  0.7816164E-02  0.1312668E+00
        -11   -1    0    0    0    0  0.00000000000E+00  0.00000000000E+00  0.45593999997E+02  0.45594000000E+02  0.51100000000E-03 0. -1.
         11   -1    0    0    0    0 -0.00000000000E+00 -0.00000000000E+00 -0.45593999997E+02  0.45594000000E+02  0.51100000000E-03 0.  1.
    9900012    2    1    2    0    0 -0.22976265224E+02 -0.11425182188E+02 -0.35002571695E+02  0.47787267553E+02  0.19999984083E+02 0.  0.
         12    1    1    2    0    0  0.22976265224E+02  0.11425182188E+02  0.35002571695E+02  0.43400732447E+02  0.00000000000E+00 0. -1.
         11    1    3    3    0    0 -0.54360366225E+01  0.19218226176E+01 -0.16717020563E+02  0.17683401061E+02  0.51100000000E-03 0. -1.
        -11    1    3    3    0    0 -0.13357290396E+02 -0.44874497310E+01 -0.11469168746E+02  0.18168550955E+02  0.51100000000E-03 0.  1.
         12    1    3    3    0    0 -0.41829382060E+01 -0.88595550742E+01 -0.68163823850E+01  0.11935315537E+02  0.00000000000E+00 0. -1.
</event>
<event>
 7    1  0.5031164E-009  0.4778727E+02  0.7816164E-02  0.1312668E+00
        -11   -1    0    0    0    0  0.00000000000E+00  0.00000000000E+00  0.45593999997E+02  0.45594000000E+02  0.51100000000E-03 0.  1.
         11   -1    0    0    0    0 -0.00000000000E+00 -0.00000000000E+00 -0.45593999997E+02  0.45594000000E+02  0.51100000000E-03 0. -1.
    9900012    2    1    2    0    0 -0.14546277230E+02  0.39494914497E+02  0.10591547390E+02  0.47787270415E+02  0.19999997132E+02 0.  0.
         12    1    1    2    0    0  0.14546277230E+02 -0.39494914497E+02 -0.10591547390E+02  0.43400729585E+02  0.00000000000E+00 0. -1.
         11    1    3    3    0    0  0.37419537493E+01  0.37478955140E+01  0.15479383905E+01  0.55177035230E+01  0.51100000000E-03 0. -1.
        -11    1    3    3    0    0 -0.10522028304E+02  0.26340993097E+02  0.98972072347E+01  0.30041899212E+02  0.51100000000E-03 0.  1.
         12    1    3    3    0    0 -0.77662026747E+01  0.94060258858E+01 -0.85359823525E+00  0.12227667680E+02  0.00000000000E+00 0. -1.
</event>
<event>
 7    1  0.5031164E-009  0.4778727E+02  0.7816164E-02  0.1312668E+00
        -11   -1    0    0    0    0  0.00000000000E+00  0.00000000000E+00  0.45593999997E+02  0.45594000000E+02  0.51100000000E-03 0.  1.
         11   -1    0    0    0    0 -0.00000000000E+00 -0.00000000000E+00 -0.45593999997E+02  0.45594000000E+02  0.51100000000E-03 0. -1.
    9900012    2    1    2    0    0 -0.24099216930E+02  0.34490430070E+02 -0.10642427719E+02  0.47787270850E+02  0.19999999111E+02 0.  0.
         12    1    1    2    0    0  0.24099216930E+02 -0.34490430070E+02  0.10642427719E+02  0.43400729150E+02  0.00000000000E+00 0. -1.
         11    1    3    3    0    0 -0.11873944338E+02  0.44132873890E+01 -0.32815898595E+01  0.13085736203E+02  0.51100000000E-03 0. -1.
        -11    1    3    3    0    0 -0.11872119072E+02  0.28581415994E+02 -0.42601774142E+01  0.31240897288E+02  0.51100000000E-03 0.  1.
         12    1    3    3    0    0 -0.35315351942E+00  0.14957266874E+01 -0.31006604451E+01  0.34606373586E+01  0.00000000000E+00 0. -1.
</event>
<event>
 7    1  0.5031164E-009  0.4778727E+02  0.7816164E-02  0.1312668E+00
        -11   -1    0    0    0    0  0.00000000000E+00  0.00000000000E+00  0.45593999997E+02  0.45594000000E+02  0.51100000000E-03 0.  1.
         11   -1    0    0    0    0 -0.00000000000E+00 -0.00000000000E+00 -0.45593999997E+02  0.45594000000E+02  0.51100000000E-03 0. -1.
    9900012    2    1    2    0    0  0.24772318239E+02  0.25510623028E+01  0.35545008781E+02  0.47787270524E+02  0.19999997628E+02 0.  0.
         12    1    1    2    0    0 -0.24772318239E+02 -0.25510623028E+01 -0.35545008781E+02  0.43400729476E+02  0.00000000000E+00 0. -1.
         11    1    3    3    0    0  0.19398233312E+01 -0.89719339043E+00  0.26766754148E+00  0.21539537390E+01  0.51100000000E-03 0. -1.
        -11    1    3    3    0    0  0.75482638272E+01 -0.70306250037E+01  0.14465316012E+02  0.17766579365E+02  0.51100000000E-03 0.  1.
        -12    1    3    3    0    0  0.15284231081E+02  0.10478880697E+02  0.20812025227E+02  0.27866737420E+02  0.00000000000E+00 0.  1.
</event>
<event>
 7    1  0.5031164E-009  0.4778726E+02  0.7816164E-02  0.1312668E+00
        -11   -1    0    0    0    0  0.00000000000E+00  0.00000000000E+00  0.45593999997E+02  0.45594000000E+02  0.51100000000E-03 0.  1.
         11   -1    0    0    0    0 -0.00000000000E+00 -0.00000000000E+00 -0.45593999997E+02  0.45594000000E+02  0.51100000000E-03 0. -1.
    9900012    2    1    2    0    0 -0.29354638826E+02 -0.13712175347E+02  0.28877417451E+02  0.47787264845E+02  0.19999971734E+02 0.  0.
         12    1    1    2    0    0  0.29354638826E+02  0.13712175347E+02 -0.28877417451E+02  0.43400735155E+02  0.00000000000E+00 0. -1.
         11    1    3    3    0    0  0.83813635500E-01 -0.11189005104E+01  0.62872811046E+01  0.63866162424E+01  0.51100000000E-03 0. -1.
        -11    1    3    3    0    0 -0.22278823246E+02 -0.81203610041E+01  0.89217926013E+01  0.25335441807E+02  0.51100000000E-03 0.  1.
         12    1    3    3    0    0 -0.71596292152E+01 -0.44729138328E+01  0.13668343745E+02  0.16065206796E+02  0.00000000000E+00 0. -1.
</event>
<event>
 7    1  0.5031164E-009  0.4778728E+02  0.7816164E-02  0.1312668E+00
        -11   -1    0    0    0    0  0.00000000000E+00  0.00000000000E+00  0.45593999997E+02  0.45594000000E+02  0.51100000000E-03 0.  1.
         11   -1    0    0    0    0 -0.00000000000E+00 -0.00000000000E+00 -0.45593999997E+02  0.45594000000E+02  0.51100000000E-03 0. -1.
    9900012    2    1    2    0    0 -0.31737292196E+02 -0.26488408781E+02  0.13218575309E+02  0.47787282853E+02  0.20000053838E+02 0.  0.
         12    1    1    2    0    0  0.31737292196E+02  0.26488408781E+02 -0.13218575309E+02  0.43400717147E+02  0.00000000000E+00 0. -1.
         11    1    3    3    0    0 -0.75140653926E+01 -0.16352659486E+02  0.10420276065E+02  0.20795499622E+02  0.51100000000E-03 0. -1.
        -11    1    3    3    0    0 -0.15256487166E+02 -0.79819967868E+01 -0.42300227164E+00  0.17223576996E+02  0.51100000000E-03 0.  1.
         12    1    3    3    0    0 -0.89667396374E+01 -0.21537525086E+01  0.32213015154E+01  0.97682062348E+01  0.00000000000E+00 0. -1.
</event>
<event>
 7    1  0.5031164E-009  0.4778727E+02  0.7816164E-02  0.1312668E+00
        -11   -1    0    0    0    0  0.00000000000E+00  0.00000000000E+00  0.45593999997E+02  0.45594000000E+02  0.51100000000E-03 0. -1.
         11   -1    0    0    0    0 -0.00000000000E+00 -0.00000000000E+00 -0.45593999997E+02  0.45594000000E+02  0.51100000000E-03 0.  1.
    9900012    2    1    2    0    0 -0.66057249016E+01  0.38154776345E+02 -0.19601037928E+02  0.47787271351E+02  0.20000001399E+02 0.  0.
         12    1    1    2    0    0  0.66057249016E+01 -0.38154776345E+02  0.19601037928E+02  0.43400728649E+02  0.00000000000E+00 0. -1.
         11    1    3    3    0    0 -0.37841042347E+01 -0.10354683695E+01 -0.21066015990E+01  0.44530225871E+01  0.51100000000E-03 0. -1.
        -11    1    3    3    0    0 -0.37679279051E+01  0.20123421684E+02 -0.10448123939E+02  0.22985053298E+02  0.51100000000E-03 0.  1.
         12    1    3    3    0    0  0.94630723820E+00  0.19066823030E+02 -0.70463123903E+01  0.20349195466E+02  0.00000000000E+00 0. -1.
</event>
<event>
 7    1  0.5031164E-009  0.4778726E+02  0.7816164E-02  0.1312668E+00
        -11   -1    0    0    0    0  0.00000000000E+00  0.00000000000E+00  0.45593999997E+02  0.45594000000E+02  0.51100000000E-03 0.  1.
         11   -1    0    0    0    0 -0.00000000000E+00 -0.00000000000E+00 -0.45593999997E+02  0.45594000000E+02  0.51100000000E-03 0. -1.
    9900012    2    1    2    0    0 -0.11235161852E+02 -0.15337503701E+02  0.39014822652E+02  0.47787259590E+02  0.19999947773E+02 0.  0.
         12    1    1    2    0    0  0.11235161852E+02  0.15337503701E+02 -0.39014822652E+02  0.43400740410E+02  0.00000000000E+00 0. -1.
         11    1    3    3    0    0 -0.75884421319E+01 -0.77429548881E+01  0.27863602372E+02  0.29898463870E+02  0.51100000000E-03 0.  1.
        -11    1    3    3    0    0  0.25981589179E+01 -0.68418700604E+01  0.39116083631E+01  0.82983309125E+01  0.51100000000E-03 0. -1.
        -12    1    3    3    0    0 -0.62448786380E+01 -0.75267875266E+00  0.72396119163E+01  0.95904648066E+01  0.00000000000E+00 0.  1.
</event>
<event>
 7    1  0.5031164E-009  0.4778727E+02  0.7816164E-02  0.1312668E+00
        -11   -1    0    0    0    0  0.00000000000E+00  0.00000000000E+00  0.45593999997E+02  0.45594000000E+02  0.51100000000E-03 0.  1.
         11   -1    0    0    0    0 -0.00000000000E+00 -0.00000000000E+00 -0.45593999997E+02  0.45594000000E+02  0.51100000000E-03 0. -1.
    9900012    2    1    2    0    0 -0.42968155842E+02  0.42495295423E+01 -0.43934481110E+01  0.47787270696E+02  0.19999998411E+02 0.  0.
         12    1    1    2    0    0  0.42968155842E+02 -0.42495295423E+01  0.43934481110E+01  0.43400729304E+02  0.00000000000E+00 0. -1.
         11    1    3    3    0    0 -0.34893632579E+00 -0.19063188571E+01  0.11837796600E+00  0.19416028812E+01  0.51100000000E-03 0. -1.
        -11    1    3    3    0    0 -0.42697139634E+02  0.82340175339E+01 -0.38084261960E+01  0.43650302267E+02  0.51100000000E-03 0.  1.
        -12    1    3    3    0    0  0.77920116946E-01 -0.20781691345E+01 -0.70339988097E+00  0.21953655479E+01  0.00000000000E+00 0.  1.
</event>
<event>
 7    1  0.5031164E-009  0.4778727E+02  0.7816164E-02  0.1312668E+00
        -11   -1    0    0    0    0  0.00000000000E+00  0.00000000000E+00  0.45593999997E+02  0.45594000000E+02  0.51100000000E-03 0.  1.
         11   -1    0    0    0    0 -0.00000000000E+00 -0.00000000000E+00 -0.45593999997E+02  0.45594000000E+02  0.51100000000E-03 0. -1.
    9900012    2    1    2    0    0  0.15380849064E+02  0.36199180474E+02  0.18348617677E+02  0.47787274711E+02  0.20000016718E+02 0.  0.
         12    1    1    2    0    0 -0.15380849064E+02 -0.36199180474E+02 -0.18348617677E+02  0.43400725289E+02  0.00000000000E+00 0. -1.
         11    1    3    3    0    0  0.50241203096E+00  0.76150558400E+01  0.73307174612E+01  0.10582103385E+02  0.51100000000E-03 0.  1.
        -11    1    3    3    0    0  0.14192489697E+02  0.11166620089E+02  0.46547012755E+01  0.18649032474E+02  0.51100000000E-03 0. -1.
        -12    1    3    3    0    0  0.68594733646E+00  0.17417504545E+02  0.63631989408E+01  0.18556138852E+02  0.00000000000E+00 0.  1.
</event>
<event>
 7    1  0.5031164E-009  0.4778728E+02  0.7816164E-02  0.1312668E+00
        -11   -1    0    0    0    0  0.00000000000E+00  0.00000000000E+00  0.45593999997E+02  0.45594000000E+02  0.51100000000E-03 0.  1.
         11   -1    0    0    0    0 -0.00000000000E+00 -0.00000000000E+00 -0.45593999997E+02  0.45594000000E+02  0.51100000000E-03 0. -1.
    9900012    2    1    2    0    0  0.18321968103E+02 -0.12656021454E+02  0.37252555098E+02  0.47787282776E+02  0.20000053489E+02 0.  0.
         12    1    1    2    0    0 -0.18321968103E+02  0.12656021454E+02 -0.37252555098E+02  0.43400717224E+02  0.00000000000E+00 0. -1.
         11    1    3    3    0    0  0.73138813284E+01 -0.87686283352E+01  0.84759859865E+01  0.14220549978E+02  0.51100000000E-03 0. -1.
        -11    1    3    3    0    0  0.32368494421E+01  0.46790121216E+01  0.10358332441E+02  0.11818011676E+02  0.51100000000E-03 0.  1.
        -12    1    3    3    0    0  0.77712373325E+01 -0.85664052400E+01  0.18418236670E+02  0.21748721122E+02  0.00000000000E+00 0.  1.
</event>
<event>
 7    1  0.5031164E-009  0.4778727E+02  0.7816164E-02  0.1312668E+00
        -11   -1    0    0    0    0  0.00000000000E+00  0.00000000000E+00  0.45593999997E+02  0.45594000000E+02  0.51100000000E-03 0.  1.
         11   -1    0    0    0    0 -0.00000000000E+00 -0.00000000000E+00 -0.45593999997E+02  0.45594000000E+02  0.51100000000E-03 0. -1.
    9900012    2    1    2    0    0 -0.38326917922E+02  0.15391506414E+01  0.20305214897E+02  0.47787269889E+02  0.19999994734E+02 0.  0.
         12    1    1    2    0    0  0.38326917922E+02 -0.15391506414E+01 -0.20305214897E+02  0.43400730111E+02  0.00000000000E+00 0. -1.
         11    1    3    3    0    0  0.58945872651E+00 -0.11372970979E+01 -0.28913721208E+00  0.13132048079E+01  0.51100000000E-03 0. -1.
        -11    1    3    3    0    0 -0.38049564631E+02  0.53315984264E+01  0.17247816128E+02  0.42115109780E+02  0.51100000000E-03 0.  1.
        -12    1    3    3    0    0 -0.86681201833E+00 -0.26551506871E+01  0.33465359811E+01  0.43589553013E+01  0.00000000000E+00 0.  1.
</event>
<event>
 7    1  0.5031164E-009  0.4778727E+02  0.7816164E-02  0.1312668E+00
        -11   -1    0    0    0    0  0.00000000000E+00  0.00000000000E+00  0.45593999997E+02  0.45594000000E+02  0.51100000000E-03 0.  1.
         11   -1    0    0    0    0 -0.00000000000E+00 -0.00000000000E+00 -0.45593999997E+02  0.45594000000E+02  0.51100000000E-03 0. -1.
    9900012    2    1    2    0    0  0.39587444050E+02 -0.14344356620E+02  0.10521255629E+02  0.47787272895E+02  0.20000008437E+02 0.  0.
         12    1    1    2    0    0 -0.39587444050E+02  0.14344356620E+02 -0.10521255629E+02  0.43400727105E+02  0.00000000000E+00 0. -1.
         11    1    3    3    0    0  0.16576464189E+02 -0.60054308949E+01  0.13720097661E+01  0.17684082569E+02  0.51100000000E-03 0. -1.
        -11    1    3    3    0    0  0.17973113642E+02 -0.66272830736E+01  0.13329066122E+02  0.23337045633E+02  0.51100000000E-03 0.  1.
        -12    1    3    3    0    0  0.50378662183E+01 -0.17116426519E+01 -0.41798202595E+01  0.67661446928E+01  0.00000000000E+00 0.  1.
</event>
<event>
 7    1  0.5031164E-009  0.4778727E+02  0.7816164E-02  0.1312668E+00
        -11   -1    0    0    0    0  0.00000000000E+00  0.00000000000E+00  0.45593999997E+02  0.45594000000E+02  0.51100000000E-03 0.  1.
         11   -1    0    0    0    0 -0.00000000000E+00 -0.00000000000E+00 -0.45593999997E+02  0.45594000000E+02  0.51100000000E-03 0. -1.
    9900012    2    1    2    0    0 -0.35787784225E+02 -0.64255906054E+01  0.23697459566E+02  0.47787270695E+02  0.19999998406E+02 0.  0.
         12    1    1    2    0    0  0.35787784225E+02  0.64255906054E+01 -0.23697459566E+02  0.43400729305E+02  0.00000000000E+00 0. -1.
         11    1    3    3    0    0 -0.43143236778E+01 -0.31363622105E+00 -0.11524123793E+01  0.44765847506E+01  0.51100000000E-03 0. -1.
        -11    1    3    3    0    0 -0.18948619919E+02 -0.10927649127E+02  0.13255668425E+02  0.25576873497E+02  0.51100000000E-03 0.  1.
        -12    1    3    3    0    0 -0.12524840628E+02  0.48156947425E+01  0.11594203521E+02  0.17733812447E+02  0.00000000000E+00 0.  1.
</event>
<event>
 7    1  0.5031164E-009  0.4778728E+02  0.7816164E-02  0.1312668E+00
        -11   -1    0    0    0    0  0.00000000000E+00  0.00000000000E+00  0.45593999997E+02  0.45594000000E+02  0.51100000000E-03 0.  1.
         11   -1    0    0    0    0 -0.00000000000E+00 -0.00000000000E+00 -0.45593999997E+02  0.45594000000E+02  0.51100000000E-03 0. -1.
    9900012    2    1    2    0    0  0.30081074804E+02  0.23086983923E+02  0.21112623072E+02  0.47787277184E+02  0.20000027993E+02 0.  0.
         12    1    1    2    0    0 -0.30081074804E+02 -0.23086983923E+02 -0.21112623072E+02  0.43400722816E+02  0.00000000000E+00 0. -1.
         11    1    3    3    0    0  0.14603846075E+02  0.12917179607E+02 -0.17571117283E+00  0.19497608157E+02  0.51100000000E-03 0. -1.
        -11    1    3    3    0    0  0.64246743074E+01  0.30686006397E+01  0.84762013637E+01  0.11069721752E+02  0.51100000000E-03 0.  1.
         12    1    3    3    0    0  0.90525544217E+01  0.71012036755E+01  0.12812132881E+02  0.17219947275E+02  0.00000000000E+00 0. -1.
</event>
<event>
 7    1  0.5031164E-009  0.4778728E+02  0.7816164E-02  0.1312668E+00
        -11   -1    0    0    0    0  0.00000000000E+00  0.00000000000E+00  0.45593999997E+02  0.45594000000E+02  0.51100000000E-03 0. -1.
         11   -1    0    0    0    0 -0.00000000000E+00 -0.00000000000E+00 -0.45593999997E+02  0.45594000000E+02  0.51100000000E-03 0.  1.
    9900012    2    1    2    0    0  0.50727247177E+01  0.93422301555E+01 -0.42078653928E+02  0.47787275159E+02  0.20000018760E+02 0.  0.
         12    1    1    2    0    0 -0.50727247177E+01 -0.93422301555E+01  0.42078653928E+02  0.43400724841E+02  0.00000000000E+00 0. -1.
         11    1    3    3    0    0  0.68628060194E+01  0.11161817884E+02 -0.23974501884E+02  0.27321438941E+02  0.51100000000E-03 0. -1.
        -11    1    3    3    0    0 -0.48905722261E+01 -0.15458463466E+01 -0.56596692580E+01  0.76380098191E+01  0.51100000000E-03 0.  1.
         12    1    3    3    0    0  0.31004909244E+01 -0.27374138212E+00 -0.12444482786E+02  0.12827826399E+02  0.00000000000E+00 0. -1.
</event>
<event>
 7    1  0.5031164E-009  0.4778727E+02  0.7816164E-02  0.1312668E+00
        -11   -1    0    0    0    0  0.00000000000E+00  0.00000000000E+00  0.45593999997E+02  0.45594000000E+02  0.51100000000E-03 0.  1.
         11   -1    0    0    0    0 -0.00000000000E+00 -0.00000000000E+00 -0.45593999997E+02  0.45594000000E+02  0.51100000000E-03 0. -1.
    9900012    2    1    2    0    0  0.78573998597E+01 -0.28133919684E+02  0.32099337316E+02  0.47787266994E+02  0.19999981532E+02 0.  0.
         12    1    1    2    0    0 -0.78573998597E+01  0.28133919684E+02 -0.32099337316E+02  0.43400733006E+02  0.00000000000E+00 0. -1.
         11    1    3    3    0    0  0.52060976634E+00  0.33006755633E+00  0.20589548507E+00  0.64990178677E+00  0.51100000000E-03 0. -1.
        -11    1    3    3    0    0  0.15795045825E+01 -0.72628536220E+01  0.21664068349E+02  0.22903618386E+02  0.51100000000E-03 0.  1.
        -12    1    3    3    0    0  0.57572855110E+01 -0.21201133619E+02  0.10229373481E+02  0.24233746821E+02  0.00000000000E+00 0.  1.
</event>
<event>
 7    1  0.5031164E-009  0.4778728E+02  0.7816164E-02  0.1312668E+00
        -11   -1    0    0    0    0  0.00000000000E+00  0.00000000000E+00  0.45593999997E+02  0.45594000000E+02  0.51100000000E-03 0.  1.
         11   -1    0    0    0    0 -0.00000000000E+00 -0.00000000000E+00 -0.45593999997E+02  0.45594000000E+02  0.51100000000E-03 0. -1.
    9900012    2    1    2    0    0 -0.40097696100E+02 -0.90978099074E+01  0.13893432322E+02  0.47787276050E+02  0.20000022824E+02 0.  0.
         12    1    1    2    0    0  0.40097696100E+02  0.90978099074E+01 -0.13893432322E+02  0.43400723950E+02  0.00000000000E+00 0. -1.
         11    1    3    3    0    0 -0.81945445452E+01  0.24681865148E+01  0.34837028467E+01  0.92400590236E+01  0.51100000000E-03 0. -1.
        -11    1    3    3    0    0 -0.57918589853E+01 -0.90519149298E+01  0.45431087677E+01  0.11667160406E+02  0.51100000000E-03 0.  1.
        -12    1    3    3    0    0 -0.26111292570E+02 -0.25140814923E+01  0.58666207075E+01  0.26880056621E+02  0.00000000000E+00 0.  1.
</event>
<event>
 7    1  0.5193544E-009  0.4778728E+02  0.7816164E-02  0.1312668E+00
        -11   -1    0    0    0    0  0.00000000000E+00  0.00000000000E+00  0.45593999997E+02  0.45594000000E+02  0.51100000000E-03 0.  1.
         11   -1    0    0    0    0 -0.00000000000E+00 -0.00000000000E+00 -0.45593999997E+02  0.45594000000E+02  0.51100000000E-03 0. -1.
    9900012    2    1    2    0    0 -0.30540453128E+02  0.25075480137E+02  0.17947800523E+02  0.47787279672E+02  0.20000039335E+02 0.  0.
         12    1    1    2    0    0  0.30540453128E+02 -0.25075480137E+02 -0.17947800523E+02  0.43400720328E+02  0.00000000000E+00 0. -1.
         11    1    3    3    0    0 -0.11330870513E+01  0.35149244145E+01 -0.25632033276E+01  0.44953966972E+01  0.51100000000E-03 0. -1.
        -11    1    3    3    0    0 -0.18103414431E+02  0.14530881097E+02  0.18798320805E+02  0.29870670981E+02  0.51100000000E-03 0.  1.
        -12    1    3    3    0    0 -0.11303951646E+02  0.70296746250E+01  0.17126830459E+01  0.13421211993E+02  0.00000000000E+00 0.  1.
</event>
<event>
 7    1  0.5031164E-009  0.4778727E+02  0.7816164E-02  0.1312668E+00
        -11   -1    0    0    0    0  0.00000000000E+00  0.00000000000E+00  0.45593999997E+02  0.45594000000E+02  0.51100000000E-03 0.  1.
         11   -1    0    0    0    0 -0.00000000000E+00 -0.00000000000E+00 -0.45593999997E+02  0.45594000000E+02  0.51100000000E-03 0. -1.
    9900012    2    1    2    0    0  0.16825986423E+02 -0.24538714459E+02  0.31596846832E+02  0.47787273553E+02  0.20000011436E+02 0.  0.
         12    1    1    2    0    0 -0.16825986423E+02  0.24538714459E+02 -0.31596846832E+02  0.43400726447E+02  0.00000000000E+00 0. -1.
         11    1    3    3    0    0  0.21010741036E+01 -0.56989995983E+01  0.17322288675E+02  0.18356328446E+02  0.51100000000E-03 0. -1.
        -11    1    3    3    0    0  0.66131364471E+01 -0.28013429974E+01  0.13864954766E+01  0.73146063616E+01  0.51100000000E-03 0.  1.
        -12    1    3    3    0    0  0.81117758720E+01 -0.16038371864E+02  0.12888062680E+02  0.22116338745E+02  0.00000000000E+00 0.  1.
</event>
<event>
 7    1  0.5031164E-009  0.4778727E+02  0.7816164E-02  0.1312668E+00
        -11   -1    0    0    0    0  0.00000000000E+00  0.00000000000E+00  0.45593999997E+02  0.45594000000E+02  0.51100000000E-03 0.  1.
         11   -1    0    0    0    0 -0.00000000000E+00 -0.00000000000E+00 -0.45593999997E+02  0.45594000000E+02  0.51100000000E-03 0. -1.
    9900012    2    1    2    0    0 -0.36172666982E+02  0.17871755194E+01  0.23915840229E+02  0.47787271357E+02  0.20000001423E+02 0.  0.
         12    1    1    2    0    0  0.36172666982E+02 -0.17871755194E+01 -0.23915840229E+02  0.43400728643E+02  0.00000000000E+00 0. -1.
         11    1    3    3    0    0 -0.11158024110E+02 -0.71366135450E+01  0.10296186861E+02  0.16776299326E+02  0.51100000000E-03 0. -1.
        -11    1    3    3    0    0 -0.24962295562E+02  0.81248979216E+01  0.14358527147E+02  0.29921521821E+02  0.51100000000E-03 0.  1.
        -12    1    3    3    0    0 -0.52347309191E-01  0.79889114270E+00 -0.73887377902E+00  0.10894502100E+01  0.00000000000E+00 0.  1.
</event>
<event>
 7    1  0.5031164E-009  0.4778728E+02  0.7816164E-02  0.1312668E+00
        -11   -1    0    0    0    0  0.00000000000E+00  0.00000000000E+00  0.45593999997E+02  0.45594000000E+02  0.51100000000E-03 0.  1.
         11   -1    0    0    0    0 -0.00000000000E+00 -0.00000000000E+00 -0.45593999997E+02  0.45594000000E+02  0.51100000000E-03 0. -1.
    9900012    2    1    2    0    0 -0.10552924463E+02  0.41922623018E+02 -0.38408679858E+01  0.47787276477E+02  0.20000024771E+02 0.  0.
         12    1    1    2    0    0  0.10552924463E+02 -0.41922623018E+02  0.38408679858E+01  0.43400723523E+02  0.00000000000E+00 0. -1.
         11    1    3    3    0    0 -0.53120650806E+01  0.29190281099E+02  0.22616520640E+01  0.29755766103E+02  0.51100000000E-03 0. -1.
        -11    1    3    3    0    0 -0.42894876995E+01  0.12956313237E+02 -0.80552759986E+01  0.15847814648E+02  0.51100000000E-03 0.  1.
         12    1    3    3    0    0 -0.95137168297E+00 -0.22397131904E+00  0.19527559488E+01  0.21836957267E+01  0.00000000000E+00 0. -1.
</event>
<event>
 7    1  0.5031164E-009  0.4778727E+02  0.7816164E-02  0.1312668E+00
        -11   -1    0    0    0    0  0.00000000000E+00  0.00000000000E+00  0.45593999997E+02  0.45594000000E+02  0.51100000000E-03 0.  1.
         11   -1    0    0    0    0 -0.00000000000E+00 -0.00000000000E+00 -0.45593999997E+02  0.45594000000E+02  0.51100000000E-03 0. -1.
    9900012    2    1    2    0    0 -0.21497903766E+02  0.33486433540E+02  0.17324042766E+02  0.47787267802E+02  0.19999985217E+02 0.  0.
         12    1    1    2    0    0  0.21497903766E+02 -0.33486433540E+02 -0.17324042766E+02  0.43400732198E+02  0.00000000000E+00 0. -1.
         11    1    3    3    0    0 -0.80443561152E+01  0.63897821356E+01 -0.13614944463E+01  0.10363138928E+02  0.51100000000E-03 0. -1.
        -11    1    3    3    0    0 -0.58202967695E+01  0.12432299313E+02  0.15287975256E+02  0.20546535191E+02  0.51100000000E-03 0.  1.
        -12    1    3    3    0    0 -0.76332508815E+01  0.14664352091E+02  0.33975619570E+01  0.16877593683E+02  0.00000000000E+00 0.  1.
</event>
<event>
 7    1  0.5031164E-009  0.4778727E+02  0.7816164E-02  0.1312668E+00
        -11   -1    0    0    0    0  0.00000000000E+00  0.00000000000E+00  0.45593999997E+02  0.45594000000E+02  0.51100000000E-03 0.  1.
         11   -1    0    0    0    0 -0.00000000000E+00 -0.00000000000E+00 -0.45593999997E+02  0.45594000000E+02  0.51100000000E-03 0. -1.
    9900012    2    1    2    0    0  0.37823392640E+02 -0.97707572318E+01  0.18908896259E+02  0.47787273215E+02  0.20000009897E+02 0.  0.
         12    1    1    2    0    0 -0.37823392640E+02  0.97707572318E+01 -0.18908896259E+02  0.43400726785E+02  0.00000000000E+00 0. -1.
         11    1    3    3    0    0  0.32831085435E+01 -0.26848779513E+01  0.58843614815E+01  0.72534875493E+01  0.51100000000E-03 0. -1.
        -11    1    3    3    0    0  0.85950681524E+01 -0.89036856127E+01  0.41935520904E+01  0.13066625174E+02  0.51100000000E-03 0.  1.
        -12    1    3    3    0    0  0.25945215945E+02  0.18178063321E+01  0.88309826874E+01  0.27467160492E+02  0.00000000000E+00 0.  1.
</event>
<event>
 7    1  0.5031164E-009  0.4778727E+02  0.7816164E-02  0.1312668E+00
        -11   -1    0    0    0    0  0.00000000000E+00  0.00000000000E+00  0.45593999997E+02  0.45594000000E+02  0.51100000000E-03 0.  1.
         11   -1    0    0    0    0 -0.00000000000E+00 -0.00000000000E+00 -0.45593999997E+02  0.45594000000E+02  0.51100000000E-03 0. -1.
    9900012    2    1    2    0    0  0.13311235894E+02 -0.22858984584E+01  0.41245717087E+02  0.47787268315E+02  0.19999987556E+02 0.  0.
         12    1    1    2    0    0 -0.13311235894E+02  0.22858984584E+01 -0.41245717087E+02  0.43400731685E+02  0.00000000000E+00 0. -1.
         11    1    3    3    0    0  0.54574717503E+00  0.51579287217E+01  0.64590135590E+01  0.82837748095E+01  0.51100000000E-03 0.  1.
        -11    1    3    3    0    0  0.93246796796E+01 -0.46505938172E+01  0.10416804457E+02  0.14733889145E+02  0.51100000000E-03 0. -1.
        -12    1    3    3    0    0  0.34408090398E+01 -0.27932333629E+01  0.24369899071E+02  0.24769604361E+02  0.00000000000E+00 0.  1.
</event>
<event>
 7    1  0.5031164E-009  0.4778727E+02  0.7816164E-02  0.1312668E+00
        -11   -1    0    0    0    0  0.00000000000E+00  0.00000000000E+00  0.45593999997E+02  0.45594000000E+02  0.51100000000E-03 0. -1.
         11   -1    0    0    0    0 -0.00000000000E+00 -0.00000000000E+00 -0.45593999997E+02  0.45594000000E+02  0.51100000000E-03 0.  1.
    9900012    2    1    2    0    0  0.99500310971E+01 -0.39039726634E+02 -0.16140634876E+02  0.47787268800E+02  0.19999989765E+02 0.  0.
         12    1    1    2    0    0 -0.99500310971E+01  0.39039726634E+02  0.16140634876E+02  0.43400731200E+02  0.00000000000E+00 0. -1.
         11    1    3    3    0    0  0.44569649844E+01 -0.25391903168E+02 -0.18474343353E+01  0.25846204697E+02  0.51100000000E-03 0. -1.
        -11    1    3    3    0    0 -0.17571934431E+00 -0.52383455528E+01 -0.92095461649E+01  0.10596550488E+02  0.51100000000E-03 0.  1.
        -12    1    3    3    0    0  0.56687854570E+01 -0.84094779141E+01 -0.50836543759E+01  0.11344513615E+02  0.00000000000E+00 0.  1.
</event>
<event>
 7    1  0.5031164E-009  0.4778729E+02  0.7816164E-02  0.1312668E+00
        -11   -1    0    0    0    0  0.00000000000E+00  0.00000000000E+00  0.45593999997E+02  0.45594000000E+02  0.51100000000E-03 0. -1.
         11   -1    0    0    0    0 -0.00000000000E+00 -0.00000000000E+00 -0.45593999997E+02  0.45594000000E+02  0.51100000000E-03 0.  1.
    9900012    2    1    2    0    0  0.34707376109E+02 -0.16779865992E+01 -0.26003925457E+02  0.47787288778E+02  0.20000080853E+02 0.  0.
         12    1    1    2    0    0 -0.34707376109E+02  0.16779865992E+01  0.26003925457E+02  0.43400711222E+02  0.00000000000E+00 0. -1.
         11    1    3    3    0    0  0.96883244486E+01  0.19933841354E+01 -0.16293050417E+02  0.19060448659E+02  0.51100000000E-03 0. -1.
        -11    1    3    3    0    0  0.11323176211E+02 -0.61262141508E+01 -0.66075964254E+01  0.14470837920E+02  0.51100000000E-03 0.  1.
         12    1    3    3    0    0  0.13695875450E+02  0.24548434162E+01 -0.31032786149E+01  0.14256002199E+02  0.00000000000E+00 0. -1.
</event>
<event>
 7    1  0.5031164E-009  0.4778727E+02  0.7816164E-02  0.1312668E+00
        -11   -1    0    0    0    0  0.00000000000E+00  0.00000000000E+00  0.45593999997E+02  0.45594000000E+02  0.51100000000E-03 0. -1.
         11   -1    0    0    0    0 -0.00000000000E+00 -0.00000000000E+00 -0.45593999997E+02  0.45594000000E+02  0.51100000000E-03 0.  1.
    9900012    2    1    2    0    0  0.35629972330E+02  0.16242275046E+02 -0.18716765507E+02  0.47787265698E+02  0.19999975623E+02 0.  0.
         12    1    1    2    0    0 -0.35629972330E+02 -0.16242275046E+02  0.18716765507E+02  0.43400734302E+02  0.00000000000E+00 0. -1.
         11    1    3    3    0    0  0.64627959920E+01  0.47269224714E+01 -0.54153958106E+00  0.80252597131E+01  0.51100000000E-03 0. -1.
        -11    1    3    3    0    0  0.85852040059E+01  0.82244853762E+01 -0.14239575486E+02  0.18550293739E+02  0.51100000000E-03 0.  1.
        -12    1    3    3    0    0  0.20581972332E+02  0.32908671985E+01 -0.39356504401E+01  0.21211712246E+02  0.00000000000E+00 0.  1.
</event>
<event>
 7    1  0.5031164E-009  0.4778727E+02  0.7816164E-02  0.1312668E+00
        -11   -1    0    0    0    0  0.00000000000E+00  0.00000000000E+00  0.45593999997E+02  0.45594000000E+02  0.51100000000E-03 0. -1.
         11   -1    0    0    0    0 -0.00000000000E+00 -0.00000000000E+00 -0.45593999997E+02  0.45594000000E+02  0.51100000000E-03 0.  1.
    9900012    2    1    2    0    0  0.88837457929E+01  0.35243763312E+02 -0.23718753638E+02  0.47787273442E+02  0.20000010930E+02 0.  0.
         12    1    1    2    0    0 -0.88837457929E+01 -0.35243763312E+02  0.23718753638E+02  0.43400726558E+02  0.00000000000E+00 0. -1.
         11    1    3    3    0    0  0.49668676508E+01  0.42521957459E+01 -0.10012280411E+02  0.11958122854E+02  0.51100000000E-03 0. -1.
        -11    1    3    3    0    0  0.66848398323E+01  0.28634391414E+02 -0.11479810299E+02  0.31565828042E+02  0.51100000000E-03 0.  1.
         12    1    3    3    0    0 -0.27679616902E+01  0.23571761521E+01 -0.22266629278E+01  0.42633225452E+01  0.00000000000E+00 0. -1.
</event>
<event>
 7    1  0.5031164E-009  0.4778727E+02  0.7816164E-02  0.1312668E+00
        -11   -1    0    0    0    0  0.00000000000E+00  0.00000000000E+00  0.45593999997E+02  0.45594000000E+02  0.51100000000E-03 0.  1.
         11   -1    0    0    0    0 -0.00000000000E+00 -0.00000000000E+00 -0.45593999997E+02  0.45594000000E+02  0.51100000000E-03 0. -1.
    9900012    2    1    2    0    0 -0.40681977021E+02 -0.15018221334E+02 -0.17472813120E+01  0.47787271684E+02  0.20000002914E+02 0.  0.
         12    1    1    2    0    0  0.40681977021E+02  0.15018221334E+02  0.17472813120E+01  0.43400728316E+02  0.00000000000E+00 0. -1.
         11    1    3    3    0    0  0.71677017998E+00 -0.16477468707E+01  0.27726821944E+01  0.33040272476E+01  0.51100000000E-03 0. -1.
        -11    1    3    3    0    0 -0.31262448798E+02 -0.83253068276E+01 -0.16580505563E+00  0.32352417687E+02  0.51100000000E-03 0.  1.
         12    1    3    3    0    0 -0.10136298403E+02 -0.50451676357E+01 -0.43541584508E+01  0.12130826749E+02  0.00000000000E+00 0. -1.
</event>
<event>
 7    1  0.5031164E-009  0.4778727E+02  0.7816164E-02  0.1312668E+00
        -11   -1    0    0    0    0  0.00000000000E+00  0.00000000000E+00  0.45593999997E+02  0.45594000000E+02  0.51100000000E-03 0.  1.
         11   -1    0    0    0    0 -0.00000000000E+00 -0.00000000000E+00 -0.45593999997E+02  0.45594000000E+02  0.51100000000E-03 0. -1.
    9900012    2    1    2    0    0 -0.31650060401E+02 -0.14620579270E+02  0.25848329449E+02  0.47787265019E+02  0.19999972529E+02 0.  0.
         12    1    1    2    0    0  0.31650060401E+02  0.14620579270E+02 -0.25848329449E+02  0.43400734981E+02  0.00000000000E+00 0. -1.
         11    1    3    3    0    0 -0.60938484281E+01 -0.58555343770E+01  0.16798403194E+02  0.18804484083E+02  0.51100000000E-03 0. -1.
        -11    1    3    3    0    0 -0.92146363419E+01 -0.58159370987E+01  0.42660429247E+01  0.11701870352E+02  0.51100000000E-03 0.  1.
         12    1    3    3    0    0 -0.16341575631E+02 -0.29491077945E+01  0.47838833302E+01  0.17280910584E+02  0.00000000000E+00 0. -1.
</event>
<event>
 7    1  0.5031164E-009  0.4778727E+02  0.7816164E-02  0.1312668E+00
        -11   -1    0    0    0    0  0.00000000000E+00  0.00000000000E+00  0.45593999997E+02  0.45594000000E+02  0.51100000000E-03 0. -1.
         11   -1    0    0    0    0 -0.00000000000E+00 -0.00000000000E+00 -0.45593999997E+02  0.45594000000E+02  0.51100000000E-03 0.  1.
    9900012    2    1    2    0    0  0.33156536647E+02  0.30746800589E+01 -0.27835476762E+02  0.47787270208E+02  0.19999996188E+02 0.  0.
         12    1    1    2    0    0 -0.33156536647E+02 -0.30746800589E+01  0.27835476762E+02  0.43400729792E+02  0.00000000000E+00 0. -1.
         11    1    3    3    0    0  0.63415721700E+01 -0.53094600950E+01 -0.84210148008E+01  0.11803363700E+02  0.51100000000E-03 0. -1.
        -11    1    3    3    0    0  0.27616830636E+02  0.70529274677E+01 -0.19305969408E+02  0.34426059537E+02  0.51100000000E-03 0.  1.
        -12    1    3    3    0    0 -0.80186615913E+00  0.13312126861E+01 -0.10849255383E+00  0.15578469717E+01  0.00000000000E+00 0.  1.
</event>
<event>
 7    1  0.5031164E-009  0.4778728E+02  0.7816164E-02  0.1312668E+00
        -11   -1    0    0    0    0  0.00000000000E+00  0.00000000000E+00  0.45593999997E+02  0.45594000000E+02  0.51100000000E-03 0. -1.
         11   -1    0    0    0    0 -0.00000000000E+00 -0.00000000000E+00 -0.45593999997E+02  0.45594000000E+02  0.51100000000E-03 0.  1.
    9900012    2    1    2    0    0 -0.39042930650E+02  0.12802168660E+02  0.13977709782E+02  0.47787281954E+02  0.20000049740E+02 0.  0.
         12    1    1    2    0    0  0.39042930650E+02 -0.12802168660E+02 -0.13977709782E+02  0.43400718046E+02  0.00000000000E+00 0. -1.
         11    1    3    3    0    0 -0.15700029281E+02  0.12673478842E+02  0.76811185016E+01  0.21589524475E+02  0.51100000000E-03 0. -1.
        -11    1    3    3    0    0 -0.22256353431E+02  0.69201310743E+00  0.83714992694E+01  0.23788782029E+02  0.51100000000E-03 0.  1.
         12    1    3    3    0    0 -0.10865479387E+01 -0.56332328912E+00 -0.20749079890E+01  0.24089754490E+01  0.00000000000E+00 0. -1.
</event>
<event>
 7    1  0.5031164E-009  0.4778732E+02  0.7816164E-02  0.1312668E+00
        -11   -1    0    0    0    0  0.00000000000E+00  0.00000000000E+00  0.45593999997E+02  0.45594000000E+02  0.51100000000E-03 0.  1.
         11   -1    0    0    0    0 -0.00000000000E+00 -0.00000000000E+00 -0.45593999997E+02  0.45594000000E+02  0.51100000000E-03 0. -1.
    9900012    2    1    2    0    0 -0.29912047702E+01  0.19370687321E+02  0.38722710876E+02  0.47787318313E+02  0.20000215516E+02 0.  0.
         12    1    1    2    0    0  0.29912047702E+01 -0.19370687321E+02 -0.38722710876E+02  0.43400681687E+02  0.00000000000E+00 0. -1.
         11    1    3    3    0    0  0.71820941067E+00  0.16954941298E+02  0.35618377361E+02  0.39454463186E+02  0.51100000000E-03 0. -1.
        -11    1    3    3    0    0 -0.41682101636E+01 -0.92932550040E+00  0.11138785237E+01  0.44134280871E+01  0.51100000000E-03 0.  1.
        -12    1    3    3    0    0  0.45879598268E+00  0.33450715236E+01  0.19904549916E+01  0.39194270404E+01  0.00000000000E+00 0.  1.
</event>
<event>
 7    1  0.5031164E-009  0.4778726E+02  0.7816164E-02  0.1312668E+00
        -11   -1    0    0    0    0  0.00000000000E+00  0.00000000000E+00  0.45593999997E+02  0.45594000000E+02  0.51100000000E-03 0.  1.
         11   -1    0    0    0    0 -0.00000000000E+00 -0.00000000000E+00 -0.45593999997E+02  0.45594000000E+02  0.51100000000E-03 0. -1.
    9900012    2    1    2    0    0 -0.12367225863E+02  0.37038691457E+02  0.18942310677E+02  0.47787261825E+02  0.19999957964E+02 0.  0.
         12    1    1    2    0    0  0.12367225863E+02 -0.37038691457E+02 -0.18942310677E+02  0.43400738175E+02  0.00000000000E+00 0. -1.
         11    1    3    3    0    0 -0.11295196512E+01  0.19666362729E+02  0.72877258628E+00  0.19712248664E+02  0.51100000000E-03 0. -1.
        -11    1    3    3    0    0 -0.33026627546E+01  0.73248848510E+01  0.10145754584E+02  0.12942096263E+02  0.51100000000E-03 0.  1.
         12    1    3    3    0    0 -0.79350434576E+01  0.10047443876E+02  0.80677835070E+01  0.15132916898E+02  0.00000000000E+00 0. -1.
</event>
<event>
 7    1  0.5031164E-009  0.4778727E+02  0.7816164E-02  0.1312668E+00
        -11   -1    0    0    0    0  0.00000000000E+00  0.00000000000E+00  0.45593999997E+02  0.45594000000E+02  0.51100000000E-03 0. -1.
         11   -1    0    0    0    0 -0.00000000000E+00 -0.00000000000E+00 -0.45593999997E+02  0.45594000000E+02  0.51100000000E-03 0.  1.
    9900012    2    1    2    0    0 -0.21147956879E+02  0.37705240328E+02 -0.38343315591E+01  0.47787270434E+02  0.19999997216E+02 0.  0.
         12    1    1    2    0    0  0.21147956879E+02 -0.37705240328E+02  0.38343315591E+01  0.43400729566E+02  0.00000000000E+00 0. -1.
         11    1    3    3    0    0 -0.90380507399E+01  0.20888473456E+01 -0.22367878564E+01  0.95421624690E+01  0.51100000000E-03 0. -1.
        -11    1    3    3    0    0 -0.10615588556E+02  0.26671783452E+02 -0.36768297253E+01  0.28941213347E+02  0.51100000000E-03 0.  1.
         12    1    3    3    0    0 -0.14943175829E+01  0.89446095306E+01  0.20792860226E+01  0.93038946177E+01  0.00000000000E+00 0. -1.
</event>
<event>
 7    1  0.5031164E-009  0.4778727E+02  0.7816164E-02  0.1312668E+00
        -11   -1    0    0    0    0  0.00000000000E+00  0.00000000000E+00  0.45593999997E+02  0.45594000000E+02  0.51100000000E-03 0.  1.
         11   -1    0    0    0    0 -0.00000000000E+00 -0.00000000000E+00 -0.45593999997E+02  0.45594000000E+02  0.51100000000E-03 0. -1.
    9900012    2    1    2    0    0  0.13906146410E+02  0.34849420591E+02  0.21811937892E+02  0.47787266618E+02  0.19999979817E+02 0.  0.
         12    1    1    2    0    0 -0.13906146410E+02 -0.34849420591E+02 -0.21811937892E+02  0.43400733382E+02  0.00000000000E+00 0. -1.
         11    1    3    3    0    0 -0.10446424586E+01  0.25091095542E+01  0.84752538906E+01  0.89003841149E+01  0.51100000000E-03 0. -1.
        -11    1    3    3    0    0  0.15201343195E+02  0.31979912901E+02  0.14012710468E+02  0.38080857646E+02  0.51100000000E-03 0.  1.
        -12    1    3    3    0    0 -0.25055432690E+00  0.36039813560E+00 -0.67602646666E+00  0.80602485725E+00  0.00000000000E+00 0.  1.
</event>
<event>
 7    1  0.5031164E-009  0.4778727E+02  0.7816164E-02  0.1312668E+00
        -11   -1    0    0    0    0  0.00000000000E+00  0.00000000000E+00  0.45593999997E+02  0.45594000000E+02  0.51100000000E-03 0.  1.
         11   -1    0    0    0    0 -0.00000000000E+00 -0.00000000000E+00 -0.45593999997E+02  0.45594000000E+02  0.51100000000E-03 0. -1.
    9900012    2    1    2    0    0  0.30421237657E+02 -0.20245449964E+02 -0.23415665901E+02  0.47787270116E+02  0.19999995769E+02 0.  0.
         12    1    1    2    0    0 -0.30421237657E+02  0.20245449964E+02  0.23415665901E+02  0.43400729884E+02  0.00000000000E+00 0. -1.
         11    1    3    3    0    0  0.18486201179E+01  0.62261810063E+00  0.23553520091E+01  0.30582238288E+01  0.51100000000E-03 0. -1.
        -11    1    3    3    0    0  0.22717233619E+02 -0.14615500987E+02 -0.23653318959E+02  0.35904944930E+02  0.51100000000E-03 0.  1.
         12    1    3    3    0    0  0.58553839203E+01 -0.62525670781E+01 -0.21176989505E+01  0.88241013573E+01  0.00000000000E+00 0. -1.
</event>
<event>
 7    1  0.5031164E-009  0.4778726E+02  0.7816164E-02  0.1312668E+00
        -11   -1    0    0    0    0  0.00000000000E+00  0.00000000000E+00  0.45593999997E+02  0.45594000000E+02  0.51100000000E-03 0.  1.
         11   -1    0    0    0    0 -0.00000000000E+00 -0.00000000000E+00 -0.45593999997E+02  0.45594000000E+02  0.51100000000E-03 0. -1.
    9900012    2    1    2    0    0  0.27717437322E+02  0.14912175429E+02  0.29883019752E+02  0.47787260637E+02  0.19999952549E+02 0.  0.
         12    1    1    2    0    0 -0.27717437322E+02 -0.14912175429E+02 -0.29883019752E+02  0.43400739363E+02  0.00000000000E+00 0. -1.
         11    1    3    3    0    0  0.56674379051E+00  0.50837789210E+00 -0.11836711125E+01  0.14073820267E+01  0.51100000000E-03 0. -1.
        -11    1    3    3    0    0 -0.29373281749E+00 -0.18128348231E+01 -0.44261805129E-01  0.18370107328E+01  0.51100000000E-03 0.  1.
        -12    1    3    3    0    0  0.27444426349E+02  0.16216632360E+02  0.31110952670E+02  0.44542867878E+02  0.00000000000E+00 0.  1.
</event>
<event>
 7    1  0.5031164E-009  0.4778727E+02  0.7816164E-02  0.1312668E+00
        -11   -1    0    0    0    0  0.00000000000E+00  0.00000000000E+00  0.45593999997E+02  0.45594000000E+02  0.51100000000E-03 0. -1.
         11   -1    0    0    0    0 -0.00000000000E+00 -0.00000000000E+00 -0.45593999997E+02  0.45594000000E+02  0.51100000000E-03 0.  1.
    9900012    2    1    2    0    0 -0.90379277395E+00  0.34519435933E+02  0.26290964727E+02  0.47787272762E+02  0.20000007833E+02 0.  0.
         12    1    1    2    0    0  0.90379277395E+00 -0.34519435933E+02 -0.26290964727E+02  0.43400727238E+02  0.00000000000E+00 0. -1.
         11    1    3    3    0    0  0.22933035711E+01  0.31616327871E+01  0.14734084529E+01  0.41744575552E+01  0.51100000000E-03 0. -1.
        -11    1    3    3    0    0 -0.54281274407E+01  0.41457800069E+01  0.17360146516E+00  0.68324371280E+01  0.51100000000E-03 0.  1.
        -12    1    3    3    0    0  0.22310310957E+01  0.27212023139E+02  0.24643954809E+02  0.36780378079E+02  0.00000000000E+00 0.  1.
</event>
<event>
 7    1  0.5031164E-009  0.4778727E+02  0.7816164E-02  0.1312668E+00
        -11   -1    0    0    0    0  0.00000000000E+00  0.00000000000E+00  0.45593999997E+02  0.45594000000E+02  0.51100000000E-03 0.  1.
         11   -1    0    0    0    0 -0.00000000000E+00 -0.00000000000E+00 -0.45593999997E+02  0.45594000000E+02  0.51100000000E-03 0. -1.
    9900012    2    1    2    0    0 -0.33524367626E+02 -0.13371237089E+02  0.24102907617E+02  0.47787270033E+02  0.19999995390E+02 0.  0.
         12    1    1    2    0    0  0.33524367626E+02  0.13371237089E+02 -0.24102907617E+02  0.43400729967E+02  0.00000000000E+00 0. -1.
         11    1    3    3    0    0 -0.87555237901E+01  0.24571903133E+01  0.10928300155E+01  0.91592171488E+01  0.51100000000E-03 0. -1.
        -11    1    3    3    0    0 -0.21341138266E+02 -0.12256107631E+02  0.13911878643E+02  0.28270067640E+02  0.51100000000E-03 0.  1.
        -12    1    3    3    0    0 -0.34277055706E+01 -0.35723197712E+01  0.90981989592E+01  0.10357985245E+02  0.00000000000E+00 0.  1.
</event>
<event>
 7    1  0.5031164E-009  0.4778727E+02  0.7816164E-02  0.1312668E+00
        -11   -1    0    0    0    0  0.00000000000E+00  0.00000000000E+00  0.45593999997E+02  0.45594000000E+02  0.51100000000E-03 0.  1.
         11   -1    0    0    0    0 -0.00000000000E+00 -0.00000000000E+00 -0.45593999997E+02  0.45594000000E+02  0.51100000000E-03 0. -1.
    9900012    2    1    2    0    0  0.15056869415E+02  0.57153175356E+01  0.40301971763E+02  0.47787273058E+02  0.20000009180E+02 0.  0.
         12    1    1    2    0    0 -0.15056869415E+02 -0.57153175356E+01 -0.40301971763E+02  0.43400726942E+02  0.00000000000E+00 0. -1.
         11    1    3    3    0    0  0.99782219948E+01  0.55395063326E+01  0.31850345548E+02  0.33833349766E+02  0.51100000000E-03 0. -1.
        -11    1    3    3    0    0  0.37953498580E+01 -0.37707786085E+00  0.10670536621E+02  0.11331690973E+02  0.51100000000E-03 0.  1.
         12    1    3    3    0    0  0.12832975620E+01  0.55288906376E+00 -0.22189104056E+01  0.26222323195E+01  0.00000000000E+00 0. -1.
</event>
<event>
 7    1  0.5031164E-009  0.4778727E+02  0.7816164E-02  0.1312668E+00
        -11   -1    0    0    0    0  0.00000000000E+00  0.00000000000E+00  0.45593999997E+02  0.45594000000E+02  0.51100000000E-03 0.  1.
         11   -1    0    0    0    0 -0.00000000000E+00 -0.00000000000E+00 -0.45593999997E+02  0.45594000000E+02  0.51100000000E-03 0. -1.
    9900012    2    1    2    0    0 -0.11587072731E+02  0.41474716472E+02  0.54047146053E+01  0.47787270733E+02  0.19999998581E+02 0.  0.
         12    1    1    2    0    0  0.11587072731E+02 -0.41474716472E+02 -0.54047146053E+01  0.43400729267E+02  0.00000000000E+00 0. -1.
         11    1    3    3    0    0 -0.62692504447E+01  0.15864399775E+02 -0.57841766063E+01  0.18012200882E+02  0.51100000000E-03 0. -1.
        -11    1    3    3    0    0 -0.41932764675E+01  0.73738155290E+01  0.26395180829E+00  0.84868365017E+01  0.51100000000E-03 0.  1.
         12    1    3    3    0    0 -0.11245458193E+01  0.18236501169E+02  0.10924939403E+02  0.21288233349E+02  0.00000000000E+00 0. -1.
</event>
<event>
 7    1  0.5031164E-009  0.4778727E+02  0.7816164E-02  0.1312668E+00
        -11   -1    0    0    0    0  0.00000000000E+00  0.00000000000E+00  0.45593999997E+02  0.45594000000E+02  0.51100000000E-03 0.  1.
         11   -1    0    0    0    0 -0.00000000000E+00 -0.00000000000E+00 -0.45593999997E+02  0.45594000000E+02  0.51100000000E-03 0. -1.
    9900012    2    1    2    0    0 -0.16802457065E+02 -0.91241692248E+00  0.40005855669E+02  0.47787267796E+02  0.19999985189E+02 0.  0.
         12    1    1    2    0    0  0.16802457065E+02  0.91241692248E+00 -0.40005855669E+02  0.43400732204E+02  0.00000000000E+00 0. -1.
         11    1    3    3    0    0 -0.86189801429E+01 -0.45258060484E+00  0.24378057837E+01  0.89685308277E+01  0.51100000000E-03 0. -1.
        -11    1    3    3    0    0 -0.73836078197E+00 -0.18141037434E+01  0.11839796182E+02  0.12000705102E+02  0.51100000000E-03 0.  1.
         12    1    3    3    0    0 -0.74451161399E+01  0.13542674258E+01  0.25728253703E+02  0.26818031867E+02  0.00000000000E+00 0. -1.
</event>
<event>
 7    1  0.5031164E-009  0.4778727E+02  0.7816164E-02  0.1312668E+00
        -11   -1    0    0    0    0  0.00000000000E+00  0.00000000000E+00  0.45593999997E+02  0.45594000000E+02  0.51100000000E-03 0.  1.
         11   -1    0    0    0    0 -0.00000000000E+00 -0.00000000000E+00 -0.45593999997E+02  0.45594000000E+02  0.51100000000E-03 0. -1.
    9900012    2    1    2    0    0 -0.29011831177E+02 -0.13032762323E+02  0.29531063879E+02  0.47787274478E+02  0.20000015654E+02 0.  0.
         12    1    1    2    0    0  0.29011831177E+02  0.13032762323E+02 -0.29531063879E+02  0.43400725522E+02  0.00000000000E+00 0. -1.
         11    1    3    3    0    0 -0.52035253704E+01 -0.12912841910E+00  0.32044726011E+01  0.61124459377E+01  0.51100000000E-03 0. -1.
        -11    1    3    3    0    0 -0.21927020419E+02 -0.89195055373E+01  0.28259131636E+02  0.36863672152E+02  0.51100000000E-03 0.  1.
        -12    1    3    3    0    0 -0.18812853876E+01 -0.39841283668E+01 -0.19325403576E+01  0.48111563877E+01  0.00000000000E+00 0.  1.
</event>
<event>
 7    1  0.5031164E-009  0.4778728E+02  0.7816164E-02  0.1312668E+00
        -11   -1    0    0    0    0  0.00000000000E+00  0.00000000000E+00  0.45593999997E+02  0.45594000000E+02  0.51100000000E-03 0.  1.
         11   -1    0    0    0    0 -0.00000000000E+00 -0.00000000000E+00 -0.45593999997E+02  0.45594000000E+02  0.51100000000E-03 0. -1.
    9900012    2    1    2    0    0 -0.21450845226E+01 -0.33221395515E+02  0.27845291387E+02  0.47787276965E+02  0.20000026992E+02 0.  0.
         12    1    1    2    0    0  0.21450845226E+01  0.33221395515E+02 -0.27845291387E+02  0.43400723035E+02  0.00000000000E+00 0. -1.
         11    1    3    3    0    0  0.10679597472E+00  0.49024872480E+00 -0.16775380458E+01  0.17509664042E+01  0.51100000000E-03 0. -1.
        -11    1    3    3    0    0  0.90488416842E+00 -0.27951954151E+02  0.27352647204E+02  0.39119021786E+02  0.51100000000E-03 0.  1.
        -12    1    3    3    0    0 -0.31567646658E+01 -0.57596900890E+01  0.21701822289E+01  0.69172887740E+01  0.00000000000E+00 0.  1.
</event>
<event>
 7    1  0.5031164E-009  0.4778729E+02  0.7816164E-02  0.1312668E+00
        -11   -1    0    0    0    0  0.00000000000E+00  0.00000000000E+00  0.45593999997E+02  0.45594000000E+02  0.51100000000E-03 0. -1.
         11   -1    0    0    0    0 -0.00000000000E+00 -0.00000000000E+00 -0.45593999997E+02  0.45594000000E+02  0.51100000000E-03 0.  1.
    9900012    2    1    2    0    0 -0.31061355924E+02  0.14487787895E+02 -0.26625514571E+02  0.47787287378E+02  0.20000074472E+02 0.  0.
         12    1    1    2    0    0  0.31061355924E+02 -0.14487787895E+02  0.26625514571E+02  0.43400712622E+02  0.00000000000E+00 0. -1.
         11    1    3    3    0    0 -0.93926671384E+00  0.21667080659E+01  0.13960480783E+01  0.27433184833E+01  0.51100000000E-03 0. -1.
        -11    1    3    3    0    0 -0.24925471878E+02  0.91376806500E+01 -0.28477759498E+02  0.38932751538E+02  0.51100000000E-03 0.  1.
        -12    1    3    3    0    0 -0.51966173315E+01  0.31833991789E+01  0.45619684836E+00  0.61112173572E+01  0.00000000000E+00 0.  1.
</event>
<event>
 7    1  0.5031164E-009  0.4778727E+02  0.7816164E-02  0.1312668E+00
        -11   -1    0    0    0    0  0.00000000000E+00  0.00000000000E+00  0.45593999997E+02  0.45594000000E+02  0.51100000000E-03 0. -1.
         11   -1    0    0    0    0 -0.00000000000E+00 -0.00000000000E+00 -0.45593999997E+02  0.45594000000E+02  0.51100000000E-03 0.  1.
    9900012    2    1    2    0    0 -0.22097903581E+02  0.11074781067E+02 -0.35674291107E+02  0.47787272306E+02  0.20000005754E+02 0.  0.
         12    1    1    2    0    0  0.22097903581E+02 -0.11074781067E+02  0.35674291107E+02  0.43400727694E+02  0.00000000000E+00 0. -1.
         11    1    3    3    0    0 -0.87084021621E+00 -0.12969776566E+01 -0.13021482513E+02  0.13114858780E+02  0.51100000000E-03 0. -1.
        -11    1    3    3    0    0 -0.22004258216E+02  0.10904901321E+02 -0.20782607379E+02  0.32171742604E+02  0.51100000000E-03 0.  1.
        -12    1    3    3    0    0  0.77719485142E+00  0.14668574024E+01 -0.18702012143E+01  0.25006709215E+01  0.00000000000E+00 0.  1.
</event>
<event>
 7    1  0.5031164E-009  0.4778727E+02  0.7816164E-02  0.1312668E+00
        -11   -1    0    0    0    0  0.00000000000E+00  0.00000000000E+00  0.45593999997E+02  0.45594000000E+02  0.51100000000E-03 0.  1.
         11   -1    0    0    0    0 -0.00000000000E+00 -0.00000000000E+00 -0.45593999997E+02  0.45594000000E+02  0.51100000000E-03 0. -1.
    9900012    2    1    2    0    0 -0.33929695037E+01  0.36247271000E+02  0.23627231659E+02  0.47787274512E+02  0.20000015811E+02 0.  0.
         12    1    1    2    0    0  0.33929695037E+01 -0.36247271000E+02 -0.23627231659E+02  0.43400725488E+02  0.00000000000E+00 0. -1.
         11    1    3    3    0    0 -0.54427612105E+01  0.30300890468E+02  0.15858475454E+02  0.34630317018E+02  0.51100000000E-03 0. -1.
        -11    1    3    3    0    0  0.55148264741E+00  0.74791521108E+01  0.32853247914E+01  0.81875032002E+01  0.51100000000E-03 0.  1.
         12    1    3    3    0    0  0.14983090594E+01 -0.15327715787E+01  0.44834314132E+01  0.49694542946E+01  0.00000000000E+00 0. -1.
</event>
<event>
 7    1  0.5031164E-009  0.4778727E+02  0.7816164E-02  0.1312668E+00
        -11   -1    0    0    0    0  0.00000000000E+00  0.00000000000E+00  0.45593999997E+02  0.45594000000E+02  0.51100000000E-03 0. -1.
         11   -1    0    0    0    0 -0.00000000000E+00 -0.00000000000E+00 -0.45593999997E+02  0.45594000000E+02  0.51100000000E-03 0.  1.
    9900012    2    1    2    0    0  0.47564396654E+01  0.21252764426E+02 -0.37540909554E+02  0.47787267239E+02  0.19999982650E+02 0.  0.
         12    1    1    2    0    0 -0.47564396654E+01 -0.21252764426E+02  0.37540909554E+02  0.43400732761E+02  0.00000000000E+00 0. -1.
         11    1    3    3    0    0  0.47871121523E+01  0.88116249650E+01 -0.68852347411E+01  0.12164194794E+02  0.51100000000E-03 0. -1.
        -11    1    3    3    0    0 -0.65527023179E+01  0.74839205231E+01 -0.16375820828E+02  0.19160231786E+02  0.51100000000E-03 0.  1.
        -12    1    3    3    0    0  0.65220298311E+01  0.49572189378E+01 -0.14279853985E+02  0.16462840659E+02  0.00000000000E+00 0.  1.
</event>
<event>
 7    1  0.5031164E-009  0.4778727E+02  0.7816164E-02  0.1312668E+00
        -11   -1    0    0    0    0  0.00000000000E+00  0.00000000000E+00  0.45593999997E+02  0.45594000000E+02  0.51100000000E-03 0.  1.
         11   -1    0    0    0    0 -0.00000000000E+00 -0.00000000000E+00 -0.45593999997E+02  0.45594000000E+02  0.51100000000E-03 0. -1.
    9900012    2    1    2    0    0  0.35977109142E+02  0.91447673881E+01  0.22486534415E+02  0.47787269790E+02  0.19999994278E+02 0.  0.
         12    1    1    2    0    0 -0.35977109142E+02 -0.91447673881E+01 -0.22486534415E+02  0.43400730210E+02  0.00000000000E+00 0. -1.
         11    1    3    3    0    0  0.14494148671E+02  0.11595925808E+02  0.41040546657E+01  0.19010236874E+02  0.51100000000E-03 0. -1.
        -11    1    3    3    0    0  0.16301091819E+02 -0.38849743001E+00  0.15507112389E+02  0.22502156778E+02  0.51100000000E-03 0.  1.
         12    1    3    3    0    0  0.51818686519E+01 -0.20626609901E+01  0.28753673602E+01  0.62748761376E+01  0.00000000000E+00 0. -1.
</event>
<event>
 7    1  0.5031164E-009  0.4778728E+02  0.7816164E-02  0.1312668E+00
        -11   -1    0    0    0    0  0.00000000000E+00  0.00000000000E+00  0.45593999997E+02  0.45594000000E+02  0.51100000000E-03 0. -1.
         11   -1    0    0    0    0 -0.00000000000E+00 -0.00000000000E+00 -0.45593999997E+02  0.45594000000E+02  0.51100000000E-03 0.  1.
    9900012    2    1    2    0    0  0.27146598977E+02  0.70572004917E+01 -0.33119183275E+02  0.47787283236E+02  0.20000055586E+02 0.  0.
         12    1    1    2    0    0 -0.27146598977E+02 -0.70572004917E+01  0.33119183275E+02  0.43400716764E+02  0.00000000000E+00 0. -1.
         11    1    3    3    0    0  0.14253232519E+01  0.28751010710E+01  0.11960465823E+01  0.34246576806E+01  0.51100000000E-03 0. -1.
        -11    1    3    3    0    0  0.20355957516E+02 -0.12979140690E+01 -0.26083535570E+02  0.33111937658E+02  0.51100000000E-03 0.  1.
        -12    1    3    3    0    0  0.53653182090E+01  0.54800134897E+01 -0.82316942873E+01  0.11250687898E+02  0.00000000000E+00 0.  1.
</event>
<event>
 7    1  0.5031164E-009  0.4778727E+02  0.7816164E-02  0.1312668E+00
        -11   -1    0    0    0    0  0.00000000000E+00  0.00000000000E+00  0.45593999997E+02  0.45594000000E+02  0.51100000000E-03 0.  1.
         11   -1    0    0    0    0 -0.00000000000E+00 -0.00000000000E+00 -0.45593999997E+02  0.45594000000E+02  0.51100000000E-03 0. -1.
    9900012    2    1    2    0    0  0.26558502823E+02  0.28803318608E+02  0.18671852026E+02  0.47787270823E+02  0.19999998992E+02 0.  0.
         12    1    1    2    0    0 -0.26558502823E+02 -0.28803318608E+02 -0.18671852026E+02  0.43400729177E+02  0.00000000000E+00 0. -1.
         11    1    3    3    0    0  0.17640848002E+02  0.25470826491E+02  0.15813602764E+02  0.34785522176E+02  0.51100000000E-03 0. -1.
        -11    1    3    3    0    0  0.82176017582E+01  0.57143121818E+01  0.31713513336E+01  0.10499514842E+02  0.51100000000E-03 0.  1.
         12    1    3    3    0    0  0.70005306189E+00 -0.23818200650E+01 -0.31310207232E+00  0.25022338059E+01  0.00000000000E+00 0. -1.
</event>
<event>
 7    1  0.5031164E-009  0.4778727E+02  0.7816164E-02  0.1312668E+00
        -11   -1    0    0    0    0  0.00000000000E+00  0.00000000000E+00  0.45593999997E+02  0.45594000000E+02  0.51100000000E-03 0.  1.
         11   -1    0    0    0    0 -0.00000000000E+00 -0.00000000000E+00 -0.45593999997E+02  0.45594000000E+02  0.51100000000E-03 0. -1.
    9900012    2    1    2    0    0 -0.39608877208E+02 -0.97613120857E+01  0.14814746594E+02  0.47787273232E+02  0.20000009974E+02 0.  0.
         12    1    1    2    0    0  0.39608877208E+02  0.97613120857E+01 -0.14814746594E+02  0.43400726768E+02  0.00000000000E+00 0. -1.
         11    1    3    3    0    0 -0.87690578330E+01  0.21179299582E+01  0.76020412531E+01  0.11797162119E+02  0.51100000000E-03 0. -1.
        -11    1    3    3    0    0 -0.15330197656E+02 -0.12084654141E+02  0.19822510466E+01  0.19620987369E+02  0.51100000000E-03 0.  1.
        -12    1    3    3    0    0 -0.15509621720E+02  0.20541209705E+00  0.52304542941E+01  0.16369123744E+02  0.00000000000E+00 0.  1.
</event>
<event>
 7    1  0.7194094E-009  0.4778727E+02  0.7816164E-02  0.1312668E+00
        -11   -1    0    0    0    0  0.00000000000E+00  0.00000000000E+00  0.45593999997E+02  0.45594000000E+02  0.51100000000E-03 0. -1.
         11   -1    0    0    0    0 -0.00000000000E+00 -0.00000000000E+00 -0.45593999997E+02  0.45594000000E+02  0.51100000000E-03 0.  1.
    9900012    2    1    2    0    0  0.21995873330E+01  0.14449758239E+02 -0.40865509156E+02  0.47787268023E+02  0.19999986223E+02 0.  0.
         12    1    1    2    0    0 -0.21995873330E+01 -0.14449758239E+02  0.40865509156E+02  0.43400731977E+02  0.00000000000E+00 0. -1.
         11    1    3    3    0    0  0.26329988908E+01 -0.79266497530E-01 -0.18777103502E+01  0.32349285551E+01  0.51100000000E-03 0. -1.
        -11    1    3    3    0    0  0.45114224605E+00  0.14090790373E+02 -0.15152735466E+02  0.20696842634E+02  0.51100000000E-03 0.  1.
        -12    1    3    3    0    0 -0.88455380384E+00  0.43823436392E+00 -0.23835063339E+02  0.23855496833E+02  0.00000000000E+00 0.  1.
</event>
<event>
 7    1  0.5031164E-009  0.4778727E+02  0.7816164E-02  0.1312668E+00
        -11   -1    0    0    0    0  0.00000000000E+00  0.00000000000E+00  0.45593999997E+02  0.45594000000E+02  0.51100000000E-03 0. -1.
         11   -1    0    0    0    0 -0.00000000000E+00 -0.00000000000E+00 -0.45593999997E+02  0.45594000000E+02  0.51100000000E-03 0.  1.
    9900012    2    1    2    0    0 -0.26652542613E+02  0.33742741673E+02  0.58900285153E+01  0.47787273287E+02  0.20000010223E+02 0.  0.
         12    1    1    2    0    0  0.26652542613E+02 -0.33742741673E+02 -0.58900285153E+01  0.43400726713E+02  0.00000000000E+00 0. -1.
         11    1    3    3    0    0 -0.64153985037E+01  0.20072565987E+00 -0.40596969342E+00  0.64313638060E+01  0.51100000000E-03 0. -1.
        -11    1    3    3    0    0 -0.78795351770E+01  0.20610290471E+02  0.78064514966E+01  0.23405380431E+02  0.51100000000E-03 0.  1.
        -12    1    3    3    0    0 -0.12357608933E+02  0.12931725542E+02 -0.15104532879E+01  0.17950529050E+02  0.00000000000E+00 0.  1.
</event>
<event>
 7    1  0.5031164E-009  0.4778727E+02  0.7816164E-02  0.1312668E+00
        -11   -1    0    0    0    0  0.00000000000E+00  0.00000000000E+00  0.45593999997E+02  0.45594000000E+02  0.51100000000E-03 0.  1.
         11   -1    0    0    0    0 -0.00000000000E+00 -0.00000000000E+00 -0.45593999997E+02  0.45594000000E+02  0.51100000000E-03 0. -1.
    9900012    2    1    2    0    0 -0.88438224961E+00  0.41983365093E+02  0.10965311752E+02  0.47787272606E+02  0.20000007120E+02 0.  0.
         12    1    1    2    0    0  0.88438224961E+00 -0.41983365093E+02 -0.10965311752E+02  0.43400727394E+02  0.00000000000E+00 0. -1.
         11    1    3    3    0    0 -0.69801900307E+01  0.22882692658E+02  0.10195671736E+02  0.26005622442E+02  0.51100000000E-03 0.  1.
        -11    1    3    3    0    0  0.75733711880E+01  0.99948840247E+01  0.62440946485E+00  0.12555618076E+02  0.51100000000E-03 0. -1.
        -12    1    3    3    0    0 -0.14775634070E+01  0.91057884101E+01  0.14523055076E+00  0.92260320888E+01  0.00000000000E+00 0.  1.
</event>
<event>
 7    1  0.5031164E-009  0.4778727E+02  0.7816164E-02  0.1312668E+00
        -11   -1    0    0    0    0  0.00000000000E+00  0.00000000000E+00  0.45593999997E+02  0.45594000000E+02  0.51100000000E-03 0.  1.
         11   -1    0    0    0    0 -0.00000000000E+00 -0.00000000000E+00 -0.45593999997E+02  0.45594000000E+02  0.51100000000E-03 0. -1.
    9900012    2    1    2    0    0  0.35014291846E+01 -0.22210474105E+02  0.37122210365E+02  0.47787266495E+02  0.19999979259E+02 0.  0.
         12    1    1    2    0    0 -0.35014291846E+01  0.22210474105E+02 -0.37122210365E+02  0.43400733505E+02  0.00000000000E+00 0. -1.
         11    1    3    3    0    0 -0.21194750704E+01 -0.18179779321E+02  0.27261977652E+02  0.32836138270E+02  0.51100000000E-03 0.  1.
        -11    1    3    3    0    0  0.27305294363E+01 -0.60576696629E+01  0.92175057352E+01  0.11362815012E+02  0.51100000000E-03 0. -1.
         12    1    3    3    0    0  0.28903748187E+01  0.20269748784E+01  0.64272697816E+00  0.35883132136E+01  0.00000000000E+00 0. -1.
</event>
<event>
 7    1  0.5031164E-009  0.4778727E+02  0.7816164E-02  0.1312668E+00
        -11   -1    0    0    0    0  0.00000000000E+00  0.00000000000E+00  0.45593999997E+02  0.45594000000E+02  0.51100000000E-03 0.  1.
         11   -1    0    0    0    0 -0.00000000000E+00 -0.00000000000E+00 -0.45593999997E+02  0.45594000000E+02  0.51100000000E-03 0. -1.
    9900012    2    1    2    0    0 -0.39678499095E+02 -0.16610665947E+01  0.17506591969E+02  0.47787271953E+02  0.20000004143E+02 0.  0.
         12    1    1    2    0    0  0.39678499095E+02  0.16610665947E+01 -0.17506591969E+02  0.43400728047E+02  0.00000000000E+00 0. -1.
         11    1    3    3    0    0 -0.16696019515E+02  0.84156611318E+01  0.47610119898E+01  0.19293720620E+02  0.51100000000E-03 0. -1.
        -11    1    3    3    0    0 -0.28855197558E+01  0.23405914759E+00  0.15419886099E+01  0.32800513837E+01  0.51100000000E-03 0.  1.
         12    1    3    3    0    0 -0.20096959824E+02 -0.10310786874E+02  0.11203591369E+02  0.25213499949E+02  0.00000000000E+00 0. -1.
</event>
<event>
 7    1  0.5031164E-009  0.4778727E+02  0.7816164E-02  0.1312668E+00
        -11   -1    0    0    0    0  0.00000000000E+00  0.00000000000E+00  0.45593999997E+02  0.45594000000E+02  0.51100000000E-03 0.  1.
         11   -1    0    0    0    0 -0.00000000000E+00 -0.00000000000E+00 -0.45593999997E+02  0.45594000000E+02  0.51100000000E-03 0. -1.
    9900012    2    1    2    0    0 -0.11947584107E+02  0.31254189330E+02  0.27641526884E+02  0.47787272757E+02  0.20000007810E+02 0.  0.
         12    1    1    2    0    0  0.11947584107E+02 -0.31254189330E+02 -0.27641526884E+02  0.43400727243E+02  0.00000000000E+00 0. -1.
         11    1    3    3    0    0  0.59001067430E+00 -0.53308464530E+00  0.25867686777E+01  0.27062269469E+01  0.51100000000E-03 0. -1.
        -11    1    3    3    0    0 -0.37766047298E+01  0.18485503795E+02  0.21788044597E+02  0.28821788311E+02  0.51100000000E-03 0.  1.
        -12    1    3    3    0    0 -0.87609900517E+01  0.13301770180E+02  0.32667136097E+01  0.16259257499E+02  0.00000000000E+00 0.  1.
</event>
<event>
 7    1  0.5031164E-009  0.4778729E+02  0.7816164E-02  0.1312668E+00
        -11   -1    0    0    0    0  0.00000000000E+00  0.00000000000E+00  0.45593999997E+02  0.45594000000E+02  0.51100000000E-03 0.  1.
         11   -1    0    0    0    0 -0.00000000000E+00 -0.00000000000E+00 -0.45593999997E+02  0.45594000000E+02  0.51100000000E-03 0. -1.
    9900012    2    1    2    0    0 -0.40507090270E+02 -0.15323144582E+02  0.28282200872E+01  0.47787286286E+02  0.20000069493E+02 0.  0.
         12    1    1    2    0    0  0.40507090270E+02  0.15323144582E+02 -0.28282200872E+01  0.43400713714E+02  0.00000000000E+00 0. -1.
         11    1    3    3    0    0 -0.73868289070E+01  0.35141052046E+01 -0.12508224174E+01  0.82751878330E+01  0.51100000000E-03 0. -1.
        -11    1    3    3    0    0 -0.19101782253E+02 -0.15909228797E+02  0.40755040549E+01  0.25191097232E+02  0.51100000000E-03 0.  1.
        -12    1    3    3    0    0 -0.14018479110E+02 -0.29280209895E+01  0.35384496718E-02  0.14321001222E+02  0.00000000000E+00 0.  1.
</event>
<event>
 7    1  0.5031164E-009  0.4778727E+02  0.7816164E-02  0.1312668E+00
        -11   -1    0    0    0    0  0.00000000000E+00  0.00000000000E+00  0.45593999997E+02  0.45594000000E+02  0.51100000000E-03 0.  1.
         11   -1    0    0    0    0 -0.00000000000E+00 -0.00000000000E+00 -0.45593999997E+02  0.45594000000E+02  0.51100000000E-03 0. -1.
    9900012    2    1    2    0    0  0.16374633257E+02  0.11856965509E+02  0.38404520601E+02  0.47787269039E+02  0.19999990858E+02 0.  0.
         12    1    1    2    0    0 -0.16374633257E+02 -0.11856965509E+02 -0.38404520601E+02  0.43400730961E+02  0.00000000000E+00 0. -1.
         11    1    3    3    0    0  0.10061848270E+01 -0.25488854599E+01  0.15135254294E+02  0.15381324644E+02  0.51100000000E-03 0. -1.
        -11    1    3    3    0    0  0.12365747889E+02  0.12420804466E+02  0.13901781387E+02  0.22370686857E+02  0.51100000000E-03 0.  1.
        -12    1    3    3    0    0  0.30027005407E+01  0.19850465023E+01  0.93674849195E+01  0.10035257539E+02  0.00000000000E+00 0.  1.
</event>
<event>
 7    1  0.5031164E-009  0.4778727E+02  0.7816164E-02  0.1312668E+00
        -11   -1    0    0    0    0  0.00000000000E+00  0.00000000000E+00  0.45593999997E+02  0.45594000000E+02  0.51100000000E-03 0.  1.
         11   -1    0    0    0    0 -0.00000000000E+00 -0.00000000000E+00 -0.45593999997E+02  0.45594000000E+02  0.51100000000E-03 0. -1.
    9900012    2    1    2    0    0 -0.99295588006E+01 -0.11329486174E+02  0.40702210937E+02  0.47787269936E+02  0.19999994947E+02 0.  0.
         12    1    1    2    0    0  0.99295588006E+01  0.11329486174E+02 -0.40702210937E+02  0.43400730064E+02  0.00000000000E+00 0. -1.
         11    1    3    3    0    0 -0.76300366081E+01 -0.10659573231E+02  0.15245483847E+02  0.20106435241E+02  0.51100000000E-03 0. -1.
        -11    1    3    3    0    0 -0.12725158032E+01 -0.18841795457E+01  0.25923808150E+02  0.26023321431E+02  0.51100000000E-03 0.  1.
         12    1    3    3    0    0 -0.10270063893E+01  0.12142666021E+01 -0.46708106068E+00  0.16575132645E+01  0.00000000000E+00 0. -1.
</event>
<event>
 7    1  0.5031164E-009  0.4778729E+02  0.7816164E-02  0.1312668E+00
        -11   -1    0    0    0    0  0.00000000000E+00  0.00000000000E+00  0.45593999997E+02  0.45594000000E+02  0.51100000000E-03 0.  1.
         11   -1    0    0    0    0 -0.00000000000E+00 -0.00000000000E+00 -0.45593999997E+02  0.45594000000E+02  0.51100000000E-03 0. -1.
    9900012    2    1    2    0    0  0.16694475997E+02 -0.36469009407E+02  0.16580925697E+02  0.47787294097E+02  0.20000105105E+02 0.  0.
         12    1    1    2    0    0 -0.16694475997E+02  0.36469009407E+02 -0.16580925697E+02  0.43400705903E+02  0.00000000000E+00 0. -1.
         11    1    3    3    0    0  0.18437768465E+02 -0.33628075079E+02  0.11565019067E+02  0.40056814723E+02  0.51100000000E-03 0.  1.
        -11    1    3    3    0    0 -0.29110049567E+01 -0.34773665280E+01  0.36213539155E+01  0.58034672628E+01  0.51100000000E-03 0. -1.
        -12    1    3    3    0    0  0.11677124888E+01  0.63643220042E+00  0.13945527141E+01  0.19270121107E+01  0.00000000000E+00 0.  1.
</event>
<event>
 7    1  0.5031164E-009  0.4778727E+02  0.7816164E-02  0.1312668E+00
        -11   -1    0    0    0    0  0.00000000000E+00  0.00000000000E+00  0.45593999997E+02  0.45594000000E+02  0.51100000000E-03 0. -1.
         11   -1    0    0    0    0 -0.00000000000E+00 -0.00000000000E+00 -0.45593999997E+02  0.45594000000E+02  0.51100000000E-03 0.  1.
    9900012    2    1    2    0    0 -0.18878084427E+02 -0.38670139175E+02 -0.56445836528E+01  0.47787273507E+02  0.20000011230E+02 0.  0.
         12    1    1    2    0    0  0.18878084427E+02  0.38670139175E+02  0.56445836528E+01  0.43400726493E+02  0.00000000000E+00 0. -1.
         11    1    3    3    0    0  0.64487800798E-02 -0.85892304573E+01 -0.10263266642E+01  0.86503334108E+01  0.51100000000E-03 0. -1.
        -11    1    3    3    0    0  0.18274187423E+00 -0.77650407205E+01  0.37358347656E+01  0.86189160363E+01  0.51100000000E-03 0.  1.
        -12    1    3    3    0    0 -0.19067275081E+02 -0.22315867998E+02 -0.83540917542E+01  0.30518024060E+02  0.00000000000E+00 0.  1.
</event>
<event>
 7    1  0.5031164E-009  0.4778727E+02  0.7816164E-02  0.1312668E+00
        -11   -1    0    0    0    0  0.00000000000E+00  0.00000000000E+00  0.45593999997E+02  0.45594000000E+02  0.51100000000E-03 0. -1.
         11   -1    0    0    0    0 -0.00000000000E+00 -0.00000000000E+00 -0.45593999997E+02  0.45594000000E+02  0.51100000000E-03 0.  1.
    9900012    2    1    2    0    0  0.43024895743E+02 -0.44571454370E+01  0.35518726869E+01  0.47787267302E+02  0.19999982938E+02 0.  0.
         12    1    1    2    0    0 -0.43024895743E+02  0.44571454370E+01 -0.35518726869E+01  0.43400732698E+02  0.00000000000E+00 0. -1.
         11    1    3    3    0    0  0.15289829624E+02 -0.28746958187E+01  0.91116254431E+01  0.18029544766E+02  0.51100000000E-03 0. -1.
        -11    1    3    3    0    0  0.14850218089E+02 -0.42110747013E+01  0.11284248280E+00  0.15436154350E+02  0.51100000000E-03 0.  1.
         12    1    3    3    0    0  0.12884848030E+02  0.26286250829E+01 -0.56725952390E+01  0.14321568187E+02  0.00000000000E+00 0. -1.
</event>
<event>
 7    1  0.5031164E-009  0.4778727E+02  0.7816164E-02  0.1312668E+00
        -11   -1    0    0    0    0  0.00000000000E+00  0.00000000000E+00  0.45593999997E+02  0.45594000000E+02  0.51100000000E-03 0.  1.
         11   -1    0    0    0    0 -0.00000000000E+00 -0.00000000000E+00 -0.45593999997E+02  0.45594000000E+02  0.51100000000E-03 0. -1.
    9900012    2    1    2    0    0  0.11500394570E+02  0.27904227351E+02  0.31188438691E+02  0.47787266282E+02  0.19999978285E+02 0.  0.
         12    1    1    2    0    0 -0.11500394570E+02 -0.27904227351E+02 -0.31188438691E+02  0.43400733718E+02  0.00000000000E+00 0. -1.
         11    1    3    3    0    0  0.18770213044E+01  0.30871466872E+00  0.98366210070E+01  0.10018863549E+02  0.51100000000E-03 0. -1.
        -11    1    3    3    0    0  0.48612282083E+01  0.20879724923E+02  0.20199514930E+02  0.29455302684E+02  0.51100000000E-03 0.  1.
        -12    1    3    3    0    0  0.47621450572E+01  0.67157877596E+01  0.11523027536E+01  0.83131000484E+01  0.00000000000E+00 0.  1.
</event>
<event>
 7    1  0.5031164E-009  0.4778728E+02  0.7816164E-02  0.1312668E+00
        -11   -1    0    0    0    0  0.00000000000E+00  0.00000000000E+00  0.45593999997E+02  0.45594000000E+02  0.51100000000E-03 0. -1.
         11   -1    0    0    0    0 -0.00000000000E+00 -0.00000000000E+00 -0.45593999997E+02  0.45594000000E+02  0.51100000000E-03 0.  1.
    9900012    2    1    2    0    0  0.42500423616E+02 -0.67790402363E-01 -0.87938646055E+01  0.47787278142E+02  0.20000032360E+02 0.  0.
         12    1    1    2    0    0 -0.42500423616E+02  0.67790402363E-01  0.87938646055E+01  0.43400721858E+02  0.00000000000E+00 0. -1.
         11    1    3    3    0    0  0.10259700504E+02 -0.64082827685E+01 -0.25506345086E+01  0.12362575748E+02  0.51100000000E-03 0. -1.
        -11    1    3    3    0    0  0.19242548243E+02  0.41122688996E+01  0.21475168985E+01  0.19793894197E+02  0.51100000000E-03 0.  1.
         12    1    3    3    0    0  0.12998174870E+02  0.22282234665E+01 -0.83907469953E+01  0.15630808197E+02  0.00000000000E+00 0. -1.
</event>
<event>
 7    1  0.5031164E-009  0.4778727E+02  0.7816164E-02  0.1312668E+00
        -11   -1    0    0    0    0  0.00000000000E+00  0.00000000000E+00  0.45593999997E+02  0.45594000000E+02  0.51100000000E-03 0. -1.
         11   -1    0    0    0    0 -0.00000000000E+00 -0.00000000000E+00 -0.45593999997E+02  0.45594000000E+02  0.51100000000E-03 0.  1.
    9900012    2    1    2    0    0  0.73896395963E+01 -0.38122446831E+02 -0.19382866631E+02  0.47787271382E+02  0.20000001541E+02 0.  0.
         12    1    1    2    0    0 -0.73896395963E+01  0.38122446831E+02  0.19382866631E+02  0.43400728618E+02  0.00000000000E+00 0. -1.
         11    1    3    3    0    0  0.84939115985E+01 -0.16540968857E+02 -0.88605661087E+00  0.18615458134E+02  0.51100000000E-03 0. -1.
        -11    1    3    3    0    0  0.16878124015E+01 -0.17510278637E+02 -0.15051394054E+02  0.23151739284E+02  0.51100000000E-03 0.  1.
        -12    1    3    3    0    0 -0.27920844037E+01 -0.40711993367E+01 -0.34454159655E+01  0.60200739640E+01  0.00000000000E+00 0.  1.
</event>
<event>
 7    1  0.5031164E-009  0.4778727E+02  0.7816164E-02  0.1312668E+00
        -11   -1    0    0    0    0  0.00000000000E+00  0.00000000000E+00  0.45593999997E+02  0.45594000000E+02  0.51100000000E-03 0.  1.
         11   -1    0    0    0    0 -0.00000000000E+00 -0.00000000000E+00 -0.45593999997E+02  0.45594000000E+02  0.51100000000E-03 0. -1.
    9900012    2    1    2    0    0  0.18620175978E+02  0.29748208228E+02  0.25533435848E+02  0.47787271983E+02  0.20000004280E+02 0.  0.
         12    1    1    2    0    0 -0.18620175978E+02 -0.29748208228E+02 -0.25533435848E+02  0.43400728017E+02  0.00000000000E+00 0. -1.
         11    1    3    3    0    0  0.60405747828E+01  0.63325992198E+00  0.81559787517E+01  0.10169048702E+02  0.51100000000E-03 0. -1.
        -11    1    3    3    0    0  0.81428330545E+01  0.68196972603E+01  0.51033202575E+01  0.11783797299E+02  0.51100000000E-03 0.  1.
        -12    1    3    3    0    0  0.44367681402E+01  0.22295251046E+02  0.12274136838E+02  0.25834425982E+02  0.00000000000E+00 0.  1.
</event>
<event>
 7    1  0.5031164E-009  0.4778727E+02  0.7816164E-02  0.1312668E+00
        -11   -1    0    0    0    0  0.00000000000E+00  0.00000000000E+00  0.45593999997E+02  0.45594000000E+02  0.51100000000E-03 0. -1.
         11   -1    0    0    0    0 -0.00000000000E+00 -0.00000000000E+00 -0.45593999997E+02  0.45594000000E+02  0.51100000000E-03 0.  1.
    9900012    2    1    2    0    0  0.22895204774E+02 -0.23481682532E+02 -0.28426110995E+02  0.47787267259E+02  0.19999982740E+02 0.  0.
         12    1    1    2    0    0 -0.22895204774E+02  0.23481682532E+02  0.28426110995E+02  0.43400732741E+02  0.00000000000E+00 0. -1.
         11    1    3    3    0    0  0.31727388041E+01 -0.12143699033E+02 -0.77520566884E+01  0.14752290699E+02  0.51100000000E-03 0. -1.
        -11    1    3    3    0    0  0.21271388658E+02 -0.95916719553E+01 -0.17896091621E+02  0.29406499994E+02  0.51100000000E-03 0.  1.
         12    1    3    3    0    0 -0.15489226880E+01 -0.17463115438E+01 -0.27779626863E+01  0.36284765657E+01  0.00000000000E+00 0. -1.
</event>
<event>
 7    1  0.5031164E-009  0.4778726E+02  0.7816164E-02  0.1312668E+00
        -11   -1    0    0    0    0  0.00000000000E+00  0.00000000000E+00  0.45593999997E+02  0.45594000000E+02  0.51100000000E-03 0.  1.
         11   -1    0    0    0    0 -0.00000000000E+00 -0.00000000000E+00 -0.45593999997E+02  0.45594000000E+02  0.51100000000E-03 0. -1.
    9900012    2    1    2    0    0 -0.26025810845E+02 -0.17302303521E+02  0.30114972305E+02  0.47787261594E+02  0.19999956911E+02 0.  0.
         12    1    1    2    0    0  0.26025810845E+02  0.17302303521E+02 -0.30114972305E+02  0.43400738406E+02  0.00000000000E+00 0. -1.
         11    1    3    3    0    0  0.24614189520E+00  0.29730277386E+00  0.39949022123E+00  0.55548849663E+00  0.51100000000E-03 0. -1.
        -11    1    3    3    0    0 -0.14804235732E+01  0.36847772247E+01  0.23738061511E+01  0.46264665843E+01  0.51100000000E-03 0.  1.
        -12    1    3    3    0    0 -0.24791529167E+02 -0.21284383520E+02  0.27341675933E+02  0.42605306513E+02  0.00000000000E+00 0.  1.
</event>
<event>
 7    1  0.5031164E-009  0.4778727E+02  0.7816164E-02  0.1312668E+00
        -11   -1    0    0    0    0  0.00000000000E+00  0.00000000000E+00  0.45593999997E+02  0.45594000000E+02  0.51100000000E-03 0. -1.
         11   -1    0    0    0    0 -0.00000000000E+00 -0.00000000000E+00 -0.45593999997E+02  0.45594000000E+02  0.51100000000E-03 0.  1.
    9900012    2    1    2    0    0 -0.26126285113E+02  0.23197064380E+02 -0.25747562195E+02  0.47787268110E+02  0.19999986619E+02 0.  0.
         12    1    1    2    0    0  0.26126285113E+02 -0.23197064380E+02  0.25747562195E+02  0.43400731890E+02  0.00000000000E+00 0. -1.
         11    1    3    3    0    0 -0.43920711682E+01  0.30489191769E+00 -0.10189452277E+02  0.11099918297E+02  0.51100000000E-03 0. -1.
        -11    1    3    3    0    0 -0.73542060888E+01  0.14627811023E+02 -0.10050247031E+02  0.19211055883E+02  0.51100000000E-03 0.  1.
         12    1    3    3    0    0 -0.14380007856E+02  0.82643614398E+01 -0.55078628868E+01  0.17476293930E+02  0.00000000000E+00 0. -1.
</event>
<event>
 7    1  0.5031164E-009  0.4778726E+02  0.7816164E-02  0.1312668E+00
        -11   -1    0    0    0    0  0.00000000000E+00  0.00000000000E+00  0.45593999997E+02  0.45594000000E+02  0.51100000000E-03 0.  1.
         11   -1    0    0    0    0 -0.00000000000E+00 -0.00000000000E+00 -0.45593999997E+02  0.45594000000E+02  0.51100000000E-03 0. -1.
    9900012    2    1    2    0    0  0.12139847726E+02  0.28058853633E+02  0.30805012992E+02  0.47787262732E+02  0.19999962099E+02 0.  0.
         12    1    1    2    0    0 -0.12139847726E+02 -0.28058853633E+02 -0.30805012992E+02  0.43400737268E+02  0.00000000000E+00 0. -1.
         11    1    3    3    0    0  0.13876781910E+02  0.20053826711E+02  0.16050353508E+02  0.29194775045E+02  0.51100000000E-03 0. -1.
        -11    1    3    3    0    0  0.30990036794E+01  0.33197445758E+01  0.67002705001E+01  0.80943284397E+01  0.51100000000E-03 0.  1.
         12    1    3    3    0    0 -0.48359378631E+01  0.46852823463E+01  0.80543889837E+01  0.10498159247E+02  0.00000000000E+00 0. -1.
</event>
<event>
 7    1  0.5031164E-009  0.4778727E+02  0.7816164E-02  0.1312668E+00
        -11   -1    0    0    0    0  0.00000000000E+00  0.00000000000E+00  0.45593999997E+02  0.45594000000E+02  0.51100000000E-03 0. -1.
         11   -1    0    0    0    0 -0.00000000000E+00 -0.00000000000E+00 -0.45593999997E+02  0.45594000000E+02  0.51100000000E-03 0.  1.
    9900012    2    1    2    0    0 -0.39861054859E+02  0.12275246412E+02  0.12001599936E+02  0.47787265329E+02  0.19999973940E+02 0.  0.
         12    1    1    2    0    0  0.39861054859E+02 -0.12275246412E+02 -0.12001599936E+02  0.43400734671E+02  0.00000000000E+00 0. -1.
         11    1    3    3    0    0 -0.17842775586E+02  0.22968144833E+00  0.10574921248E+02  0.20742380621E+02  0.51100000000E-03 0. -1.
        -11    1    3    3    0    0 -0.20346076915E+02  0.13775082618E+02  0.16674692754E+01  0.24627143581E+02  0.51100000000E-03 0.  1.
         12    1    3    3    0    0 -0.16722023591E+01 -0.17295176543E+01 -0.24079058744E+00  0.24177411262E+01  0.00000000000E+00 0. -1.
</event>
<event>
 7    1  0.5031164E-009  0.4778727E+02  0.7816164E-02  0.1312668E+00
        -11   -1    0    0    0    0  0.00000000000E+00  0.00000000000E+00  0.45593999997E+02  0.45594000000E+02  0.51100000000E-03 0. -1.
         11   -1    0    0    0    0 -0.00000000000E+00 -0.00000000000E+00 -0.45593999997E+02  0.45594000000E+02  0.51100000000E-03 0.  1.
    9900012    2    1    2    0    0  0.22871829568E+01 -0.22145484282E+02 -0.37255465756E+02  0.47787269492E+02  0.19999992920E+02 0.  0.
         12    1    1    2    0    0 -0.22871829568E+01  0.22145484282E+02  0.37255465756E+02  0.43400730508E+02  0.00000000000E+00 0. -1.
         11    1    3    3    0    0 -0.18382257401E+01 -0.10368450543E+02 -0.81448210460E+01  0.13312473499E+02  0.51100000000E-03 0. -1.
        -11    1    3    3    0    0  0.31930508408E+01 -0.38718420307E+01 -0.25033095867E+02  0.25531208810E+02  0.51100000000E-03 0.  1.
        -12    1    3    3    0    0  0.93235785614E+00 -0.79051917082E+01 -0.40775488433E+01  0.89435871821E+01  0.00000000000E+00 0.  1.
</event>
<event>
 7    1  0.5031164E-009  0.4778727E+02  0.7816164E-02  0.1312668E+00
        -11   -1    0    0    0    0  0.00000000000E+00  0.00000000000E+00  0.45593999997E+02  0.45594000000E+02  0.51100000000E-03 0. -1.
         11   -1    0    0    0    0 -0.00000000000E+00 -0.00000000000E+00 -0.45593999997E+02  0.45594000000E+02  0.51100000000E-03 0.  1.
    9900012    2    1    2    0    0 -0.39789721384E+02 -0.28879557187E+01 -0.17089783937E+02  0.47787274994E+02  0.20000018009E+02 0.  0.
         12    1    1    2    0    0  0.39789721384E+02  0.28879557187E+01  0.17089783937E+02  0.43400725006E+02  0.00000000000E+00 0. -1.
         11    1    3    3    0    0  0.12048537290E+01  0.93061215454E+00 -0.11327081091E+00  0.15266112892E+01  0.51100000000E-03 0. -1.
        -11    1    3    3    0    0 -0.40830507865E+02 -0.37019094569E+01 -0.18317996480E+02  0.44904159066E+02  0.51100000000E-03 0.  1.
        -12    1    3    3    0    0 -0.16406724802E+00 -0.11665841638E+00  0.13414833537E+01  0.13565046393E+01  0.00000000000E+00 0.  1.
</event>
<event>
 7    1  0.5079604E-009  0.4778727E+02  0.7816164E-02  0.1312668E+00
        -11   -1    0    0    0    0  0.00000000000E+00  0.00000000000E+00  0.45593999997E+02  0.45594000000E+02  0.51100000000E-03 0.  1.
         11   -1    0    0    0    0 -0.00000000000E+00 -0.00000000000E+00 -0.45593999997E+02  0.45594000000E+02  0.51100000000E-03 0. -1.
    9900012    2    1    2    0    0  0.67014066404E+01  0.28518661736E+02  0.32021869861E+02  0.47787273421E+02  0.20000010837E+02 0.  0.
         12    1    1    2    0    0 -0.67014066404E+01 -0.28518661736E+02 -0.32021869861E+02  0.43400726579E+02  0.00000000000E+00 0. -1.
         11    1    3    3    0    0  0.64997763757E+00  0.20550779594E+01 -0.16458091551E+01  0.27119189488E+01  0.51100000000E-03 0. -1.
        -11    1    3    3    0    0  0.40744460538E+01  0.26885412069E+02  0.27881294556E+02  0.38946027771E+02  0.51100000000E-03 0.  1.
        -12    1    3    3    0    0  0.19769829490E+01 -0.42182829262E+00  0.57863844602E+01  0.61293267012E+01  0.00000000000E+00 0.  1.
</event>
<event>
 7    1  0.5031164E-009  0.4778725E+02  0.7816164E-02  0.1312668E+00
        -11   -1    0    0    0    0  0.00000000000E+00  0.00000000000E+00  0.45593999997E+02  0.45594000000E+02  0.51100000000E-03 0.  1.
         11   -1    0    0    0    0 -0.00000000000E+00 -0.00000000000E+00 -0.45593999997E+02  0.45594000000E+02  0.51100000000E-03 0. -1.
    9900012    2    1    2    0    0  0.40093247304E+02  0.68672315414E+01 -0.15132665166E+02  0.47787252271E+02  0.19999914403E+02 0.  0.
         12    1    1    2    0    0 -0.40093247304E+02 -0.68672315414E+01  0.15132665166E+02  0.43400747729E+02  0.00000000000E+00 0. -1.
         11    1    3    3    0    0  0.48230624343E+01  0.70559050336E+01 -0.17625360606E+01  0.87266408609E+01  0.51100000000E-03 0. -1.
        -11    1    3    3    0    0  0.27636536724E+02  0.34667075205E+01 -0.77865240675E+01  0.28921033530E+02  0.51100000000E-03 0.  1.
         12    1    3    3    0    0  0.76336481457E+01 -0.36553810128E+01 -0.55836050377E+01  0.10139577880E+02  0.00000000000E+00 0. -1.
</event>
<event>
 7    1  0.5031164E-009  0.4778728E+02  0.7816164E-02  0.1312668E+00
        -11   -1    0    0    0    0  0.00000000000E+00  0.00000000000E+00  0.45593999997E+02  0.45594000000E+02  0.51100000000E-03 0.  1.
         11   -1    0    0    0    0 -0.00000000000E+00 -0.00000000000E+00 -0.45593999997E+02  0.45594000000E+02  0.51100000000E-03 0. -1.
    9900012    2    1    2    0    0  0.23760743335E+01  0.12822789649E+02  0.41395078579E+02  0.47787283483E+02  0.20000056714E+02 0.  0.
         12    1    1    2    0    0 -0.23760743335E+01 -0.12822789649E+02 -0.41395078579E+02  0.43400716517E+02  0.00000000000E+00 0. -1.
         11    1    3    3    0    0  0.62882389890E+01  0.66474772657E+01  0.17876366601E+02  0.20082215682E+02  0.51100000000E-03 0. -1.
        -11    1    3    3    0    0 -0.54280188536E+01  0.84344261583E+01  0.10967261734E+02  0.14862158776E+02  0.51100000000E-03 0.  1.
        -12    1    3    3    0    0  0.15158541981E+01 -0.22591137753E+01  0.12551450244E+02  0.12842909025E+02  0.00000000000E+00 0.  1.
</event>
<event>
 7    1  0.5031164E-009  0.4778725E+02  0.7816164E-02  0.1312668E+00
        -11   -1    0    0    0    0  0.00000000000E+00  0.00000000000E+00  0.45593999997E+02  0.45594000000E+02  0.51100000000E-03 0.  1.
         11   -1    0    0    0    0 -0.00000000000E+00 -0.00000000000E+00 -0.45593999997E+02  0.45594000000E+02  0.51100000000E-03 0. -1.
    9900012    2    1    2    0    0 -0.18219056324E+01  0.43112024401E+02  0.46539428715E+01  0.47787249173E+02  0.19999900279E+02 0.  0.
         12    1    1    2    0    0  0.18219056324E+01 -0.43112024401E+02 -0.46539428715E+01  0.43400750827E+02  0.00000000000E+00 0. -1.
         11    1    3    3    0    0 -0.57056575778E+00  0.30238771447E+02  0.23039412764E+01  0.30331781840E+02  0.51100000000E-03 0. -1.
        -11    1    3    3    0    0 -0.25192836769E+01  0.14785899646E+02  0.21447176946E+01  0.15151548859E+02  0.51100000000E-03 0.  1.
         12    1    3    3    0    0  0.12679438023E+01 -0.19126466920E+01  0.20528390049E+00  0.23039184738E+01  0.00000000000E+00 0. -1.
</event>
<event>
 7    1  0.5031164E-009  0.4778724E+02  0.7816164E-02  0.1312668E+00
        -11   -1    0    0    0    0  0.00000000000E+00  0.00000000000E+00  0.45593999997E+02  0.45594000000E+02  0.51100000000E-03 0.  1.
         11   -1    0    0    0    0 -0.00000000000E+00 -0.00000000000E+00 -0.45593999997E+02  0.45594000000E+02  0.51100000000E-03 0. -1.
    9900012    2    1    2    0    0  0.25027463939E+02  0.11086264675E+02  0.33680059064E+02  0.47787244313E+02  0.19999878120E+02 0.  0.
         12    1    1    2    0    0 -0.25027463939E+02 -0.11086264675E+02 -0.33680059064E+02  0.43400755687E+02  0.00000000000E+00 0. -1.
         11    1    3    3    0    0  0.21659852403E+02  0.73324241006E+01  0.18673861278E+02  0.29523325433E+02  0.51100000000E-03 0. -1.
        -11    1    3    3    0    0  0.36956012639E+01  0.11281646129E+01  0.97457184052E+00  0.39849736046E+01  0.51100000000E-03 0.  1.
         12    1    3    3    0    0 -0.32798972805E+00  0.26256759613E+01  0.14031625945E+02  0.14278945275E+02  0.00000000000E+00 0. -1.
</event>
<event>
 7    1  0.5031164E-009  0.4778726E+02  0.7816164E-02  0.1312668E+00
        -11   -1    0    0    0    0  0.00000000000E+00  0.00000000000E+00  0.45593999997E+02  0.45594000000E+02  0.51100000000E-03 0. -1.
         11   -1    0    0    0    0 -0.00000000000E+00 -0.00000000000E+00 -0.45593999997E+02  0.45594000000E+02  0.51100000000E-03 0.  1.
    9900012    2    1    2    0    0 -0.37736487021E+02  0.13232538776E+02 -0.16866581606E+02  0.47787261409E+02  0.19999956069E+02 0.  0.
         12    1    1    2    0    0  0.37736487021E+02 -0.13232538776E+02  0.16866581606E+02  0.43400738591E+02  0.00000000000E+00 0. -1.
         11    1    3    3    0    0 -0.17953373987E+02  0.65122180388E+01 -0.47116741972E+01  0.19670599770E+02  0.51100000000E-03 0. -1.
        -11    1    3    3    0    0  0.20901767359E+01  0.18150283515E+01 -0.37546304686E+00  0.27935889935E+01  0.51100000000E-03 0.  1.
        -12    1    3    3    0    0 -0.21873289770E+02  0.49052923858E+01 -0.11779444362E+02  0.25323072646E+02  0.00000000000E+00 0.  1.
</event>
<event>
 7    1  0.5031164E-009  0.4778728E+02  0.7816164E-02  0.1312668E+00
        -11   -1    0    0    0    0  0.00000000000E+00  0.00000000000E+00  0.45593999997E+02  0.45594000000E+02  0.51100000000E-03 0. -1.
         11   -1    0    0    0    0 -0.00000000000E+00 -0.00000000000E+00 -0.45593999997E+02  0.45594000000E+02  0.51100000000E-03 0.  1.
    9900012    2    1    2    0    0 -0.15663752288E+02 -0.25279741298E+02 -0.31610192288E+02  0.47787277514E+02  0.20000029498E+02 0.  0.
         12    1    1    2    0    0  0.15663752288E+02  0.25279741298E+02  0.31610192288E+02  0.43400722486E+02  0.00000000000E+00 0. -1.
         11    1    3    3    0    0  0.96010388877E+00 -0.34796186131E+01 -0.15048830948E+02  0.15475686038E+02  0.51100000000E-03 0. -1.
        -11    1    3    3    0    0 -0.87744022800E+01 -0.14683019721E+02 -0.93369611912E+01  0.19487433080E+02  0.51100000000E-03 0.  1.
         12    1    3    3    0    0 -0.78494538967E+01 -0.71171029631E+01 -0.72244001482E+01  0.12824158396E+02  0.00000000000E+00 0. -1.
</event>
<event>
 7    1  0.5031164E-009  0.4778727E+02  0.7816164E-02  0.1312668E+00
        -11   -1    0    0    0    0  0.00000000000E+00  0.00000000000E+00  0.45593999997E+02  0.45594000000E+02  0.51100000000E-03 0.  1.
         11   -1    0    0    0    0 -0.00000000000E+00 -0.00000000000E+00 -0.45593999997E+02  0.45594000000E+02  0.51100000000E-03 0. -1.
    9900012    2    1    2    0    0 -0.21185830484E+02 -0.84452503981E+01  0.36925079906E+02  0.47787271969E+02  0.20000004215E+02 0.  0.
         12    1    1    2    0    0  0.21185830484E+02  0.84452503981E+01 -0.36925079906E+02  0.43400728031E+02  0.00000000000E+00 0. -1.
         11    1    3    3    0    0 -0.82295996029E+00 -0.77000399809E+01  0.10778186685E+02  0.13271668594E+02  0.51100000000E-03 0. -1.
        -11    1    3    3    0    0 -0.14311284137E+02  0.35305541840E+01  0.20244819351E+02  0.25042571301E+02  0.51100000000E-03 0.  1.
         12    1    3    3    0    0 -0.60515863863E+01 -0.42757646013E+01  0.59020738696E+01  0.94730320742E+01  0.00000000000E+00 0. -1.
</event>
<event>
 7    1  0.5031164E-009  0.4778727E+02  0.7816164E-02  0.1312668E+00
        -11   -1    0    0    0    0  0.00000000000E+00  0.00000000000E+00  0.45593999997E+02  0.45594000000E+02  0.51100000000E-03 0.  1.
         11   -1    0    0    0    0 -0.00000000000E+00 -0.00000000000E+00 -0.45593999997E+02  0.45594000000E+02  0.51100000000E-03 0. -1.
    9900012    2    1    2    0    0 -0.15981551082E+02 -0.25063558303E+02  0.31623275109E+02  0.47787268919E+02  0.19999990308E+02 0.  0.
         12    1    1    2    0    0  0.15981551082E+02  0.25063558303E+02 -0.31623275109E+02  0.43400731081E+02  0.00000000000E+00 0. -1.
         11    1    3    3    0    0 -0.14771460839E+02 -0.11917140591E+02  0.12974366972E+02  0.22990182552E+02  0.51100000000E-03 0. -1.
        -11    1    3    3    0    0  0.42228429968E+01 -0.63656147158E+01  0.81816971933E+01  0.11193463401E+02  0.51100000000E-03 0.  1.
        -12    1    3    3    0    0 -0.54329332390E+01 -0.67808029955E+01  0.10467210944E+02  0.13603622966E+02  0.00000000000E+00 0.  1.
</event>
<event>
 7    1  0.5031164E-009  0.4778726E+02  0.7816164E-02  0.1312668E+00
        -11   -1    0    0    0    0  0.00000000000E+00  0.00000000000E+00  0.45593999997E+02  0.45594000000E+02  0.51100000000E-03 0.  1.
         11   -1    0    0    0    0 -0.00000000000E+00 -0.00000000000E+00 -0.45593999997E+02  0.45594000000E+02  0.51100000000E-03 0. -1.
    9900012    2    1    2    0    0  0.29733006196E+02  0.50821658740E+01  0.31204870970E+02  0.47787262222E+02  0.19999959776E+02 0.  0.
         12    1    1    2    0    0 -0.29733006196E+02 -0.50821658740E+01 -0.31204870970E+02  0.43400737778E+02  0.00000000000E+00 0. -1.
         11    1    3    3    0    0  0.35634669285E+00 -0.11619953380E+01  0.40125396500E+01  0.41925756803E+01  0.51100000000E-03 0. -1.
        -11    1    3    3    0    0  0.22354919961E+02 -0.20801781473E+01  0.22339260453E+02  0.31671945716E+02  0.51100000000E-03 0.  1.
        -12    1    3    3    0    0  0.70217395414E+01  0.83243393594E+01  0.48530708670E+01  0.11922740826E+02  0.00000000000E+00 0.  1.
</event>
<event>
 7    1  0.5031164E-009  0.4778727E+02  0.7816164E-02  0.1312668E+00
        -11   -1    0    0    0    0  0.00000000000E+00  0.00000000000E+00  0.45593999997E+02  0.45594000000E+02  0.51100000000E-03 0. -1.
         11   -1    0    0    0    0 -0.00000000000E+00 -0.00000000000E+00 -0.45593999997E+02  0.45594000000E+02  0.51100000000E-03 0.  1.
    9900012    2    1    2    0    0 -0.31552544516E+02 -0.29718039886E+02  0.22131953036E+01  0.47787271969E+02  0.20000004217E+02 0.  0.
         12    1    1    2    0    0  0.31552544516E+02  0.29718039886E+02 -0.22131953036E+01  0.43400728031E+02  0.00000000000E+00 0. -1.
         11    1    3    3    0    0 -0.19392078103E+02 -0.83596145311E+01  0.17275841560E+01  0.21187741634E+02  0.51100000000E-03 0. -1.
        -11    1    3    3    0    0 -0.10931505237E+02 -0.91334747274E+01 -0.65605486080E+00  0.14260034207E+02  0.51100000000E-03 0.  1.
         12    1    3    3    0    0 -0.12289611761E+01 -0.12224950628E+02  0.11416660084E+01  0.12339496128E+02  0.00000000000E+00 0. -1.
</event>
<event>
 7    1  0.5031164E-009  0.4778728E+02  0.7816164E-02  0.1312668E+00
        -11   -1    0    0    0    0  0.00000000000E+00  0.00000000000E+00  0.45593999997E+02  0.45594000000E+02  0.51100000000E-03 0.  1.
         11   -1    0    0    0    0 -0.00000000000E+00 -0.00000000000E+00 -0.45593999997E+02  0.45594000000E+02  0.51100000000E-03 0. -1.
    9900012    2    1    2    0    0  0.40085407533E+02 -0.12002123573E+02  0.11520934646E+02  0.47787276475E+02  0.20000024761E+02 0.  0.
         12    1    1    2    0    0 -0.40085407533E+02  0.12002123573E+02 -0.11520934646E+02  0.43400723525E+02  0.00000000000E+00 0. -1.
         11    1    3    3    0    0  0.36063179409E+01 -0.42118502340E+01  0.41654163949E+01  0.69351211589E+01  0.51100000000E-03 0. -1.
        -11    1    3    3    0    0  0.15525254197E+02  0.38624225923E+01  0.49955445655E+01  0.16760289136E+02  0.51100000000E-03 0.  1.
        -12    1    3    3    0    0  0.20953835395E+02 -0.11652695931E+02  0.23599736852E+01  0.24091866180E+02  0.00000000000E+00 0.  1.
</event>
<event>
 7    1  0.5031164E-009  0.4778727E+02  0.7816164E-02  0.1312668E+00
        -11   -1    0    0    0    0  0.00000000000E+00  0.00000000000E+00  0.45593999997E+02  0.45594000000E+02  0.51100000000E-03 0. -1.
         11   -1    0    0    0    0 -0.00000000000E+00 -0.00000000000E+00 -0.45593999997E+02  0.45594000000E+02  0.51100000000E-03 0.  1.
    9900012    2    1    2    0    0  0.11014626673E+02  0.64882038306E+01 -0.41475352113E+02  0.47787267027E+02  0.19999981685E+02 0.  0.
         12    1    1    2    0    0 -0.11014626673E+02 -0.64882038306E+01  0.41475352113E+02  0.43400732973E+02  0.00000000000E+00 0. -1.
         11    1    3    3    0    0 -0.28939349866E+01  0.71630028157E+01 -0.18121343195E+02  0.19699404775E+02  0.51100000000E-03 0. -1.
        -11    1    3    3    0    0  0.95034874145E+01  0.22067664325E+01 -0.11265013855E+02  0.14902571206E+02  0.51100000000E-03 0.  1.
         12    1    3    3    0    0  0.44050742450E+01 -0.28815654176E+01 -0.12088995063E+02  0.13185291047E+02  0.00000000000E+00 0. -1.
</event>
<event>
 7    1  0.5031164E-009  0.4778726E+02  0.7816164E-02  0.1312668E+00
        -11   -1    0    0    0    0  0.00000000000E+00  0.00000000000E+00  0.45593999997E+02  0.45594000000E+02  0.51100000000E-03 0. -1.
         11   -1    0    0    0    0 -0.00000000000E+00 -0.00000000000E+00 -0.45593999997E+02  0.45594000000E+02  0.51100000000E-03 0.  1.
    9900012    2    1    2    0    0 -0.16175730363E+02 -0.31315913840E+02 -0.25323574971E+02  0.47787260816E+02  0.19999953364E+02 0.  0.
         12    1    1    2    0    0  0.16175730363E+02  0.31315913840E+02  0.25323574971E+02  0.43400739184E+02  0.00000000000E+00 0. -1.
         11    1    3    3    0    0 -0.19063630295E+01 -0.15421611697E+02 -0.42840905860E+01  0.16118739396E+02  0.51100000000E-03 0. -1.
        -11    1    3    3    0    0 -0.36087391834E+01  0.95274694459E+00 -0.33654440026E+01  0.50256282025E+01  0.51100000000E-03 0.  1.
         12    1    3    3    0    0 -0.10660628150E+02 -0.16847049088E+02 -0.17674040382E+02  0.26642893217E+02  0.00000000000E+00 0. -1.
</event>
<event>
 7    1  0.5031164E-009  0.4778732E+02  0.7816164E-02  0.1312668E+00
        -11   -1    0    0    0    0  0.00000000000E+00  0.00000000000E+00  0.45593999997E+02  0.45594000000E+02  0.51100000000E-03 0.  1.
         11   -1    0    0    0    0 -0.00000000000E+00 -0.00000000000E+00 -0.45593999997E+02  0.45594000000E+02  0.51100000000E-03 0. -1.
    9900012    2    1    2    0    0  0.34246137202E+02  0.21854712870E+02 -0.15270645206E+02  0.47787320363E+02  0.20000224864E+02 0.  0.
         12    1    1    2    0    0 -0.34246137202E+02 -0.21854712870E+02  0.15270645206E+02  0.43400679637E+02  0.00000000000E+00 0. -1.
         11    1    3    3    0    0  0.79440750845E+01  0.30815745010E+01 -0.10200972586E+02  0.13291511288E+02  0.51100000000E-03 0. -1.
        -11    1    3    3    0    0  0.25955753165E+02  0.18681696787E+02 -0.26937499496E+01  0.32093039842E+02  0.51100000000E-03 0.  1.
        -12    1    3    3    0    0  0.34630895200E+00  0.91441582016E-01 -0.23759226711E+01  0.24027692341E+01  0.00000000000E+00 0.  1.
</event>
<event>
 7    1  0.5031164E-009  0.4778728E+02  0.7816164E-02  0.1312668E+00
        -11   -1    0    0    0    0  0.00000000000E+00  0.00000000000E+00  0.45593999997E+02  0.45594000000E+02  0.51100000000E-03 0.  1.
         11   -1    0    0    0    0 -0.00000000000E+00 -0.00000000000E+00 -0.45593999997E+02  0.45594000000E+02  0.51100000000E-03 0. -1.
    9900012    2    1    2    0    0 -0.53838834750E+01  0.12377544077E+01  0.43047696648E+02  0.47787280836E+02  0.20000044642E+02 0.  0.
         12    1    1    2    0    0  0.53838834750E+01 -0.12377544077E+01 -0.43047696648E+02  0.43400719164E+02  0.00000000000E+00 0. -1.
         11    1    3    3    0    0 -0.25325560154E+00  0.97455345008E+01  0.18167637646E+02  0.20618017339E+02  0.51100000000E-03 0. -1.
        -11    1    3    3    0    0 -0.38757651352E+01 -0.84593336259E+01  0.18994130534E+02  0.21150859930E+02  0.51100000000E-03 0.  1.
         12    1    3    3    0    0 -0.12548627383E+01 -0.48446467199E-01  0.58859284688E+01  0.60184035667E+01  0.00000000000E+00 0. -1.
</event>
<event>
 7    1  0.5031164E-009  0.4778727E+02  0.7816164E-02  0.1312668E+00
        -11   -1    0    0    0    0  0.00000000000E+00  0.00000000000E+00  0.45593999997E+02  0.45594000000E+02  0.51100000000E-03 0. -1.
         11   -1    0    0    0    0 -0.00000000000E+00 -0.00000000000E+00 -0.45593999997E+02  0.45594000000E+02  0.51100000000E-03 0.  1.
    9900012    2    1    2    0    0 -0.38094169346E+02  0.79315810955E+00 -0.20780475893E+02  0.47787274012E+02  0.20000013530E+02 0.  0.
         12    1    1    2    0    0  0.38094169346E+02 -0.79315810955E+00  0.20780475893E+02  0.43400725988E+02  0.00000000000E+00 0. -1.
         11    1    3    3    0    0 -0.19456144568E+02  0.97586188970E+01 -0.12299157150E+02  0.25000829408E+02  0.51100000000E-03 0. -1.
        -11    1    3    3    0    0 -0.13828959232E+02 -0.44020944884E+01 -0.55502744883E+01  0.15537827920E+02  0.51100000000E-03 0.  1.
         12    1    3    3    0    0 -0.48090655456E+01 -0.45633662990E+01 -0.29310442551E+01  0.72486166836E+01  0.00000000000E+00 0. -1.
</event>
<event>
 7    1  0.5031164E-009  0.4778727E+02  0.7816164E-02  0.1312668E+00
        -11   -1    0    0    0    0  0.00000000000E+00  0.00000000000E+00  0.45593999997E+02  0.45594000000E+02  0.51100000000E-03 0.  1.
         11   -1    0    0    0    0 -0.00000000000E+00 -0.00000000000E+00 -0.45593999997E+02  0.45594000000E+02  0.51100000000E-03 0. -1.
    9900012    2    1    2    0    0 -0.39155916986E+01 -0.13988191612E+02  0.40897703292E+02  0.47787268468E+02  0.19999988254E+02 0.  0.
         12    1    1    2    0    0  0.39155916986E+01  0.13988191612E+02 -0.40897703292E+02  0.43400731532E+02  0.00000000000E+00 0. -1.
         11    1    3    3    0    0  0.38438157330E+01  0.18108774709E+01  0.52161062224E+01  0.67277010180E+01  0.51100000000E-03 0. -1.
        -11    1    3    3    0    0 -0.78005216721E+01 -0.15621156810E+02  0.36371749654E+02  0.40345667074E+02  0.51100000000E-03 0.  1.
        -12    1    3    3    0    0  0.41114240521E-01 -0.17791227237E+00 -0.69015258452E+00  0.71390037635E+00  0.00000000000E+00 0.  1.
</event>
<event>
 7    1  0.5031164E-009  0.4778728E+02  0.7816164E-02  0.1312668E+00
        -11   -1    0    0    0    0  0.00000000000E+00  0.00000000000E+00  0.45593999997E+02  0.45594000000E+02  0.51100000000E-03 0.  1.
         11   -1    0    0    0    0 -0.00000000000E+00 -0.00000000000E+00 -0.45593999997E+02  0.45594000000E+02  0.51100000000E-03 0. -1.
    9900012    2    1    2    0    0  0.32098155860E+02  0.12478314677E+01  0.29185162202E+02  0.47787281276E+02  0.20000046652E+02 0.  0.
         12    1    1    2    0    0 -0.32098155860E+02 -0.12478314677E+01 -0.29185162202E+02  0.43400718724E+02  0.00000000000E+00 0. -1.
         11    1    3    3    0    0  0.21903312692E+02  0.62758687155E+01  0.14896423523E+02  0.27222142992E+02  0.51100000000E-03 0.  1.
        -11    1    3    3    0    0  0.87336685690E+01 -0.75597751776E+01  0.95051183698E+01  0.14959092315E+02  0.51100000000E-03 0. -1.
        -12    1    3    3    0    0  0.14611745989E+01  0.25317379298E+01  0.47836203086E+01  0.56060459693E+01  0.00000000000E+00 0.  1.
</event>
<event>
 7    1  0.5031164E-009  0.4778727E+02  0.7816164E-02  0.1312668E+00
        -11   -1    0    0    0    0  0.00000000000E+00  0.00000000000E+00  0.45593999997E+02  0.45594000000E+02  0.51100000000E-03 0.  1.
         11   -1    0    0    0    0 -0.00000000000E+00 -0.00000000000E+00 -0.45593999997E+02  0.45594000000E+02  0.51100000000E-03 0. -1.
    9900012    2    1    2    0    0  0.10050751970E+02 -0.13642290100E+01  0.42198868864E+02  0.47787271097E+02  0.20000000238E+02 0.  0.
         12    1    1    2    0    0 -0.10050751970E+02  0.13642290100E+01 -0.42198868864E+02  0.43400728903E+02  0.00000000000E+00 0. -1.
         11    1    3    3    0    0  0.18561350046E+01 -0.81915713423E+01  0.16319256828E+02  0.18353888468E+02  0.51100000000E-03 0. -1.
        -11    1    3    3    0    0  0.16208004344E+01 -0.14633159225E+01  0.10759827219E+02  0.10979169804E+02  0.51100000000E-03 0.  1.
         12    1    3    3    0    0  0.65738165312E+01  0.82906582548E+01  0.15119784817E+02  0.18454212825E+02  0.00000000000E+00 0. -1.
</event>
<event>
 7    1  0.5031164E-009  0.4778727E+02  0.7816164E-02  0.1312668E+00
        -11   -1    0    0    0    0  0.00000000000E+00  0.00000000000E+00  0.45593999997E+02  0.45594000000E+02  0.51100000000E-03 0. -1.
         11   -1    0    0    0    0 -0.00000000000E+00 -0.00000000000E+00 -0.45593999997E+02  0.45594000000E+02  0.51100000000E-03 0.  1.
    9900012    2    1    2    0    0 -0.14473432609E+02 -0.33029737135E+02 -0.24149109294E+02  0.47787271131E+02  0.20000000394E+02 0.  0.
         12    1    1    2    0    0  0.14473432609E+02  0.33029737135E+02  0.24149109294E+02  0.43400728869E+02  0.00000000000E+00 0. -1.
         11    1    3    3    0    0 -0.11941563035E+02 -0.14503075700E+02 -0.28823768013E+01  0.19006531214E+02  0.51100000000E-03 0. -1.
        -11    1    3    3    0    0 -0.36972975182E+01 -0.11769623457E+02 -0.15578328888E+02  0.19871546907E+02  0.51100000000E-03 0.  1.
         12    1    3    3    0    0  0.11654279448E+01 -0.67570379776E+01 -0.56884036046E+01  0.89091930102E+01  0.00000000000E+00 0. -1.
</event>
<event>
 7    1  0.5031164E-009  0.4778727E+02  0.7816164E-02  0.1312668E+00
        -11   -1    0    0    0    0  0.00000000000E+00  0.00000000000E+00  0.45593999997E+02  0.45594000000E+02  0.51100000000E-03 0. -1.
         11   -1    0    0    0    0 -0.00000000000E+00 -0.00000000000E+00 -0.45593999997E+02  0.45594000000E+02  0.51100000000E-03 0.  1.
    9900012    2    1    2    0    0 -0.40071943757E+02 -0.14830894961E+02 -0.76096720386E+01  0.47787271546E+02  0.20000002286E+02 0.  0.
         12    1    1    2    0    0  0.40071943757E+02  0.14830894961E+02  0.76096720386E+01  0.43400728454E+02  0.00000000000E+00 0. -1.
         11    1    3    3    0    0 -0.94504698530E+00 -0.25498421181E+01  0.11552902197E+01  0.29545734691E+01  0.51100000000E-03 0. -1.
        -11    1    3    3    0    0 -0.12640752629E+02 -0.60204552999E+01 -0.10590656796E+02  0.17555526785E+02  0.51100000000E-03 0.  1.
        -12    1    3    3    0    0 -0.26486144143E+02 -0.62605975431E+01  0.18256945379E+01  0.27277171292E+02  0.00000000000E+00 0.  1.
</event>
<event>
 7    1  0.5031164E-009  0.4778727E+02  0.7816164E-02  0.1312668E+00
        -11   -1    0    0    0    0  0.00000000000E+00  0.00000000000E+00  0.45593999997E+02  0.45594000000E+02  0.51100000000E-03 0.  1.
         11   -1    0    0    0    0 -0.00000000000E+00 -0.00000000000E+00 -0.45593999997E+02  0.45594000000E+02  0.51100000000E-03 0. -1.
    9900012    2    1    2    0    0  0.12285704416E+02 -0.31087295541E+02  0.27681489875E+02  0.47787270066E+02  0.19999995539E+02 0.  0.
         12    1    1    2    0    0 -0.12285704416E+02  0.31087295541E+02 -0.27681489875E+02  0.43400729934E+02  0.00000000000E+00 0. -1.
         11    1    3    3    0    0  0.20731472416E+01 -0.26550370036E+01 -0.24334950108E+01  0.41556057566E+01  0.51100000000E-03 0. -1.
        -11    1    3    3    0    0  0.70486311361E+01 -0.95501632585E+01  0.76777860861E+01  0.14136379261E+02  0.51100000000E-03 0.  1.
         12    1    3    3    0    0  0.31639260385E+01 -0.18882095279E+02  0.22437198800E+02  0.29495285049E+02  0.00000000000E+00 0. -1.
</event>
<event>
 7    1  0.5031164E-009  0.4778727E+02  0.7816164E-02  0.1312668E+00
        -11   -1    0    0    0    0  0.00000000000E+00  0.00000000000E+00  0.45593999997E+02  0.45594000000E+02  0.51100000000E-03 0. -1.
         11   -1    0    0    0    0 -0.00000000000E+00 -0.00000000000E+00 -0.45593999997E+02  0.45594000000E+02  0.51100000000E-03 0.  1.
    9900012    2    1    2    0    0 -0.22792146212E+02 -0.36412307404E+02 -0.61874832641E+01  0.47787274101E+02  0.20000013935E+02 0.  0.
         12    1    1    2    0    0  0.22792146212E+02  0.36412307404E+02  0.61874832641E+01  0.43400725899E+02  0.00000000000E+00 0. -1.
         11    1    3    3    0    0 -0.18425582178E+02 -0.16132645525E+02  0.18327580418E-02  0.24490086440E+02  0.51100000000E-03 0.  1.
        -11    1    3    3    0    0  0.96439695935E+00 -0.13375610954E+02 -0.17943209286E+01  0.13529841749E+02  0.51100000000E-03 0. -1.
        -12    1    3    3    0    0 -0.53309609941E+01 -0.69040509239E+01 -0.43949950935E+01  0.97673459114E+01  0.00000000000E+00 0.  1.
</event>
<event>
 7    1  0.5031164E-009  0.4778727E+02  0.7816164E-02  0.1312668E+00
        -11   -1    0    0    0    0  0.00000000000E+00  0.00000000000E+00  0.45593999997E+02  0.45594000000E+02  0.51100000000E-03 0.  1.
         11   -1    0    0    0    0 -0.00000000000E+00 -0.00000000000E+00 -0.45593999997E+02  0.45594000000E+02  0.51100000000E-03 0. -1.
    9900012    2    1    2    0    0  0.24067997933E+02  0.20001974281E+02  0.30071178463E+02  0.47787271046E+02  0.20000000006E+02 0.  0.
         12    1    1    2    0    0 -0.24067997933E+02 -0.20001974281E+02 -0.30071178463E+02  0.43400728954E+02  0.00000000000E+00 0. -1.
         11    1    3    3    0    0  0.36048177490E+01  0.86681304797E+01  0.89129393594E+00  0.94300372299E+01  0.51100000000E-03 0. -1.
        -11    1    3    3    0    0  0.82331909489E+01  0.84201903194E+01  0.10136654314E+02  0.15538236681E+02  0.51100000000E-03 0.  1.
         12    1    3    3    0    0  0.12229989235E+02  0.29136534817E+01  0.19043230213E+02  0.22818997135E+02  0.00000000000E+00 0. -1.
</event>
<event>
 7    1  0.5031164E-009  0.4778727E+02  0.7816164E-02  0.1312668E+00
        -11   -1    0    0    0    0  0.00000000000E+00  0.00000000000E+00  0.45593999997E+02  0.45594000000E+02  0.51100000000E-03 0.  1.
         11   -1    0    0    0    0 -0.00000000000E+00 -0.00000000000E+00 -0.45593999997E+02  0.45594000000E+02  0.51100000000E-03 0. -1.
    9900012    2    1    2    0    0  0.16105787366E+02 -0.33934287720E+02  0.21741457910E+02  0.47787271183E+02  0.20000000633E+02 0.  0.
         12    1    1    2    0    0 -0.16105787366E+02  0.33934287720E+02 -0.21741457910E+02  0.43400728817E+02  0.00000000000E+00 0. -1.
         11    1    3    3    0    0  0.88117486198E+01 -0.25723424527E+02  0.14563659886E+02  0.30845448167E+02  0.51100000000E-03 0. -1.
        -11    1    3    3    0    0  0.49859734295E+01 -0.85746573608E+01  0.94375310876E+01  0.13691299178E+02  0.51100000000E-03 0.  1.
         12    1    3    3    0    0  0.23080653171E+01  0.36379416754E+00 -0.22597330629E+01  0.32505238377E+01  0.00000000000E+00 0. -1.
</event>
<event>
 7    1  0.5031164E-009  0.4778727E+02  0.7816164E-02  0.1312668E+00
        -11   -1    0    0    0    0  0.00000000000E+00  0.00000000000E+00  0.45593999997E+02  0.45594000000E+02  0.51100000000E-03 0. -1.
         11   -1    0    0    0    0 -0.00000000000E+00 -0.00000000000E+00 -0.45593999997E+02  0.45594000000E+02  0.51100000000E-03 0.  1.
    9900012    2    1    2    0    0 -0.27317003017E+02  0.16072359752E+02 -0.29649352531E+02  0.47787268355E+02  0.19999987736E+02 0.  0.
         12    1    1    2    0    0  0.27317003017E+02 -0.16072359752E+02  0.29649352531E+02  0.43400731645E+02  0.00000000000E+00 0. -1.
         11    1    3    3    0    0 -0.11250467068E+02  0.77757540032E+01 -0.12701454606E+01  0.13734941912E+02  0.51100000000E-03 0. -1.
        -11    1    3    3    0    0 -0.94571993562E+01  0.20914741592E+01 -0.13206890429E+02  0.16377876507E+02  0.51100000000E-03 0.  1.
         12    1    3    3    0    0 -0.66093365926E+01  0.62051315899E+01 -0.15172316642E+02  0.17674449936E+02  0.00000000000E+00 0. -1.
</event>
<event>
 7    1  0.5031164E-009  0.4778727E+02  0.7816164E-02  0.1312668E+00
        -11   -1    0    0    0    0  0.00000000000E+00  0.00000000000E+00  0.45593999997E+02  0.45594000000E+02  0.51100000000E-03 0. -1.
         11   -1    0    0    0    0 -0.00000000000E+00 -0.00000000000E+00 -0.45593999997E+02  0.45594000000E+02  0.51100000000E-03 0.  1.
    9900012    2    1    2    0    0  0.34148330278E+02 -0.25633892288E+02  0.77729294948E+01  0.47787270426E+02  0.19999997182E+02 0.  0.
         12    1    1    2    0    0 -0.34148330278E+02  0.25633892288E+02 -0.77729294948E+01  0.43400729574E+02  0.00000000000E+00 0. -1.
         11    1    3    3    0    0  0.68727890353E+01 -0.12944442934E+02 -0.21928200476E+01  0.14818984176E+02  0.51100000000E-03 0. -1.
        -11    1    3    3    0    0  0.26381504925E+02 -0.10841629691E+02  0.70125888437E+01  0.29371774530E+02  0.51100000000E-03 0.  1.
        -12    1    3    3    0    0  0.89403631756E+00 -0.18478196625E+01  0.29531606987E+01  0.35965117203E+01  0.00000000000E+00 0.  1.
</event>
<event>
 7    1  0.5031164E-009  0.4778727E+02  0.7816164E-02  0.1312668E+00
        -11   -1    0    0    0    0  0.00000000000E+00  0.00000000000E+00  0.45593999997E+02  0.45594000000E+02  0.51100000000E-03 0.  1.
         11   -1    0    0    0    0 -0.00000000000E+00 -0.00000000000E+00 -0.45593999997E+02  0.45594000000E+02  0.51100000000E-03 0. -1.
    9900012    2    1    2    0    0 -0.21751258867E+02 -0.35966026793E+02  0.10814372880E+02  0.47787274127E+02  0.20000014053E+02 0.  0.
         12    1    1    2    0    0  0.21751258867E+02  0.35966026793E+02 -0.10814372880E+02  0.43400725873E+02  0.00000000000E+00 0. -1.
         11    1    3    3    0    0 -0.65473722132E+01 -0.13942205536E+02 -0.42576481850E+01  0.15980636610E+02  0.51100000000E-03 0. -1.
        -11    1    3    3    0    0 -0.88095961956E+01 -0.62276909669E+01  0.76143796025E+01  0.13204995150E+02  0.51100000000E-03 0.  1.
        -12    1    3    3    0    0 -0.63942904579E+01 -0.15796130289E+02  0.74576414630E+01  0.18601642367E+02  0.00000000000E+00 0.  1.
</event>
<event>
 7    1  0.5031164E-009  0.4778727E+02  0.7816164E-02  0.1312668E+00
        -11   -1    0    0    0    0  0.00000000000E+00  0.00000000000E+00  0.45593999997E+02  0.45594000000E+02  0.51100000000E-03 0.  1.
         11   -1    0    0    0    0 -0.00000000000E+00 -0.00000000000E+00 -0.45593999997E+02  0.45594000000E+02  0.51100000000E-03 0. -1.
    9900012    2    1    2    0    0  0.91783079942E+01 -0.10520464164E+02  0.41093815924E+02  0.47787271768E+02  0.20000003301E+02 0.  0.
         12    1    1    2    0    0 -0.91783079942E+01  0.10520464164E+02 -0.41093815924E+02  0.43400728232E+02  0.00000000000E+00 0. -1.
         11    1    3    3    0    0  0.57430801973E+01 -0.39692867839E+01  0.33570772502E+01  0.77464944104E+01  0.51100000000E-03 0. -1.
        -11    1    3    3    0    0  0.26370611833E+01 -0.96234933681E+01  0.31501028286E+02  0.33043615112E+02  0.51100000000E-03 0.  1.
        -12    1    3    3    0    0  0.79816661356E+00  0.30723159879E+01  0.62357103870E+01  0.69971622465E+01  0.00000000000E+00 0.  1.
</event>
<event>
 7    1  0.5031164E-009  0.4778727E+02  0.7816164E-02  0.1312668E+00
        -11   -1    0    0    0    0  0.00000000000E+00  0.00000000000E+00  0.45593999997E+02  0.45594000000E+02  0.51100000000E-03 0. -1.
         11   -1    0    0    0    0 -0.00000000000E+00 -0.00000000000E+00 -0.45593999997E+02  0.45594000000E+02  0.51100000000E-03 0.  1.
    9900012    2    1    2    0    0 -0.91789658586E+01 -0.42397752041E+02 -0.13417648957E+01  0.47787272755E+02  0.20000007801E+02 0.  0.
         12    1    1    2    0    0  0.91789658586E+01  0.42397752041E+02  0.13417648957E+01  0.43400727245E+02  0.00000000000E+00 0. -1.
         11    1    3    3    0    0  0.18369342282E+00  0.17359285502E+01 -0.20223027189E+00  0.17572958058E+01  0.51100000000E-03 0. -1.
        -11    1    3    3    0    0 -0.47284144637E+01 -0.33615203152E+02 -0.40119550164E+01  0.34182386834E+02  0.51100000000E-03 0.  1.
        -12    1    3    3    0    0 -0.46342448177E+01 -0.10518477438E+02  0.28724203926E+01  0.11847590116E+02  0.00000000000E+00 0.  1.
</event>
<event>
 7    1  0.5031164E-009  0.4778722E+02  0.7816164E-02  0.1312668E+00
        -11   -1    0    0    0    0  0.00000000000E+00  0.00000000000E+00  0.45593999997E+02  0.45594000000E+02  0.51100000000E-03 0.  1.
         11   -1    0    0    0    0 -0.00000000000E+00 -0.00000000000E+00 -0.45593999997E+02  0.45594000000E+02  0.51100000000E-03 0. -1.
    9900012    2    1    2    0    0 -0.27176462543E+02  0.33290385578E+02  0.60677607580E+01  0.47787221102E+02  0.19999772292E+02 0.  0.
         12    1    1    2    0    0  0.27176462543E+02 -0.33290385578E+02 -0.60677607580E+01  0.43400778898E+02  0.00000000000E+00 0. -1.
         11    1    3    3    0    0 -0.14000918472E+02  0.99484276095E+01 -0.25431084259E+01  0.17362728204E+02  0.51100000000E-03 0. -1.
        -11    1    3    3    0    0 -0.23435922376E+01  0.14982672044E+02  0.22322074681E+01  0.15328262674E+02  0.51100000000E-03 0.  1.
        -12    1    3    3    0    0 -0.10831951834E+02  0.83592859247E+01  0.63786617158E+01  0.15096230224E+02  0.00000000000E+00 0.  1.
</event>
<event>
 7    1  0.5031164E-009  0.4778727E+02  0.7816164E-02  0.1312668E+00
        -11   -1    0    0    0    0  0.00000000000E+00  0.00000000000E+00  0.45593999997E+02  0.45594000000E+02  0.51100000000E-03 0.  1.
         11   -1    0    0    0    0 -0.00000000000E+00 -0.00000000000E+00 -0.45593999997E+02  0.45594000000E+02  0.51100000000E-03 0. -1.
    9900012    2    1    2    0    0 -0.34500054689E+02  0.11158259383E+02  0.23850846986E+02  0.47787269270E+02  0.19999991909E+02 0.  0.
         12    1    1    2    0    0  0.34500054689E+02 -0.11158259383E+02 -0.23850846986E+02  0.43400730730E+02  0.00000000000E+00 0. -1.
         11    1    3    3    0    0 -0.46372328317E+00 -0.75275475813E+00 -0.25264230672E+01  0.26766570167E+01  0.51100000000E-03 0. -1.
        -11    1    3    3    0    0 -0.15231016758E+02  0.20963704483E+01  0.11554776274E+02  0.19232563416E+02  0.51100000000E-03 0.  1.
         12    1    3    3    0    0 -0.18805314648E+02  0.98146436928E+01  0.14822493779E+02  0.25878048838E+02  0.00000000000E+00 0. -1.
</event>
<event>
 7    1  0.5031164E-009  0.4778727E+02  0.7816164E-02  0.1312668E+00
        -11   -1    0    0    0    0  0.00000000000E+00  0.00000000000E+00  0.45593999997E+02  0.45594000000E+02  0.51100000000E-03 0.  1.
         11   -1    0    0    0    0 -0.00000000000E+00 -0.00000000000E+00 -0.45593999997E+02  0.45594000000E+02  0.51100000000E-03 0. -1.
    9900012    2    1    2    0    0 -0.40907335752E+02 -0.17305534233E+01  0.14395089840E+02  0.47787267921E+02  0.19999985760E+02 0.  0.
         12    1    1    2    0    0  0.40907335752E+02  0.17305534233E+01 -0.14395089840E+02  0.43400732079E+02  0.00000000000E+00 0. -1.
         11    1    3    3    0    0 -0.92354008883E+00  0.11650222196E+01 -0.41630522990E+00  0.15438631330E+01  0.51100000000E-03 0.  1.
        -11    1    3    3    0    0  0.65385194678E+00  0.16277837081E+01 -0.14140179861E+01  0.22531420938E+01  0.51100000000E-03 0. -1.
        -12    1    3    3    0    0 -0.40637647610E+02 -0.45233593511E+01  0.16225413056E+02  0.43990262694E+02  0.00000000000E+00 0.  1.
</event>
<event>
 7    1  0.5031164E-009  0.4778728E+02  0.7816164E-02  0.1312668E+00
        -11   -1    0    0    0    0  0.00000000000E+00  0.00000000000E+00  0.45593999997E+02  0.45594000000E+02  0.51100000000E-03 0.  1.
         11   -1    0    0    0    0 -0.00000000000E+00 -0.00000000000E+00 -0.45593999997E+02  0.45594000000E+02  0.51100000000E-03 0. -1.
    9900012    2    1    2    0    0  0.27307832687E+02  0.23516171854E+01  0.33650779274E+02  0.47787276789E+02  0.20000026193E+02 0.  0.
         12    1    1    2    0    0 -0.27307832687E+02 -0.23516171854E+01 -0.33650779274E+02  0.43400723211E+02  0.00000000000E+00 0. -1.
         11    1    3    3    0    0  0.14181626346E+02 -0.67202695461E+01  0.91341524103E+01  0.18158008952E+02  0.51100000000E-03 0. -1.
        -11    1    3    3    0    0  0.47196438129E+01  0.88715745057E+00  0.86800721938E+01  0.99199667143E+01  0.51100000000E-03 0.  1.
         12    1    3    3    0    0  0.84065625281E+01  0.81847292809E+01  0.15836554670E+02  0.19709301123E+02  0.00000000000E+00 0. -1.
</event>
<event>
 7    1  0.5031164E-009  0.4778727E+02  0.7816164E-02  0.1312668E+00
        -11   -1    0    0    0    0  0.00000000000E+00  0.00000000000E+00  0.45593999997E+02  0.45594000000E+02  0.51100000000E-03 0.  1.
         11   -1    0    0    0    0 -0.00000000000E+00 -0.00000000000E+00 -0.45593999997E+02  0.45594000000E+02  0.51100000000E-03 0. -1.
    9900012    2    1    2    0    0 -0.14397470490E+02 -0.40666453832E+02 -0.47513882244E+01  0.47787270584E+02  0.19999997899E+02 0.  0.
         12    1    1    2    0    0  0.14397470490E+02  0.40666453832E+02  0.47513882244E+01  0.43400729416E+02  0.00000000000E+00 0. -1.
         11    1    3    3    0    0  0.11543138854E+00 -0.20308181014E+02  0.45114565202E+01  0.20803576151E+02  0.51100000000E-03 0. -1.
        -11    1    3    3    0    0 -0.94081714012E+01 -0.13634868031E+02 -0.81722073614E+01  0.18471824186E+02  0.51100000000E-03 0.  1.
         12    1    3    3    0    0 -0.51047304775E+01 -0.67234047883E+01 -0.10906373832E+01  0.85118702467E+01  0.00000000000E+00 0. -1.
</event>
<event>
 7    1  0.5031164E-009  0.4778727E+02  0.7816164E-02  0.1312668E+00
        -11   -1    0    0    0    0  0.00000000000E+00  0.00000000000E+00  0.45593999997E+02  0.45594000000E+02  0.51100000000E-03 0.  1.
         11   -1    0    0    0    0 -0.00000000000E+00 -0.00000000000E+00 -0.45593999997E+02  0.45594000000E+02  0.51100000000E-03 0. -1.
    9900012    2    1    2    0    0 -0.55254028382E+01 -0.42105846832E+02 -0.89549284823E+01  0.47787272379E+02  0.20000006083E+02 0.  0.
         12    1    1    2    0    0  0.55254028382E+01  0.42105846832E+02  0.89549284823E+01  0.43400727621E+02  0.00000000000E+00 0. -1.
         11    1    3    3    0    0 -0.19705631713E+01 -0.32589982265E+01 -0.15326118342E+00  0.38115191071E+01  0.51100000000E-03 0. -1.
        -11    1    3    3    0    0 -0.72817387907E+01 -0.17287281771E+02  0.31870652203E+01  0.19027117907E+02  0.51100000000E-03 0.  1.
        -12    1    3    3    0    0  0.37268991238E+01 -0.21559566834E+02 -0.11988732519E+02  0.24948635365E+02  0.00000000000E+00 0.  1.
</event>
<event>
 7    1  0.5031164E-009  0.4778727E+02  0.7816164E-02  0.1312668E+00
        -11   -1    0    0    0    0  0.00000000000E+00  0.00000000000E+00  0.45593999997E+02  0.45594000000E+02  0.51100000000E-03 0.  1.
         11   -1    0    0    0    0 -0.00000000000E+00 -0.00000000000E+00 -0.45593999997E+02  0.45594000000E+02  0.51100000000E-03 0. -1.
    9900012    2    1    2    0    0 -0.17520338850E+02  0.38577104962E+02  0.94057488515E+01  0.47787269452E+02  0.19999992740E+02 0.  0.
         12    1    1    2    0    0  0.17520338850E+02 -0.38577104962E+02 -0.94057488515E+01  0.43400730548E+02  0.00000000000E+00 0. -1.
         11    1    3    3    0    0 -0.16708348202E+01  0.11065698690E+00  0.10763356363E+01  0.19905860012E+01  0.51100000000E-03 0.  1.
        -11    1    3    3    0    0 -0.27801927161E+01  0.13020290223E+01 -0.35076161666E+01  0.46613434273E+01  0.51100000000E-03 0. -1.
        -12    1    3    3    0    0 -0.13069311313E+02  0.37164418952E+02  0.11837029382E+02  0.41135340024E+02  0.00000000000E+00 0.  1.
</event>
<event>
 7    1  0.5031164E-009  0.4778727E+02  0.7816164E-02  0.1312668E+00
        -11   -1    0    0    0    0  0.00000000000E+00  0.00000000000E+00  0.45593999997E+02  0.45594000000E+02  0.51100000000E-03 0.  1.
         11   -1    0    0    0    0 -0.00000000000E+00 -0.00000000000E+00 -0.45593999997E+02  0.45594000000E+02  0.51100000000E-03 0. -1.
    9900012    2    1    2    0    0 -0.16084530767E+02 -0.41588550116E+01  0.40095078807E+02  0.47787267869E+02  0.19999985522E+02 0.  0.
         12    1    1    2    0    0  0.16084530767E+02  0.41588550116E+01 -0.40095078807E+02  0.43400732131E+02  0.00000000000E+00 0. -1.
         11    1    3    3    0    0 -0.94859589377E+01 -0.16852594384E+01  0.67721973910E+01  0.11776509419E+02  0.51100000000E-03 0. -1.
        -11    1    3    3    0    0 -0.55367066501E+01 -0.62354648929E+01  0.29034374811E+02  0.30208129103E+02  0.51100000000E-03 0.  1.
        -12    1    3    3    0    0 -0.10618651790E+01  0.37618693198E+01  0.42885066043E+01  0.58026293465E+01  0.00000000000E+00 0.  1.
</event>
<event>
 7    1  0.5031164E-009  0.4778726E+02  0.7816164E-02  0.1312668E+00
        -11   -1    0    0    0    0  0.00000000000E+00  0.00000000000E+00  0.45593999997E+02  0.45594000000E+02  0.51100000000E-03 0. -1.
         11   -1    0    0    0    0 -0.00000000000E+00 -0.00000000000E+00 -0.45593999997E+02  0.45594000000E+02  0.51100000000E-03 0.  1.
    9900012    2    1    2    0    0  0.35481877436E+02  0.35987896668E+01 -0.24732757099E+02  0.47787260522E+02  0.19999952026E+02 0.  0.
         12    1    1    2    0    0 -0.35481877436E+02 -0.35987896668E+01  0.24732757099E+02  0.43400739478E+02  0.00000000000E+00 0. -1.
         11    1    3    3    0    0  0.16902834761E+01  0.37128362718E+01 -0.68821511543E+01  0.80003885020E+01  0.51100000000E-03 0. -1.
        -11    1    3    3    0    0  0.20239722875E+02 -0.54649216364E+01 -0.11235720832E+02  0.23785566494E+02  0.51100000000E-03 0.  1.
        -12    1    3    3    0    0  0.13551871085E+02  0.53508750314E+01 -0.66148851133E+01  0.16001305527E+02  0.00000000000E+00 0.  1.
</event>
<event>
 7    1  0.5031164E-009  0.4778727E+02  0.7816164E-02  0.1312668E+00
        -11   -1    0    0    0    0  0.00000000000E+00  0.00000000000E+00  0.45593999997E+02  0.45594000000E+02  0.51100000000E-03 0. -1.
         11   -1    0    0    0    0 -0.00000000000E+00 -0.00000000000E+00 -0.45593999997E+02  0.45594000000E+02  0.51100000000E-03 0.  1.
    9900012    2    1    2    0    0  0.29067828785E+02 -0.19638421226E+02 -0.25554196121E+02  0.47787271919E+02  0.20000003989E+02 0.  0.
         12    1    1    2    0    0 -0.29067828785E+02  0.19638421226E+02  0.25554196121E+02  0.43400728081E+02  0.00000000000E+00 0. -1.
         11    1    3    3    0    0  0.48507734599E+01  0.38552279261E+01 -0.28900685784E+01  0.68370521550E+01  0.51100000000E-03 0. -1.
        -11    1    3    3    0    0  0.11510929098E+02 -0.12212070658E+02 -0.84098084558E+01  0.18771282241E+02  0.51100000000E-03 0.  1.
         12    1    3    3    0    0  0.12706126228E+02 -0.11281578494E+02 -0.14254319087E+02  0.22178937523E+02  0.00000000000E+00 0. -1.
</event>
<event>
 7    1  0.5031164E-009  0.4778727E+02  0.7816164E-02  0.1312668E+00
        -11   -1    0    0    0    0  0.00000000000E+00  0.00000000000E+00  0.45593999997E+02  0.45594000000E+02  0.51100000000E-03 0.  1.
         11   -1    0    0    0    0 -0.00000000000E+00 -0.00000000000E+00 -0.45593999997E+02  0.45594000000E+02  0.51100000000E-03 0. -1.
    9900012    2    1    2    0    0  0.34310077724E+02 -0.16850529639E+02  0.20554844654E+02  0.47787269346E+02  0.19999992254E+02 0.  0.
         12    1    1    2    0    0 -0.34310077724E+02  0.16850529639E+02 -0.20554844654E+02  0.43400730654E+02  0.00000000000E+00 0. -1.
         11    1    3    3    0    0  0.59546224375E+01 -0.12033698185E+02  0.99674439954E+01  0.16721763078E+02  0.51100000000E-03 0. -1.
        -11    1    3    3    0    0  0.60742094163E+01 -0.29904100521E+01  0.34437564962E+01  0.75959220230E+01  0.51100000000E-03 0.  1.
         12    1    3    3    0    0  0.22281245871E+02 -0.18264214020E+01  0.71436441627E+01  0.23469584244E+02  0.00000000000E+00 0. -1.
</event>
<event>
 7    1  0.5031164E-009  0.4778728E+02  0.7816164E-02  0.1312668E+00
        -11   -1    0    0    0    0  0.00000000000E+00  0.00000000000E+00  0.45593999997E+02  0.45594000000E+02  0.51100000000E-03 0.  1.
         11   -1    0    0    0    0 -0.00000000000E+00 -0.00000000000E+00 -0.45593999997E+02  0.45594000000E+02  0.51100000000E-03 0. -1.
    9900012    2    1    2    0    0  0.25879815706E+02 -0.23227301283E+02  0.25968257098E+02  0.47787276935E+02  0.20000026859E+02 0.  0.
         12    1    1    2    0    0 -0.25879815706E+02  0.23227301283E+02 -0.25968257098E+02  0.43400723065E+02  0.00000000000E+00 0. -1.
         11    1    3    3    0    0  0.25086574377E+01 -0.11223721695E+02  0.69527958864E+01  0.13438997795E+02  0.51100000000E-03 0. -1.
        -11    1    3    3    0    0  0.21816802029E+01  0.21820869381E+01  0.24544161485E+01  0.39427643607E+01  0.51100000000E-03 0.  1.
         12    1    3    3    0    0  0.21189478065E+02 -0.14185666526E+02  0.16561045063E+02  0.30405514780E+02  0.00000000000E+00 0. -1.
</event>
<event>
 7    1  0.5031164E-009  0.4778727E+02  0.7816164E-02  0.1312668E+00
        -11   -1    0    0    0    0  0.00000000000E+00  0.00000000000E+00  0.45593999997E+02  0.45594000000E+02  0.51100000000E-03 0. -1.
         11   -1    0    0    0    0 -0.00000000000E+00 -0.00000000000E+00 -0.45593999997E+02  0.45594000000E+02  0.51100000000E-03 0.  1.
    9900012    2    1    2    0    0 -0.37928282335E+02 -0.20440513879E+02 -0.52205443314E+01  0.47787270840E+02  0.19999999066E+02 0.  0.
         12    1    1    2    0    0  0.37928282335E+02  0.20440513879E+02  0.52205443314E+01  0.43400729160E+02  0.00000000000E+00 0. -1.
         11    1    3    3    0    0 -0.23140256519E+02 -0.11065921910E+02  0.32942592140E+01  0.25860747156E+02  0.51100000000E-03 0. -1.
        -11    1    3    3    0    0 -0.49138886359E+01  0.12511679915E+01 -0.47328276418E+01  0.69362367763E+01  0.51100000000E-03 0.  1.
         12    1    3    3    0    0 -0.98741371806E+01 -0.10625759961E+02 -0.37819759036E+01  0.14990286907E+02  0.00000000000E+00 0. -1.
</event>
<event>
 7    1  0.5031164E-009  0.4778730E+02  0.7816164E-02  0.1312668E+00
        -11   -1    0    0    0    0  0.00000000000E+00  0.00000000000E+00  0.45593999997E+02  0.45594000000E+02  0.51100000000E-03 0.  1.
         11   -1    0    0    0    0 -0.00000000000E+00 -0.00000000000E+00 -0.45593999997E+02  0.45594000000E+02  0.51100000000E-03 0. -1.
    9900012    2    1    2    0    0 -0.13742777286E+00 -0.17384523501E+02  0.39766571364E+02  0.47787300215E+02  0.20000133000E+02 0.  0.
         12    1    1    2    0    0  0.13742777286E+00  0.17384523501E+02 -0.39766571364E+02  0.43400699785E+02  0.00000000000E+00 0. -1.
         11    1    3    3    0    0 -0.39562011966E+01 -0.74433715563E+01  0.26016018075E+01  0.88217708120E+01  0.51100000000E-03 0. -1.
        -11    1    3    3    0    0 -0.12383743151E+00 -0.48360845506E+01  0.21237574630E+02  0.21781589150E+02  0.51100000000E-03 0.  1.
         12    1    3    3    0    0  0.39426108552E+01 -0.51050673938E+01  0.15927394927E+02  0.17183940253E+02  0.00000000000E+00 0. -1.
</event>
<event>
 7    1  0.5031164E-009  0.4778727E+02  0.7816164E-02  0.1312668E+00
        -11   -1    0    0    0    0  0.00000000000E+00  0.00000000000E+00  0.45593999997E+02  0.45594000000E+02  0.51100000000E-03 0.  1.
         11   -1    0    0    0    0 -0.00000000000E+00 -0.00000000000E+00 -0.45593999997E+02  0.45594000000E+02  0.51100000000E-03 0. -1.
    9900012    2    1    2    0    0 -0.14350396505E+02 -0.35081843906E+02  0.21141271260E+02  0.47787274174E+02  0.20000014271E+02 0.  0.
         12    1    1    2    0    0  0.14350396505E+02  0.35081843906E+02 -0.21141271260E+02  0.43400725826E+02  0.00000000000E+00 0. -1.
         11    1    3    3    0    0 -0.83134829974E+01 -0.26569389582E+02  0.55932867104E+01  0.28395973637E+02  0.51100000000E-03 0. -1.
        -11    1    3    3    0    0 -0.18750013100E+01 -0.61598725849E+01  0.11251075331E+02  0.12963269515E+02  0.51100000000E-03 0.  1.
        -12    1    3    3    0    0 -0.41619121974E+01 -0.23525817389E+01  0.42969092195E+01  0.64280310218E+01  0.00000000000E+00 0.  1.
</event>
<event>
 7    1  0.5031164E-009  0.4778727E+02  0.7816164E-02  0.1312668E+00
        -11   -1    0    0    0    0  0.00000000000E+00  0.00000000000E+00  0.45593999997E+02  0.45594000000E+02  0.51100000000E-03 0. -1.
         11   -1    0    0    0    0 -0.00000000000E+00 -0.00000000000E+00 -0.45593999997E+02  0.45594000000E+02  0.51100000000E-03 0.  1.
    9900012    2    1    2    0    0 -0.36429630808E+02 -0.18533112417E+02  0.14595512596E+02  0.47787271381E+02  0.20000001536E+02 0.  0.
         12    1    1    2    0    0  0.36429630808E+02  0.18533112417E+02 -0.14595512596E+02  0.43400728619E+02  0.00000000000E+00 0. -1.
         11    1    3    3    0    0 -0.14827057940E+02 -0.10025187846E+02  0.13361509691E+02  0.22335531782E+02  0.51100000000E-03 0. -1.
        -11    1    3    3    0    0 -0.17341331137E+02 -0.34133430808E+01 -0.24718192707E+01  0.17846079888E+02  0.51100000000E-03 0.  1.
        -12    1    3    3    0    0 -0.42612417316E+01 -0.50945814898E+01  0.37058221764E+01  0.76056597120E+01  0.00000000000E+00 0.  1.
</event>
<event>
 7    1  0.5031164E-009  0.4778727E+02  0.7816164E-02  0.1312668E+00
        -11   -1    0    0    0    0  0.00000000000E+00  0.00000000000E+00  0.45593999997E+02  0.45594000000E+02  0.51100000000E-03 0.  1.
         11   -1    0    0    0    0 -0.00000000000E+00 -0.00000000000E+00 -0.45593999997E+02  0.45594000000E+02  0.51100000000E-03 0. -1.
    9900012    2    1    2    0    0  0.19092336132E+01 -0.35839019197E+02  0.24403744192E+02  0.47787271889E+02  0.20000003849E+02 0.  0.
         12    1    1    2    0    0 -0.19092336132E+01  0.35839019197E+02 -0.24403744192E+02  0.43400728111E+02  0.00000000000E+00 0. -1.
         11    1    3    3    0    0  0.14615961918E+01 -0.17756815215E+02  0.42657001739E+01  0.18320397055E+02  0.51100000000E-03 0. -1.
        -11    1    3    3    0    0 -0.25670001468E+01 -0.48005673370E+01  0.12992197649E+02  0.14086594213E+02  0.51100000000E-03 0.  1.
        -12    1    3    3    0    0  0.30146375681E+01 -0.13281636646E+02  0.71458463685E+01  0.15380280621E+02  0.00000000000E+00 0.  1.
</event>
<event>
 7    1  0.5031164E-009  0.4778727E+02  0.7816164E-02  0.1312668E+00
        -11   -1    0    0    0    0  0.00000000000E+00  0.00000000000E+00  0.45593999997E+02  0.45594000000E+02  0.51100000000E-03 0.  1.
         11   -1    0    0    0    0 -0.00000000000E+00 -0.00000000000E+00 -0.45593999997E+02  0.45594000000E+02  0.51100000000E-03 0. -1.
    9900012    2    1    2    0    0 -0.27915360232E+02 -0.26112964332E+02  0.20554053114E+02  0.47787270254E+02  0.19999996397E+02 0.  0.
         12    1    1    2    0    0  0.27915360232E+02  0.26112964332E+02 -0.20554053114E+02  0.43400729746E+02  0.00000000000E+00 0. -1.
         11    1    3    3    0    0 -0.11092652491E+02 -0.10623603002E+02  0.23254819862E+01  0.15534340886E+02  0.51100000000E-03 0. -1.
        -11    1    3    3    0    0 -0.54493825474E+01 -0.13323265033E+02  0.13539488791E+02  0.19761652721E+02  0.51100000000E-03 0.  1.
        -12    1    3    3    0    0 -0.11373325193E+02 -0.21660962975E+01  0.46890823365E+01  0.12491276647E+02  0.00000000000E+00 0.  1.
</event>
<event>
 7    1  0.5031164E-009  0.4778727E+02  0.7816164E-02  0.1312668E+00
        -11   -1    0    0    0    0  0.00000000000E+00  0.00000000000E+00  0.45593999997E+02  0.45594000000E+02  0.51100000000E-03 0.  1.
         11   -1    0    0    0    0 -0.00000000000E+00 -0.00000000000E+00 -0.45593999997E+02  0.45594000000E+02  0.51100000000E-03 0. -1.
    9900012    2    1    2    0    0  0.34024931661E+02  0.19457054319E+02  0.18637331954E+02  0.47787273282E+02  0.20000010200E+02 0.  0.
         12    1    1    2    0    0 -0.34024931661E+02 -0.19457054319E+02 -0.18637331954E+02  0.43400726718E+02  0.00000000000E+00 0. -1.
         11    1    3    3    0    0  0.28335799660E+01  0.98992228096E+01  0.53357677309E+01  0.11597163670E+02  0.51100000000E-03 0. -1.
        -11    1    3    3    0    0  0.14296684380E+02  0.37183750784E+00  0.72214331584E+01  0.16021315318E+02  0.51100000000E-03 0.  1.
         12    1    3    3    0    0  0.16894667315E+02  0.91859940011E+01  0.60801310652E+01  0.20168794293E+02  0.00000000000E+00 0. -1.
</event>
<event>
 7    1  0.5031164E-009  0.4778728E+02  0.7816164E-02  0.1312668E+00
        -11   -1    0    0    0    0  0.00000000000E+00  0.00000000000E+00  0.45593999997E+02  0.45594000000E+02  0.51100000000E-03 0.  1.
         11   -1    0    0    0    0 -0.00000000000E+00 -0.00000000000E+00 -0.45593999997E+02  0.45594000000E+02  0.51100000000E-03 0. -1.
    9900012    2    1    2    0    0 -0.23368402303E+02  0.51031602359E+01  0.36214616254E+02  0.47787275340E+02  0.20000019586E+02 0.  0.
         12    1    1    2    0    0  0.23368402303E+02 -0.51031602359E+01 -0.36214616254E+02  0.43400724660E+02  0.00000000000E+00 0. -1.
         11    1    3    3    0    0  0.28883814470E+00 -0.40973186899E+01  0.41763393843E+01  0.58577520291E+01  0.51100000000E-03 0. -1.
        -11    1    3    3    0    0 -0.15970645386E+02  0.10316494876E+02  0.25293499960E+02  0.31642577661E+02  0.51100000000E-03 0.  1.
        -12    1    3    3    0    0 -0.76865950620E+01 -0.11160159500E+01  0.67447769091E+01  0.10286945650E+02  0.00000000000E+00 0.  1.
</event>
<event>
 7    1  0.7182582E-009  0.4778727E+02  0.7816164E-02  0.1312668E+00
        -11   -1    0    0    0    0  0.00000000000E+00  0.00000000000E+00  0.45593999997E+02  0.45594000000E+02  0.51100000000E-03 0.  1.
         11   -1    0    0    0    0 -0.00000000000E+00 -0.00000000000E+00 -0.45593999997E+02  0.45594000000E+02  0.51100000000E-03 0. -1.
    9900012    2    1    2    0    0 -0.18709922884E+02 -0.44023807254E+01 -0.38912479210E+02  0.47787271796E+02  0.20000003428E+02 0.  0.
         12    1    1    2    0    0  0.18709922884E+02  0.44023807254E+01  0.38912479210E+02  0.43400728204E+02  0.00000000000E+00 0. -1.
         11    1    3    3    0    0 -0.12178768911E+01 -0.16863968732E+01  0.10449816181E+00  0.20828054789E+01  0.51100000000E-03 0. -1.
        -11    1    3    3    0    0 -0.10646169280E+02 -0.89797893648E+01 -0.18238367189E+02  0.22948106139E+02  0.51100000000E-03 0.  1.
        -12    1    3    3    0    0 -0.68458767131E+01  0.62638055127E+01 -0.20778610182E+02  0.22756360179E+02  0.00000000000E+00 0.  1.
</event>
<event>
 7    1  0.5031164E-009  0.4778727E+02  0.7816164E-02  0.1312668E+00
        -11   -1    0    0    0    0  0.00000000000E+00  0.00000000000E+00  0.45593999997E+02  0.45594000000E+02  0.51100000000E-03 0. -1.
         11   -1    0    0    0    0 -0.00000000000E+00 -0.00000000000E+00 -0.45593999997E+02  0.45594000000E+02  0.51100000000E-03 0.  1.
    9900012    2    1    2    0    0  0.10264026972E+02  0.25369096448E+02 -0.33685041262E+02  0.47787270639E+02  0.19999998152E+02 0.  0.
         12    1    1    2    0    0 -0.10264026972E+02 -0.25369096448E+02  0.33685041262E+02  0.43400729361E+02  0.00000000000E+00 0. -1.
         11    1    3    3    0    0  0.63584282684E+00  0.22014671507E+02 -0.15708346174E+02  0.27051842773E+02  0.51100000000E-03 0. -1.
        -11    1    3    3    0    0  0.88460316139E+00  0.15669464778E+00 -0.26985638745E+01  0.28441735551E+01  0.51100000000E-03 0.  1.
         12    1    3    3    0    0  0.87435809834E+01  0.31977302935E+01 -0.15278131213E+02  0.17891254311E+02  0.00000000000E+00 0. -1.
</event>
<event>
 7    1  0.5031164E-009  0.4778727E+02  0.7816164E-02  0.1312668E+00
        -11   -1    0    0    0    0  0.00000000000E+00  0.00000000000E+00  0.45593999997E+02  0.45594000000E+02  0.51100000000E-03 0.  1.
         11   -1    0    0    0    0 -0.00000000000E+00 -0.00000000000E+00 -0.45593999997E+02  0.45594000000E+02  0.51100000000E-03 0. -1.
    9900012    2    1    2    0    0 -0.22281080947E+02  0.37242473467E+02  0.41823406528E+00  0.47787270538E+02  0.19999997689E+02 0.  0.
         12    1    1    2    0    0  0.22281080947E+02 -0.37242473467E+02 -0.41823406528E+00  0.43400729462E+02  0.00000000000E+00 0. -1.
         11    1    3    3    0    0 -0.79167178696E+01  0.37690465928E+01  0.24264768703E+01  0.90976878551E+01  0.51100000000E-03 0. -1.
        -11    1    3    3    0    0 -0.33520526540E+01  0.20460538591E+02  0.29353600552E+01  0.20940062926E+02  0.51100000000E-03 0.  1.
        -12    1    3    3    0    0 -0.11012310423E+02  0.13012888283E+02 -0.49436028602E+01  0.17749519756E+02  0.00000000000E+00 0.  1.
</event>
<event>
 7    1  0.5031164E-009  0.4778727E+02  0.7816164E-02  0.1312668E+00
        -11   -1    0    0    0    0  0.00000000000E+00  0.00000000000E+00  0.45593999997E+02  0.45594000000E+02  0.51100000000E-03 0.  1.
         11   -1    0    0    0    0 -0.00000000000E+00 -0.00000000000E+00 -0.45593999997E+02  0.45594000000E+02  0.51100000000E-03 0. -1.
    9900012    2    1    2    0    0 -0.18841952030E+02 -0.24787627589E+02  0.30235367037E+02  0.47787273535E+02  0.20000011355E+02 0.  0.
         12    1    1    2    0    0  0.18841952030E+02  0.24787627589E+02 -0.30235367037E+02  0.43400726465E+02  0.00000000000E+00 0. -1.
         11    1    3    3    0    0 -0.84028798419E+01 -0.11911292236E+02  0.24809226942E+02  0.28774728741E+02  0.51100000000E-03 0.  1.
        -11    1    3    3    0    0 -0.51659749859E+01 -0.67803810018E+01 -0.11613385284E+01  0.86028815825E+01  0.51100000000E-03 0. -1.
         12    1    3    3    0    0 -0.52730972024E+01 -0.60959543516E+01  0.65874786237E+01  0.10409663212E+02  0.00000000000E+00 0. -1.
</event>
<event>
 7    1  0.5031164E-009  0.4778727E+02  0.7816164E-02  0.1312668E+00
        -11   -1    0    0    0    0  0.00000000000E+00  0.00000000000E+00  0.45593999997E+02  0.45594000000E+02  0.51100000000E-03 0.  1.
         11   -1    0    0    0    0 -0.00000000000E+00 -0.00000000000E+00 -0.45593999997E+02  0.45594000000E+02  0.51100000000E-03 0. -1.
    9900012    2    1    2    0    0 -0.47415541597E+01 -0.31408634215E+02  0.29574294451E+02  0.47787268078E+02  0.19999986474E+02 0.  0.
         12    1    1    2    0    0  0.47415541597E+01  0.31408634215E+02 -0.29574294451E+02  0.43400731922E+02  0.00000000000E+00 0. -1.
         11    1    3    3    0    0 -0.96027099362E+00  0.22398930467E+00  0.20737840046E+01  0.22962734917E+01  0.51100000000E-03 0. -1.
        -11    1    3    3    0    0  0.25971429412E+01  0.52547990505E+00  0.52138656669E+01  0.58485618781E+01  0.51100000000E-03 0.  1.
        -12    1    3    3    0    0 -0.63784261073E+01 -0.32158103425E+02  0.22286644779E+02  0.39642432708E+02  0.00000000000E+00 0.  1.
</event>
<event>
 7    1  0.5031164E-009  0.4778727E+02  0.7816164E-02  0.1312668E+00
        -11   -1    0    0    0    0  0.00000000000E+00  0.00000000000E+00  0.45593999997E+02  0.45594000000E+02  0.51100000000E-03 0. -1.
         11   -1    0    0    0    0 -0.00000000000E+00 -0.00000000000E+00 -0.45593999997E+02  0.45594000000E+02  0.51100000000E-03 0.  1.
    9900012    2    1    2    0    0  0.33008559656E+02 -0.17543978821E+02 -0.22051465138E+02  0.47787270534E+02  0.19999997673E+02 0.  0.
         12    1    1    2    0    0 -0.33008559656E+02  0.17543978821E+02  0.22051465138E+02  0.43400729466E+02  0.00000000000E+00 0. -1.
         11    1    3    3    0    0  0.10509564836E+02  0.22914171959E+01 -0.74373251896E+01  0.13077283817E+02  0.51100000000E-03 0. -1.
        -11    1    3    3    0    0  0.21280995386E+02 -0.20179690225E+02 -0.15493767202E+02  0.33168621988E+02  0.51100000000E-03 0.  1.
        -12    1    3    3    0    0  0.12179994341E+01  0.34429420765E+00  0.87962725360E+00  0.15413647291E+01  0.00000000000E+00 0.  1.
</event>
<event>
 7    1  0.5031164E-009  0.4778728E+02  0.7816164E-02  0.1312668E+00
        -11   -1    0    0    0    0  0.00000000000E+00  0.00000000000E+00  0.45593999997E+02  0.45594000000E+02  0.51100000000E-03 0.  1.
         11   -1    0    0    0    0 -0.00000000000E+00 -0.00000000000E+00 -0.45593999997E+02  0.45594000000E+02  0.51100000000E-03 0. -1.
    9900012    2    1    2    0    0 -0.39097378519E+02  0.13413512076E+02  0.13232356449E+02  0.47787279148E+02  0.20000036946E+02 0.  0.
         12    1    1    2    0    0  0.39097378519E+02 -0.13413512076E+02 -0.13232356449E+02  0.43400720852E+02  0.00000000000E+00 0. -1.
         11    1    3    3    0    0 -0.22885761689E+02  0.88284546961E+01  0.95678296342E+00  0.24548220594E+02  0.51100000000E-03 0. -1.
        -11    1    3    3    0    0 -0.79754758636E+01 -0.20428984592E+01  0.89401920257E+01  0.12153546111E+02  0.51100000000E-03 0.  1.
        -12    1    3    3    0    0 -0.82361409668E+01  0.66279558391E+01  0.33353814602E+01  0.11085512443E+02  0.00000000000E+00 0.  1.
</event>
<event>
 7    1  0.5031164E-009  0.4778726E+02  0.7816164E-02  0.1312668E+00
        -11   -1    0    0    0    0  0.00000000000E+00  0.00000000000E+00  0.45593999997E+02  0.45594000000E+02  0.51100000000E-03 0. -1.
         11   -1    0    0    0    0 -0.00000000000E+00 -0.00000000000E+00 -0.45593999997E+02  0.45594000000E+02  0.51100000000E-03 0.  1.
    9900012    2    1    2    0    0 -0.73895534994E+01  0.30542651055E+02 -0.29936017383E+02  0.47787260707E+02  0.19999952869E+02 0.  0.
         12    1    1    2    0    0  0.73895534994E+01 -0.30542651055E+02  0.29936017383E+02  0.43400739293E+02  0.00000000000E+00 0. -1.
         11    1    3    3    0    0  0.18823351460E+01  0.15757220882E+02 -0.69452561367E+01  0.17322522293E+02  0.51100000000E-03 0.  1.
        -11    1    3    3    0    0 -0.95654154223E+01  0.13124083348E+02 -0.23619843904E+02  0.28664189545E+02  0.51100000000E-03 0. -1.
         12    1    3    3    0    0  0.29352677688E+00  0.16613468250E+01  0.62908265770E+00  0.18005488696E+01  0.00000000000E+00 0. -1.
</event>
<event>
 7    1  0.5031164E-009  0.4778728E+02  0.7816164E-02  0.1312668E+00
        -11   -1    0    0    0    0  0.00000000000E+00  0.00000000000E+00  0.45593999997E+02  0.45594000000E+02  0.51100000000E-03 0.  1.
         11   -1    0    0    0    0 -0.00000000000E+00 -0.00000000000E+00 -0.45593999997E+02  0.45594000000E+02  0.51100000000E-03 0. -1.
    9900012    2    1    2    0    0 -0.16155579984E+02 -0.25412261738E+02  0.31254388478E+02  0.47787278688E+02  0.20000034850E+02 0.  0.
         12    1    1    2    0    0  0.16155579984E+02  0.25412261738E+02 -0.31254388478E+02  0.43400721312E+02  0.00000000000E+00 0. -1.
         11    1    3    3    0    0 -0.13506553525E+02 -0.56015673057E+01  0.15307588031E+02  0.21169005551E+02  0.51100000000E-03 0. -1.
        -11    1    3    3    0    0 -0.30203455893E+01 -0.17144475734E+02  0.99654177554E+01  0.20059040031E+02  0.51100000000E-03 0.  1.
         12    1    3    3    0    0  0.37131913044E+00 -0.26662186985E+01  0.59813826914E+01  0.65592331065E+01  0.00000000000E+00 0. -1.
</event>
<event>
 7    1  0.5031164E-009  0.4778726E+02  0.7816164E-02  0.1312668E+00
        -11   -1    0    0    0    0  0.00000000000E+00  0.00000000000E+00  0.45593999997E+02  0.45594000000E+02  0.51100000000E-03 0.  1.
         11   -1    0    0    0    0 -0.00000000000E+00 -0.00000000000E+00 -0.45593999997E+02  0.45594000000E+02  0.51100000000E-03 0. -1.
    9900012    2    1    2    0    0 -0.40342310161E+02 -0.63577035547E+01  0.14686791943E+02  0.47787259900E+02  0.19999949189E+02 0.  0.
         12    1    1    2    0    0  0.40342310161E+02  0.63577035547E+01 -0.14686791943E+02  0.43400740100E+02  0.00000000000E+00 0. -1.
         11    1    3    3    0    0 -0.98723028540E+01 -0.10022892950E+02  0.67326933812E+01  0.15596470984E+02  0.51100000000E-03 0. -1.
        -11    1    3    3    0    0 -0.16623545716E+02  0.18177274542E+01  0.71838956450E+01  0.18200405550E+02  0.51100000000E-03 0.  1.
         12    1    3    3    0    0 -0.13846461591E+02  0.18474619411E+01  0.77020291717E+00  0.13990383367E+02  0.00000000000E+00 0. -1.
</event>
<event>
 7    1  0.5031164E-009  0.4778727E+02  0.7816164E-02  0.1312668E+00
        -11   -1    0    0    0    0  0.00000000000E+00  0.00000000000E+00  0.45593999997E+02  0.45594000000E+02  0.51100000000E-03 0.  1.
         11   -1    0    0    0    0 -0.00000000000E+00 -0.00000000000E+00 -0.45593999997E+02  0.45594000000E+02  0.51100000000E-03 0. -1.
    9900012    2    1    2    0    0 -0.15202510722E+02  0.33333174010E+02  0.23268135986E+02  0.47787274498E+02  0.20000015746E+02 0.  0.
         12    1    1    2    0    0  0.15202510722E+02 -0.33333174010E+02 -0.23268135986E+02  0.43400725502E+02  0.00000000000E+00 0. -1.
         11    1    3    3    0    0 -0.22314078863E+01  0.10275977548E+02  0.13171976343E+02  0.16854550031E+02  0.51100000000E-03 0. -1.
        -11    1    3    3    0    0 -0.79902942786E+01  0.10982171048E+02 -0.12396153315E+01  0.13637797843E+02  0.51100000000E-03 0.  1.
         12    1    3    3    0    0 -0.49808085574E+01  0.12075025414E+02  0.11335774975E+02  0.17294926623E+02  0.00000000000E+00 0. -1.
</event>
<event>
 7    1  0.5031164E-009  0.4778727E+02  0.7816164E-02  0.1312668E+00
        -11   -1    0    0    0    0  0.00000000000E+00  0.00000000000E+00  0.45593999997E+02  0.45594000000E+02  0.51100000000E-03 0.  1.
         11   -1    0    0    0    0 -0.00000000000E+00 -0.00000000000E+00 -0.45593999997E+02  0.45594000000E+02  0.51100000000E-03 0. -1.
    9900012    2    1    2    0    0 -0.93818702247E+01  0.25224020783E+00  0.42373818589E+02  0.47787267105E+02  0.19999982037E+02 0.  0.
         12    1    1    2    0    0  0.93818702247E+01 -0.25224020783E+00 -0.42373818589E+02  0.43400732895E+02  0.00000000000E+00 0. -1.
         11    1    3    3    0    0 -0.28377971177E+00  0.24087782084E+01  0.27572494898E+01  0.36722157334E+01  0.51100000000E-03 0. -1.
        -11    1    3    3    0    0 -0.80716986435E+01 -0.43199144362E+01  0.72979894106E+01  0.11707887488E+02  0.51100000000E-03 0.  1.
        -12    1    3    3    0    0 -0.10263918694E+01  0.21633764356E+01  0.32318579689E+02  0.32407163883E+02  0.00000000000E+00 0.  1.
</event>
<event>
 7    1  0.5031164E-009  0.4778726E+02  0.7816164E-02  0.1312668E+00
        -11   -1    0    0    0    0  0.00000000000E+00  0.00000000000E+00  0.45593999997E+02  0.45594000000E+02  0.51100000000E-03 0.  1.
         11   -1    0    0    0    0 -0.00000000000E+00 -0.00000000000E+00 -0.45593999997E+02  0.45594000000E+02  0.51100000000E-03 0. -1.
    9900012    2    1    2    0    0  0.26562806421E+02  0.33774760968E+02  0.61079231733E+01  0.47787263959E+02  0.19999967697E+02 0.  0.
         12    1    1    2    0    0 -0.26562806421E+02 -0.33774760968E+02 -0.61079231733E+01  0.43400736041E+02  0.00000000000E+00 0. -1.
         11    1    3    3    0    0  0.60196557820E+01  0.18402987175E+02  0.88861914158E+01  0.21304238799E+02  0.51100000000E-03 0. -1.
        -11    1    3    3    0    0  0.13353628624E+02  0.93294918082E+01  0.10897677095E+01  0.16326249072E+02  0.51100000000E-03 0.  1.
         12    1    3    3    0    0  0.71895220146E+01  0.60422819850E+01 -0.38680359520E+01  0.10156776088E+02  0.00000000000E+00 0. -1.
</event>
<event>
 7    1  0.5031164E-009  0.4778727E+02  0.7816164E-02  0.1312668E+00
        -11   -1    0    0    0    0  0.00000000000E+00  0.00000000000E+00  0.45593999997E+02  0.45594000000E+02  0.51100000000E-03 0.  1.
         11   -1    0    0    0    0 -0.00000000000E+00 -0.00000000000E+00 -0.45593999997E+02  0.45594000000E+02  0.51100000000E-03 0. -1.
    9900012    2    1    2    0    0  0.95648870481E+01  0.28368505841E+02  0.31422350565E+02  0.47787270710E+02  0.19999998475E+02 0.  0.
         12    1    1    2    0    0 -0.95648870481E+01 -0.28368505841E+02 -0.31422350565E+02  0.43400729290E+02  0.00000000000E+00 0. -1.
         11    1    3    3    0    0  0.10989693341E+01  0.62145615801E+01  0.11627068641E+01  0.64171953954E+01  0.51100000000E-03 0. -1.
        -11    1    3    3    0    0 -0.43842130114E+01  0.41596528701E+01  0.54629931596E+01  0.81466760247E+01  0.51100000000E-03 0.  1.
        -12    1    3    3    0    0  0.12850130725E+02  0.17994291391E+02  0.24796650541E+02  0.33223399290E+02  0.00000000000E+00 0.  1.
</event>
<event>
 7    1  0.5031164E-009  0.4778727E+02  0.7816164E-02  0.1312668E+00
        -11   -1    0    0    0    0  0.00000000000E+00  0.00000000000E+00  0.45593999997E+02  0.45594000000E+02  0.51100000000E-03 0. -1.
         11   -1    0    0    0    0 -0.00000000000E+00 -0.00000000000E+00 -0.45593999997E+02  0.45594000000E+02  0.51100000000E-03 0.  1.
    9900012    2    1    2    0    0 -0.29343751642E+02  0.30780327481E+02  0.86682705556E+01  0.47787271496E+02  0.20000002058E+02 0.  0.
         12    1    1    2    0    0  0.29343751642E+02 -0.30780327481E+02 -0.86682705556E+01  0.43400728504E+02  0.00000000000E+00 0. -1.
         11    1    3    3    0    0 -0.23677688370E+02  0.23818849146E+02  0.12188060020E+02  0.35728410383E+02  0.51100000000E-03 0.  1.
        -11    1    3    3    0    0 -0.46284154737E+01  0.79142274506E+01 -0.46245957515E+01  0.10268598349E+02  0.51100000000E-03 0. -1.
        -12    1    3    3    0    0 -0.10376477986E+01 -0.95274911538E+00  0.11048062874E+01  0.17902627638E+01  0.00000000000E+00 0.  1.
</event>
<event>
 7    1  0.5031164E-009  0.4778727E+02  0.7816164E-02  0.1312668E+00
        -11   -1    0    0    0    0  0.00000000000E+00  0.00000000000E+00  0.45593999997E+02  0.45594000000E+02  0.51100000000E-03 0. -1.
         11   -1    0    0    0    0 -0.00000000000E+00 -0.00000000000E+00 -0.45593999997E+02  0.45594000000E+02  0.51100000000E-03 0.  1.
    9900012    2    1    2    0    0  0.35243713349E+02  0.25321382229E+02  0.57605400128E+00  0.47787267669E+02  0.19999984611E+02 0.  0.
         12    1    1    2    0    0 -0.35243713349E+02 -0.25321382229E+02 -0.57605400128E+00  0.43400732331E+02  0.00000000000E+00 0. -1.
         11    1    3    3    0    0  0.18914379998E+02  0.15088545305E+02  0.12744332293E+01  0.24228952731E+02  0.51100000000E-03 0.  1.
        -11    1    3    3    0    0  0.12474164323E+02 -0.73705308043E-01  0.53239923428E+00  0.12485738154E+02  0.51100000000E-03 0. -1.
        -12    1    3    3    0    0  0.38551690278E+01  0.10306542233E+02 -0.12307784623E+01  0.11072576785E+02  0.00000000000E+00 0.  1.
</event>
<event>
 7    1  0.5031164E-009  0.4778727E+02  0.7816164E-02  0.1312668E+00
        -11   -1    0    0    0    0  0.00000000000E+00  0.00000000000E+00  0.45593999997E+02  0.45594000000E+02  0.51100000000E-03 0.  1.
         11   -1    0    0    0    0 -0.00000000000E+00 -0.00000000000E+00 -0.45593999997E+02  0.45594000000E+02  0.51100000000E-03 0. -1.
    9900012    2    1    2    0    0 -0.13697342308E+02 -0.83370362073E+01  0.40329888012E+02  0.47787271595E+02  0.20000002510E+02 0.  0.
         12    1    1    2    0    0  0.13697342308E+02  0.83370362073E+01 -0.40329888012E+02  0.43400728405E+02  0.00000000000E+00 0. -1.
         11    1    3    3    0    0 -0.37085684873E+01 -0.10374788732E+02  0.13865601293E+02  0.17710014707E+02  0.51100000000E-03 0. -1.
        -11    1    3    3    0    0 -0.10234036189E+02  0.49369118142E+01  0.20395088513E+02  0.23346696355E+02  0.51100000000E-03 0.  1.
        -12    1    3    3    0    0  0.24526236885E+00 -0.28991592900E+01  0.60691982059E+01  0.67305605325E+01  0.00000000000E+00 0.  1.
</event>
<event>
 7    1  0.5031164E-009  0.4778727E+02  0.7816164E-02  0.1312668E+00
        -11   -1    0    0    0    0  0.00000000000E+00  0.00000000000E+00  0.45593999997E+02  0.45594000000E+02  0.51100000000E-03 0. -1.
         11   -1    0    0    0    0 -0.00000000000E+00 -0.00000000000E+00 -0.45593999997E+02  0.45594000000E+02  0.51100000000E-03 0.  1.
    9900012    2    1    2    0    0  0.34905643509E+02 -0.25779517835E+02  0.79739187231E+00  0.47787270485E+02  0.19999997450E+02 0.  0.
         12    1    1    2    0    0 -0.34905643509E+02  0.25779517835E+02 -0.79739187231E+00  0.43400729515E+02  0.00000000000E+00 0. -1.
         11    1    3    3    0    0  0.21616585928E+02 -0.79700585365E+01 -0.54095791248E+01  0.23665632610E+02  0.51100000000E-03 0. -1.
        -11    1    3    3    0    0  0.79467407507E+00 -0.97885832147E+00 -0.13429401167E+01  0.18420529084E+01  0.51100000000E-03 0.  1.
         12    1    3    3    0    0  0.12494383506E+02 -0.16830600977E+02  0.75499111138E+01  0.22279584966E+02  0.00000000000E+00 0. -1.
</event>
<event>
 7    1  0.5031164E-009  0.4778727E+02  0.7816164E-02  0.1312668E+00
        -11   -1    0    0    0    0  0.00000000000E+00  0.00000000000E+00  0.45593999997E+02  0.45594000000E+02  0.51100000000E-03 0.  1.
         11   -1    0    0    0    0 -0.00000000000E+00 -0.00000000000E+00 -0.45593999997E+02  0.45594000000E+02  0.51100000000E-03 0. -1.
    9900012    2    1    2    0    0  0.59799236311E+01  0.17563749138E+02  0.39234914773E+02  0.47787270655E+02  0.19999998225E+02 0.  0.
         12    1    1    2    0    0 -0.59799236311E+01 -0.17563749138E+02 -0.39234914773E+02  0.43400729345E+02  0.00000000000E+00 0. -1.
         11    1    3    3    0    0 -0.99467189966E+00  0.12906750207E+02  0.99010327958E+01  0.16297362479E+02  0.51100000000E-03 0. -1.
        -11    1    3    3    0    0  0.72873795722E+01  0.10768185116E+01  0.14984401003E+02  0.16697236682E+02  0.51100000000E-03 0.  1.
         12    1    3    3    0    0 -0.31278404146E+00  0.35801804194E+01  0.14349480974E+02  0.14792671494E+02  0.00000000000E+00 0. -1.
</event>
<event>
 7    1  0.5031164E-009  0.4778728E+02  0.7816164E-02  0.1312668E+00
        -11   -1    0    0    0    0  0.00000000000E+00  0.00000000000E+00  0.45593999997E+02  0.45594000000E+02  0.51100000000E-03 0. -1.
         11   -1    0    0    0    0 -0.00000000000E+00 -0.00000000000E+00 -0.45593999997E+02  0.45594000000E+02  0.51100000000E-03 0.  1.
    9900012    2    1    2    0    0  0.36812504109E+01  0.36952535816E+02 -0.22462885468E+02  0.47787277294E+02  0.20000028495E+02 0.  0.
         12    1    1    2    0    0 -0.36812504109E+01 -0.36952535816E+02  0.22462885468E+02  0.43400722706E+02  0.00000000000E+00 0. -1.
         11    1    3    3    0    0 -0.12351298353E+01  0.23297782834E+01 -0.97902157250E-01  0.26387492593E+01  0.51100000000E-03 0. -1.
        -11    1    3    3    0    0  0.31339781887E+01  0.18279483335E+02 -0.15310731308E+01  0.18609285733E+02  0.51100000000E-03 0.  1.
        -12    1    3    3    0    0  0.17824020575E+01  0.16343274198E+02 -0.20833910180E+02  0.26539242302E+02  0.00000000000E+00 0.  1.
</event>
<event>
 7    1  0.5031164E-009  0.4778727E+02  0.7816164E-02  0.1312668E+00
        -11   -1    0    0    0    0  0.00000000000E+00  0.00000000000E+00  0.45593999997E+02  0.45594000000E+02  0.51100000000E-03 0.  1.
         11   -1    0    0    0    0 -0.00000000000E+00 -0.00000000000E+00 -0.45593999997E+02  0.45594000000E+02  0.51100000000E-03 0. -1.
    9900012    2    1    2    0    0  0.50657409389E+01 -0.47386262082E+01  0.42842817279E+02  0.47787270720E+02  0.19999998521E+02 0.  0.
         12    1    1    2    0    0 -0.50657409389E+01  0.47386262082E+01 -0.42842817279E+02  0.43400729280E+02  0.00000000000E+00 0. -1.
         11    1    3    3    0    0  0.52105141000E+01 -0.54297338950E+01  0.34764728192E+02  0.35569900111E+02  0.51100000000E-03 0. -1.
        -11    1    3    3    0    0  0.20186327814E+01 -0.36234244816E+01  0.49843031155E+01  0.64843936562E+01  0.51100000000E-03 0.  1.
         12    1    3    3    0    0 -0.21634059426E+01  0.43145321684E+01  0.30937859713E+01  0.57329769528E+01  0.00000000000E+00 0. -1.
</event>
<event>
 7    1  0.5031164E-009  0.4778727E+02  0.7816164E-02  0.1312668E+00
        -11   -1    0    0    0    0  0.00000000000E+00  0.00000000000E+00  0.45593999997E+02  0.45594000000E+02  0.51100000000E-03 0.  1.
         11   -1    0    0    0    0 -0.00000000000E+00 -0.00000000000E+00 -0.45593999997E+02  0.45594000000E+02  0.51100000000E-03 0. -1.
    9900012    2    1    2    0    0  0.26026864736E+01  0.37532397490E+02 -0.21637206116E+02  0.47787268132E+02  0.19999986719E+02 0.  0.
         12    1    1    2    0    0 -0.26026864736E+01 -0.37532397490E+02  0.21637206116E+02  0.43400731868E+02  0.00000000000E+00 0. -1.
         11    1    3    3    0    0  0.17043384994E+01  0.31668626286E+01 -0.14656924209E+01  0.38835606295E+01  0.51100000000E-03 0. -1.
        -11    1    3    3    0    0  0.37225752905E+01  0.11431306659E+01 -0.70861951726E+01  0.80856958141E+01  0.51100000000E-03 0.  1.
        -12    1    3    3    0    0 -0.28242273163E+01  0.33222404195E+02 -0.13085318522E+02  0.35818011688E+02  0.00000000000E+00 0.  1.
</event>
<event>
 7    1  0.5031164E-009  0.4778729E+02  0.7816164E-02  0.1312668E+00
        -11   -1    0    0    0    0  0.00000000000E+00  0.00000000000E+00  0.45593999997E+02  0.45594000000E+02  0.51100000000E-03 0. -1.
         11   -1    0    0    0    0 -0.00000000000E+00 -0.00000000000E+00 -0.45593999997E+02  0.45594000000E+02  0.51100000000E-03 0.  1.
    9900012    2    1    2    0    0 -0.16713108433E+02  0.32613652514E+02 -0.23251743689E+02  0.47787286776E+02  0.20000071727E+02 0.  0.
         12    1    1    2    0    0  0.16713108433E+02 -0.32613652514E+02  0.23251743689E+02  0.43400713224E+02  0.00000000000E+00 0. -1.
         11    1    3    3    0    0 -0.78414640447E+01  0.27252594542E+02 -0.15758525477E+02  0.32442620010E+02  0.51100000000E-03 0. -1.
        -11    1    3    3    0    0 -0.20905363031E+01 -0.21608159648E+00 -0.61037279949E+01  0.64554263212E+01  0.51100000000E-03 0.  1.
         12    1    3    3    0    0 -0.67811080851E+01  0.55771395680E+01 -0.13894902167E+01  0.88892404448E+01  0.00000000000E+00 0. -1.
</event>
<event>
 7    1  0.5031164E-009  0.4778726E+02  0.7816164E-02  0.1312668E+00
        -11   -1    0    0    0    0  0.00000000000E+00  0.00000000000E+00  0.45593999997E+02  0.45594000000E+02  0.51100000000E-03 0.  1.
         11   -1    0    0    0    0 -0.00000000000E+00 -0.00000000000E+00 -0.45593999997E+02  0.45594000000E+02  0.51100000000E-03 0. -1.
    9900012    2    1    2    0    0  0.14827619098E+02  0.39025698571E+02  0.11864249684E+02  0.47787264319E+02  0.19999969338E+02 0.  0.
         12    1    1    2    0    0 -0.14827619098E+02 -0.39025698571E+02 -0.11864249684E+02  0.43400735681E+02  0.00000000000E+00 0. -1.
         11    1    3    3    0    0  0.34377080855E+01  0.20674996395E+02 -0.73580563761E+00  0.20971760131E+02  0.51100000000E-03 0. -1.
        -11    1    3    3    0    0  0.19260093033E+01  0.61514285993E+01  0.88117886377E+01  0.10917747245E+02  0.51100000000E-03 0.  1.
        -12    1    3    3    0    0  0.94639017090E+01  0.12199273577E+02  0.37882666836E+01  0.15897756943E+02  0.00000000000E+00 0.  1.
</event>
<event>
 7    1  0.5031164E-009  0.4778728E+02  0.7816164E-02  0.1312668E+00
        -11   -1    0    0    0    0  0.00000000000E+00  0.00000000000E+00  0.45593999997E+02  0.45594000000E+02  0.51100000000E-03 0. -1.
         11   -1    0    0    0    0 -0.00000000000E+00 -0.00000000000E+00 -0.45593999997E+02  0.45594000000E+02  0.51100000000E-03 0.  1.
    9900012    2    1    2    0    0 -0.18755617299E+02 -0.29967661301E+02 -0.25175160473E+02  0.47787278704E+02  0.20000034925E+02 0.  0.
         12    1    1    2    0    0  0.18755617299E+02  0.29967661301E+02  0.25175160473E+02  0.43400721296E+02  0.00000000000E+00 0. -1.
         11    1    3    3    0    0  0.67549340717E+00 -0.21532903252E+01 -0.50348866559E+00  0.23122395346E+01  0.51100000000E-03 0. -1.
        -11    1    3    3    0    0  0.83099167588E+00 -0.31491967983E+01 -0.96724092247E+01  0.10206051544E+02  0.51100000000E-03 0.  1.
        -12    1    3    3    0    0 -0.20262102382E+02 -0.24665174177E+02 -0.14999262583E+02  0.35268987626E+02  0.00000000000E+00 0.  1.
</event>
<event>
 7    1  0.5031164E-009  0.4778727E+02  0.7816164E-02  0.1312668E+00
        -11   -1    0    0    0    0  0.00000000000E+00  0.00000000000E+00  0.45593999997E+02  0.45594000000E+02  0.51100000000E-03 0.  1.
         11   -1    0    0    0    0 -0.00000000000E+00 -0.00000000000E+00 -0.45593999997E+02  0.45594000000E+02  0.51100000000E-03 0. -1.
    9900012    2    1    2    0    0 -0.15530750302E+01  0.29118612022E+02 -0.32145253658E+02  0.47787274880E+02  0.20000017489E+02 0.  0.
         12    1    1    2    0    0  0.15530750302E+01 -0.29118612022E+02  0.32145253658E+02  0.43400725120E+02  0.00000000000E+00 0. -1.
         11    1    3    3    0    0 -0.51534641238E+01  0.44096169233E+01 -0.14639949944E+01  0.69387459595E+01  0.51100000000E-03 0. -1.
        -11    1    3    3    0    0  0.24484413305E+01  0.23325826483E+02 -0.31146194591E+02  0.38989415023E+02  0.51100000000E-03 0.  1.
         12    1    3    3    0    0  0.11519477631E+01  0.13831686157E+01  0.46493592725E+00  0.18591138977E+01  0.00000000000E+00 0. -1.
</event>
<event>
 7    1  0.5031164E-009  0.4778727E+02  0.7816164E-02  0.1312668E+00
        -11   -1    0    0    0    0  0.00000000000E+00  0.00000000000E+00  0.45593999997E+02  0.45594000000E+02  0.51100000000E-03 0. -1.
         11   -1    0    0    0    0 -0.00000000000E+00 -0.00000000000E+00 -0.45593999997E+02  0.45594000000E+02  0.51100000000E-03 0.  1.
    9900012    2    1    2    0    0  0.42005837273E+02  0.10401420052E+02 -0.33081550663E+01  0.47787265052E+02  0.19999972679E+02 0.  0.
         12    1    1    2    0    0 -0.42005837273E+02 -0.10401420052E+02  0.33081550663E+01  0.43400734948E+02  0.00000000000E+00 0. -1.
         11    1    3    3    0    0  0.61229291272E+01 -0.10739987923E+01  0.54331219758E+01  0.82560613592E+01  0.51100000000E-03 0. -1.
        -11    1    3    3    0    0  0.27008460886E+02  0.51895709507E+01 -0.79444228555E+01  0.28626953398E+02  0.51100000000E-03 0.  1.
         12    1    3    3    0    0  0.88744472595E+01  0.62858478937E+01 -0.79685418660E+00  0.10904250295E+02  0.00000000000E+00 0. -1.
</event>
<event>
 7    1  0.5031164E-009  0.4778727E+02  0.7816164E-02  0.1312668E+00
        -11   -1    0    0    0    0  0.00000000000E+00  0.00000000000E+00  0.45593999997E+02  0.45594000000E+02  0.51100000000E-03 0.  1.
         11   -1    0    0    0    0 -0.00000000000E+00 -0.00000000000E+00 -0.45593999997E+02  0.45594000000E+02  0.51100000000E-03 0. -1.
    9900012    2    1    2    0    0  0.24245494044E+02  0.71429257593E+01  0.35281132277E+02  0.47787266543E+02  0.19999979476E+02 0.  0.
         12    1    1    2    0    0 -0.24245494044E+02 -0.71429257593E+01 -0.35281132277E+02  0.43400733457E+02  0.00000000000E+00 0. -1.
         11    1    3    3    0    0  0.10550540770E+02 -0.45670995669E+01  0.92785273759E+01  0.14773739524E+02  0.51100000000E-03 0. -1.
        -11    1    3    3    0    0  0.15082460536E+02  0.11218229269E+02  0.24762239230E+02  0.31088547340E+02  0.51100000000E-03 0.  1.
         12    1    3    3    0    0 -0.13875072628E+01  0.49179605713E+00  0.12403656718E+01  0.19249796794E+01  0.00000000000E+00 0. -1.
</event>
<event>
 7    1  0.5031164E-009  0.4778727E+02  0.7816164E-02  0.1312668E+00
        -11   -1    0    0    0    0  0.00000000000E+00  0.00000000000E+00  0.45593999997E+02  0.45594000000E+02  0.51100000000E-03 0.  1.
         11   -1    0    0    0    0 -0.00000000000E+00 -0.00000000000E+00 -0.45593999997E+02  0.45594000000E+02  0.51100000000E-03 0. -1.
    9900012    2    1    2    0    0  0.17165777286E+02  0.60126427000E+01  0.39405674070E+02  0.47787274995E+02  0.20000018011E+02 0.  0.
         12    1    1    2    0    0 -0.17165777286E+02 -0.60126427000E+01 -0.39405674070E+02  0.43400725005E+02  0.00000000000E+00 0. -1.
         11    1    3    3    0    0  0.93117952214E+01  0.63290506765E+01  0.11941746703E+02  0.16412547861E+02  0.51100000000E-03 0. -1.
        -11    1    3    3    0    0 -0.35661815282E+01  0.48251030346E+00  0.83862376729E+01  0.91257574729E+01  0.51100000000E-03 0.  1.
        -12    1    3    3    0    0  0.11420163593E+02 -0.79891828000E+00  0.19077689694E+02  0.22248969661E+02  0.00000000000E+00 0.  1.
</event>
<event>
 7    1  0.5031164E-009  0.4778727E+02  0.7816164E-02  0.1312668E+00
        -11   -1    0    0    0    0  0.00000000000E+00  0.00000000000E+00  0.45593999997E+02  0.45594000000E+02  0.51100000000E-03 0. -1.
         11   -1    0    0    0    0 -0.00000000000E+00 -0.00000000000E+00 -0.45593999997E+02  0.45594000000E+02  0.51100000000E-03 0.  1.
    9900012    2    1    2    0    0  0.21829579668E+02 -0.43721769957E+01 -0.37255562440E+02  0.47787269443E+02  0.19999992698E+02 0.  0.
         12    1    1    2    0    0 -0.21829579668E+02  0.43721769957E+01  0.37255562440E+02  0.43400730557E+02  0.00000000000E+00 0. -1.
         11    1    3    3    0    0  0.97693856489E+01 -0.23047294700E+01 -0.13253601486E+02  0.16625601538E+02  0.51100000000E-03 0. -1.
        -11    1    3    3    0    0  0.91377738772E+01  0.58758991077E+01 -0.17009992154E+02  0.20183283556E+02  0.51100000000E-03 0.  1.
        -12    1    3    3    0    0  0.29224201422E+01 -0.79433466334E+01 -0.69919688003E+01  0.10978384350E+02  0.00000000000E+00 0.  1.
</event>
<event>
 7    1  0.5031164E-009  0.4778727E+02  0.7816164E-02  0.1312668E+00
        -11   -1    0    0    0    0  0.00000000000E+00  0.00000000000E+00  0.45593999997E+02  0.45594000000E+02  0.51100000000E-03 0.  1.
         11   -1    0    0    0    0 -0.00000000000E+00 -0.00000000000E+00 -0.45593999997E+02  0.45594000000E+02  0.51100000000E-03 0. -1.
    9900012    2    1    2    0    0 -0.38025339812E+02  0.16938292173E+02  0.12279690482E+02  0.47787274109E+02  0.20000013974E+02 0.  0.
         12    1    1    2    0    0  0.38025339812E+02 -0.16938292173E+02 -0.12279690482E+02  0.43400725891E+02  0.00000000000E+00 0. -1.
         11    1    3    3    0    0 -0.64615364721E+01  0.30827284678E+01 -0.36978148279E+01  0.80578224819E+01  0.51100000000E-03 0. -1.
        -11    1    3    3    0    0 -0.28840205710E+02  0.11043271126E+02  0.17538295550E+02  0.35514829489E+02  0.51100000000E-03 0.  1.
        -12    1    3    3    0    0 -0.27235976295E+01  0.28122925789E+01 -0.15607902403E+01  0.42146221385E+01  0.00000000000E+00 0.  1.
</event>
<event>
 7    1  0.5031164E-009  0.4778727E+02  0.7816164E-02  0.1312668E+00
        -11   -1    0    0    0    0  0.00000000000E+00  0.00000000000E+00  0.45593999997E+02  0.45594000000E+02  0.51100000000E-03 0.  1.
         11   -1    0    0    0    0 -0.00000000000E+00 -0.00000000000E+00 -0.45593999997E+02  0.45594000000E+02  0.51100000000E-03 0. -1.
    9900012    2    1    2    0    0  0.28798100874E+02 -0.24242050838E+02  0.21601284176E+02  0.47787272808E+02  0.20000008039E+02 0.  0.
         12    1    1    2    0    0 -0.28798100874E+02  0.24242050838E+02 -0.21601284176E+02  0.43400727192E+02  0.00000000000E+00 0. -1.
         11    1    3    3    0    0  0.48760129934E+01 -0.64739118964E+01  0.12955354753E-01  0.81047644048E+01  0.51100000000E-03 0. -1.
        -11    1    3    3    0    0  0.72338496173E+01  0.14832047852E+01  0.23235984668E+01  0.77412910303E+01  0.51100000000E-03 0.  1.
        -12    1    3    3    0    0  0.16688238263E+02 -0.19251343727E+02  0.19264730355E+02  0.31941217373E+02  0.00000000000E+00 0.  1.
</event>
<event>
 7    1  0.5031164E-009  0.4778728E+02  0.7816164E-02  0.1312668E+00
        -11   -1    0    0    0    0  0.00000000000E+00  0.00000000000E+00  0.45593999997E+02  0.45594000000E+02  0.51100000000E-03 0.  1.
         11   -1    0    0    0    0 -0.00000000000E+00 -0.00000000000E+00 -0.45593999997E+02  0.45594000000E+02  0.51100000000E-03 0. -1.
    9900012    2    1    2    0    0 -0.43988848245E+01  0.31818456519E+02  0.29186616051E+02  0.47787275128E+02  0.20000018617E+02 0.  0.
         12    1    1    2    0    0  0.43988848245E+01 -0.31818456519E+02 -0.29186616051E+02  0.43400724872E+02  0.00000000000E+00 0. -1.
         11    1    3    3    0    0  0.15168769031E+01  0.10275479570E+01  0.31598448748E+01  0.36525867871E+01  0.51100000000E-03 0. -1.
        -11    1    3    3    0    0  0.50710860464E+01  0.15291941713E+02  0.15770843212E+02  0.22545041382E+02  0.51100000000E-03 0.  1.
        -12    1    3    3    0    0 -0.10986847774E+02  0.15498966849E+02  0.10255927964E+02  0.21589646958E+02  0.00000000000E+00 0.  1.
</event>
<event>
 7    1  0.5031164E-009  0.4778727E+02  0.7816164E-02  0.1312668E+00
        -11   -1    0    0    0    0  0.00000000000E+00  0.00000000000E+00  0.45593999997E+02  0.45594000000E+02  0.51100000000E-03 0.  1.
         11   -1    0    0    0    0 -0.00000000000E+00 -0.00000000000E+00 -0.45593999997E+02  0.45594000000E+02  0.51100000000E-03 0. -1.
    9900012    2    1    2    0    0  0.34221315298E+02  0.13410738369E+02  0.23079792084E+02  0.47787272737E+02  0.20000007717E+02 0.  0.
         12    1    1    2    0    0 -0.34221315298E+02 -0.13410738369E+02 -0.23079792084E+02  0.43400727263E+02  0.00000000000E+00 0. -1.
         11    1    3    3    0    0  0.21172904774E+01  0.62190955385E+01  0.98977696699E+00  0.66437735504E+01  0.51100000000E-03 0. -1.
        -11    1    3    3    0    0  0.31903989925E+02  0.64283093573E+01  0.18433826919E+02  0.37403124328E+02  0.51100000000E-03 0.  1.
        -12    1    3    3    0    0  0.20003489583E+00  0.76333347314E+00  0.36561881972E+01  0.37403748588E+01  0.00000000000E+00 0.  1.
</event>
<event>
 7    1  0.5031164E-009  0.4778725E+02  0.7816164E-02  0.1312668E+00
        -11   -1    0    0    0    0  0.00000000000E+00  0.00000000000E+00  0.45593999997E+02  0.45594000000E+02  0.51100000000E-03 0.  1.
         11   -1    0    0    0    0 -0.00000000000E+00 -0.00000000000E+00 -0.45593999997E+02  0.45594000000E+02  0.51100000000E-03 0. -1.
    9900012    2    1    2    0    0  0.11579652102E+01  0.39164408705E+02  0.18666371958E+02  0.47787248455E+02  0.19999897004E+02 0.  0.
         12    1    1    2    0    0 -0.11579652102E+01 -0.39164408705E+02 -0.18666371958E+02  0.43400751545E+02  0.00000000000E+00 0. -1.
         11    1    3    3    0    0  0.13383386456E+01  0.20338516358E+02  0.99447038840E+00  0.20406748139E+02  0.51100000000E-03 0. -1.
        -11    1    3    3    0    0  0.29029591579E+01  0.88917194532E+01  0.39296766172E+01  0.10145551009E+02  0.51100000000E-03 0.  1.
         12    1    3    3    0    0 -0.30833325932E+01  0.99341728931E+01  0.13742224952E+02  0.17234949306E+02  0.00000000000E+00 0. -1.
</event>
<event>
 7    1  0.5031164E-009  0.4778727E+02  0.7816164E-02  0.1312668E+00
        -11   -1    0    0    0    0  0.00000000000E+00  0.00000000000E+00  0.45593999997E+02  0.45594000000E+02  0.51100000000E-03 0. -1.
         11   -1    0    0    0    0 -0.00000000000E+00 -0.00000000000E+00 -0.45593999997E+02  0.45594000000E+02  0.51100000000E-03 0.  1.
    9900012    2    1    2    0    0  0.37789840901E+02  0.23456188096E+01  0.21214365353E+02  0.47787270740E+02  0.19999998613E+02 0.  0.
         12    1    1    2    0    0 -0.37789840901E+02 -0.23456188096E+01 -0.21214365353E+02  0.43400729260E+02  0.00000000000E+00 0. -1.
         11    1    3    3    0    0  0.34007108915E+00 -0.39363241008E+01  0.47364622059E+00  0.39792759110E+01  0.51100000000E-03 0. -1.
        -11    1    3    3    0    0  0.60839947588E+01  0.21533778622E+01  0.10347548117E+01  0.65362639347E+01  0.51100000000E-03 0.  1.
         12    1    3    3    0    0  0.31365775053E+02  0.41285650482E+01  0.19705964321E+02  0.37271730894E+02  0.00000000000E+00 0. -1.
</event>
<event>
 7    1  0.6220825E-009  0.4778727E+02  0.7816164E-02  0.1312668E+00
        -11   -1    0    0    0    0  0.00000000000E+00  0.00000000000E+00  0.45593999997E+02  0.45594000000E+02  0.51100000000E-03 0. -1.
         11   -1    0    0    0    0 -0.00000000000E+00 -0.00000000000E+00 -0.45593999997E+02  0.45594000000E+02  0.51100000000E-03 0.  1.
    9900012    2    1    2    0    0 -0.17228300567E+02 -0.17419546871E+02 -0.35824137273E+02  0.47787265387E+02  0.19999974206E+02 0.  0.
         12    1    1    2    0    0  0.17228300567E+02  0.17419546871E+02  0.35824137273E+02  0.43400734613E+02  0.00000000000E+00 0. -1.
         11    1    3    3    0    0  0.13842957245E+01 -0.46515044570E+01 -0.27439049094E+01  0.55751038357E+01  0.51100000000E-03 0. -1.
        -11    1    3    3    0    0 -0.89505145648E+01 -0.37945842519E+00 -0.19445115118E+02  0.21409535303E+02  0.51100000000E-03 0.  1.
        -12    1    3    3    0    0 -0.96620817267E+01 -0.12388583989E+02 -0.13635117245E+02  0.20802626248E+02  0.00000000000E+00 0.  1.
</event>
<event>
 7    1  0.5031164E-009  0.4778727E+02  0.7816164E-02  0.1312668E+00
        -11   -1    0    0    0    0  0.00000000000E+00  0.00000000000E+00  0.45593999997E+02  0.45594000000E+02  0.51100000000E-03 0.  1.
         11   -1    0    0    0    0 -0.00000000000E+00 -0.00000000000E+00 -0.45593999997E+02  0.45594000000E+02  0.51100000000E-03 0. -1.
    9900012    2    1    2    0    0 -0.40353547444E+02 -0.11698604535E+02 -0.10879191833E+02  0.47787274726E+02  0.20000016786E+02 0.  0.
         12    1    1    2    0    0  0.40353547444E+02  0.11698604535E+02  0.10879191833E+02  0.43400725274E+02  0.00000000000E+00 0. -1.
         11    1    3    3    0    0 -0.14970098955E+02 -0.70196494772E+01  0.36607190789E+01  0.16934586087E+02  0.51100000000E-03 0. -1.
        -11    1    3    3    0    0 -0.11567355594E+02  0.15340416368E+01 -0.37584685021E+01  0.12259000160E+02  0.51100000000E-03 0.  1.
         12    1    3    3    0    0 -0.13816092894E+02 -0.62129966947E+01 -0.10781442410E+02  0.18593688478E+02  0.00000000000E+00 0. -1.
</event>
<event>
 7    1  0.5031164E-009  0.4778726E+02  0.7816164E-02  0.1312668E+00
        -11   -1    0    0    0    0  0.00000000000E+00  0.00000000000E+00  0.45593999997E+02  0.45594000000E+02  0.51100000000E-03 0.  1.
         11   -1    0    0    0    0 -0.00000000000E+00 -0.00000000000E+00 -0.45593999997E+02  0.45594000000E+02  0.51100000000E-03 0. -1.
    9900012    2    1    2    0    0  0.38351756614E+02 -0.12078159472E+01  0.20280740677E+02  0.47787256951E+02  0.19999935743E+02 0.  0.
         12    1    1    2    0    0 -0.38351756614E+02  0.12078159472E+01 -0.20280740677E+02  0.43400743049E+02  0.00000000000E+00 0. -1.
         11    1    3    3    0    0  0.26609255047E+02  0.80375283420E+00  0.14191349804E+02  0.30167745727E+02  0.51100000000E-03 0.  1.
        -11    1    3    3    0    0 -0.62024429484E+00 -0.21253671920E+01 -0.18848300390E+01  0.29076576867E+01  0.51100000000E-03 0. -1.
         12    1    3    3    0    0  0.12362745863E+02  0.11379841057E+00  0.79742209123E+01  0.14711853537E+02  0.00000000000E+00 0. -1.
</event>
<event>
 7    1  0.5031164E-009  0.4778728E+02  0.7816164E-02  0.1312668E+00
        -11   -1    0    0    0    0  0.00000000000E+00  0.00000000000E+00  0.45593999997E+02  0.45594000000E+02  0.51100000000E-03 0.  1.
         11   -1    0    0    0    0 -0.00000000000E+00 -0.00000000000E+00 -0.45593999997E+02  0.45594000000E+02  0.51100000000E-03 0. -1.
    9900012    2    1    2    0    0 -0.33035973181E+02  0.23426114272E+02  0.15603326417E+02  0.47787284002E+02  0.20000059078E+02 0.  0.
         12    1    1    2    0    0  0.33035973181E+02 -0.23426114272E+02 -0.15603326417E+02  0.43400715998E+02  0.00000000000E+00 0. -1.
         11    1    3    3    0    0 -0.19861863698E+02  0.60402553867E+01  0.64991513825E+01  0.21753557953E+02  0.51100000000E-03 0. -1.
        -11    1    3    3    0    0 -0.12676116765E+02  0.18672423439E+02  0.96564381990E+01  0.24547711345E+02  0.51100000000E-03 0.  1.
        -12    1    3    3    0    0 -0.49799271834E+00 -0.12865645534E+01 -0.55226316403E+00  0.14860147038E+01  0.00000000000E+00 0.  1.
</event>
<event>
 7    1  0.5031164E-009  0.4778727E+02  0.7816164E-02  0.1312668E+00
        -11   -1    0    0    0    0  0.00000000000E+00  0.00000000000E+00  0.45593999997E+02  0.45594000000E+02  0.51100000000E-03 0. -1.
         11   -1    0    0    0    0 -0.00000000000E+00 -0.00000000000E+00 -0.45593999997E+02  0.45594000000E+02  0.51100000000E-03 0.  1.
    9900012    2    1    2    0    0 -0.41265782215E+02  0.72351537631E+00  0.13425176164E+02  0.47787267157E+02  0.19999982275E+02 0.  0.
         12    1    1    2    0    0  0.41265782215E+02 -0.72351537631E+00 -0.13425176164E+02  0.43400732843E+02  0.00000000000E+00 0. -1.
         11    1    3    3    0    0 -0.46561742427E+01  0.23282236548E+01 -0.20543726832E+01  0.55965195745E+01  0.51100000000E-03 0. -1.
        -11    1    3    3    0    0 -0.37847397028E+02 -0.97845457783E+00  0.14870161773E+02  0.40675601367E+02  0.51100000000E-03 0.  1.
        -12    1    3    3    0    0  0.12377890565E+01 -0.62625370071E+00  0.60938707460E+00  0.15151462149E+01  0.00000000000E+00 0.  1.
</event>
<event>
 7    1  0.5031164E-009  0.4778727E+02  0.7816164E-02  0.1312668E+00
        -11   -1    0    0    0    0  0.00000000000E+00  0.00000000000E+00  0.45593999997E+02  0.45594000000E+02  0.51100000000E-03 0. -1.
         11   -1    0    0    0    0 -0.00000000000E+00 -0.00000000000E+00 -0.45593999997E+02  0.45594000000E+02  0.51100000000E-03 0.  1.
    9900012    2    1    2    0    0  0.23258271947E+02  0.36532759333E+02  0.28344181202E+01  0.47787266775E+02  0.19999980533E+02 0.  0.
         12    1    1    2    0    0 -0.23258271947E+02 -0.36532759333E+02 -0.28344181202E+01  0.43400733225E+02  0.00000000000E+00 0. -1.
         11    1    3    3    0    0  0.14523131598E+01  0.83215903901E+01  0.79767023751E+01  0.11618341585E+02  0.51100000000E-03 0. -1.
        -11    1    3    3    0    0  0.17028996755E+02  0.22533582540E+02 -0.27743697620E+01  0.28380384078E+02  0.51100000000E-03 0.  1.
         12    1    3    3    0    0  0.47769620315E+01  0.56775864026E+01 -0.23679144929E+01  0.77885411121E+01  0.00000000000E+00 0. -1.
</event>
<event>
 7    1  0.5031164E-009  0.4778727E+02  0.7816164E-02  0.1312668E+00
        -11   -1    0    0    0    0  0.00000000000E+00  0.00000000000E+00  0.45593999997E+02  0.45594000000E+02  0.51100000000E-03 0.  1.
         11   -1    0    0    0    0 -0.00000000000E+00 -0.00000000000E+00 -0.45593999997E+02  0.45594000000E+02  0.51100000000E-03 0. -1.
    9900012    2    1    2    0    0  0.80065071669E+01 -0.39573517366E+02  0.15920299227E+02  0.47787270038E+02  0.19999995413E+02 0.  0.
         12    1    1    2    0    0 -0.80065071669E+01  0.39573517366E+02 -0.15920299227E+02  0.43400729962E+02  0.00000000000E+00 0. -1.
         11    1    3    3    0    0  0.40848374764E+01 -0.28987859849E+01  0.16233449088E+01  0.52653685862E+01  0.51100000000E-03 0. -1.
        -11    1    3    3    0    0 -0.36634540330E+01 -0.10623897571E+02  0.10016199062E+02  0.15053648692E+02  0.51100000000E-03 0.  1.
        -12    1    3    3    0    0  0.75851237235E+01 -0.26050833810E+02  0.42807552562E+01  0.27468252760E+02  0.00000000000E+00 0.  1.
</event>
<event>
 7    1  0.5031164E-009  0.4778727E+02  0.7816164E-02  0.1312668E+00
        -11   -1    0    0    0    0  0.00000000000E+00  0.00000000000E+00  0.45593999997E+02  0.45594000000E+02  0.51100000000E-03 0.  1.
         11   -1    0    0    0    0 -0.00000000000E+00 -0.00000000000E+00 -0.45593999997E+02  0.45594000000E+02  0.51100000000E-03 0. -1.
    9900012    2    1    2    0    0  0.16007651175E+01  0.41516263002E+02 -0.12548333184E+02  0.47787271800E+02  0.20000003444E+02 0.  0.
         12    1    1    2    0    0 -0.16007651175E+01 -0.41516263002E+02  0.12548333184E+02  0.43400728200E+02  0.00000000000E+00 0. -1.
         11    1    3    3    0    0 -0.34345795299E+01  0.47677686165E+01  0.13669204129E+01  0.60329450357E+01  0.51100000000E-03 0. -1.
        -11    1    3    3    0    0  0.53547256623E+01  0.35286608250E+02 -0.92711253517E+01  0.36875080668E+02  0.51100000000E-03 0.  1.
         12    1    3    3    0    0 -0.31938101484E+00  0.14618861351E+01 -0.46441282454E+01  0.48792460959E+01  0.00000000000E+00 0. -1.
</event>
<event>
 7    1  0.5031164E-009  0.4778727E+02  0.7816164E-02  0.1312668E+00
        -11   -1    0    0    0    0  0.00000000000E+00  0.00000000000E+00  0.45593999997E+02  0.45594000000E+02  0.51100000000E-03 0. -1.
         11   -1    0    0    0    0 -0.00000000000E+00 -0.00000000000E+00 -0.45593999997E+02  0.45594000000E+02  0.51100000000E-03 0.  1.
    9900012    2    1    2    0    0 -0.35041126330E+02 -0.24938328125E+02 -0.58157320205E+01  0.47787268635E+02  0.19999989013E+02 0.  0.
         12    1    1    2    0    0  0.35041126330E+02  0.24938328125E+02  0.58157320205E+01  0.43400731365E+02  0.00000000000E+00 0. -1.
         11    1    3    3    0    0 -0.91972499486E+01 -0.75600364607E+01  0.58368325326E+01  0.13259418244E+02  0.51100000000E-03 0. -1.
        -11    1    3    3    0    0 -0.20732362024E+02 -0.94803059640E+01 -0.60815565367E+01  0.23594329116E+02  0.51100000000E-03 0.  1.
         12    1    3    3    0    0 -0.51115143578E+01 -0.78979856999E+01 -0.55710080163E+01  0.10933521275E+02  0.00000000000E+00 0. -1.
</event>
<event>
 7    1  0.5031164E-009  0.4778727E+02  0.7816164E-02  0.1312668E+00
        -11   -1    0    0    0    0  0.00000000000E+00  0.00000000000E+00  0.45593999997E+02  0.45594000000E+02  0.51100000000E-03 0.  1.
         11   -1    0    0    0    0 -0.00000000000E+00 -0.00000000000E+00 -0.45593999997E+02  0.45594000000E+02  0.51100000000E-03 0. -1.
    9900012    2    1    2    0    0  0.23907904420E+02 -0.13455353115E+02  0.33630180033E+02  0.47787269243E+02  0.19999991785E+02 0.  0.
         12    1    1    2    0    0 -0.23907904420E+02  0.13455353115E+02 -0.33630180033E+02  0.43400730757E+02  0.00000000000E+00 0. -1.
         11    1    3    3    0    0  0.18899988306E+02 -0.67456639171E+01  0.18344002708E+02  0.27188526538E+02  0.51100000000E-03 0. -1.
        -11    1    3    3    0    0 -0.16530681416E+01  0.40935832577E+00  0.86239499450E+01  0.87904903979E+01  0.51100000000E-03 0.  1.
         12    1    3    3    0    0  0.66609842550E+01 -0.71190475236E+01  0.66622273801E+01  0.11808252307E+02  0.00000000000E+00 0. -1.
</event>
<event>
 7    1  0.5031164E-009  0.4778730E+02  0.7816164E-02  0.1312668E+00
        -11   -1    0    0    0    0  0.00000000000E+00  0.00000000000E+00  0.45593999997E+02  0.45594000000E+02  0.51100000000E-03 0.  1.
         11   -1    0    0    0    0 -0.00000000000E+00 -0.00000000000E+00 -0.45593999997E+02  0.45594000000E+02  0.51100000000E-03 0. -1.
    9900012    2    1    2    0    0  0.32225669460E+02  0.27460575594E+02  0.95417009691E+01  0.47787296762E+02  0.20000117258E+02 0.  0.
         12    1    1    2    0    0 -0.32225669460E+02 -0.27460575594E+02 -0.95417009691E+01  0.43400703238E+02  0.00000000000E+00 0. -1.
         11    1    3    3    0    0  0.79670411523E+01  0.17263115348E+02  0.73012728978E+01  0.20366577582E+02  0.51100000000E-03 0. -1.
        -11    1    3    3    0    0  0.62863500756E+01  0.61410702253E+01  0.19106051106E+01  0.89934060809E+01  0.51100000000E-03 0.  1.
         12    1    3    3    0    0  0.17972278232E+02  0.40563900215E+01  0.32982296069E+00  0.18427313099E+02  0.00000000000E+00 0. -1.
</event>
<event>
 7    1  0.5031164E-009  0.4778727E+02  0.7816164E-02  0.1312668E+00
        -11   -1    0    0    0    0  0.00000000000E+00  0.00000000000E+00  0.45593999997E+02  0.45594000000E+02  0.51100000000E-03 0. -1.
         11   -1    0    0    0    0 -0.00000000000E+00 -0.00000000000E+00 -0.45593999997E+02  0.45594000000E+02  0.51100000000E-03 0.  1.
    9900012    2    1    2    0    0 -0.21579351446E+02  0.32007573756E+02 -0.19836083705E+02  0.47787269554E+02  0.19999993203E+02 0.  0.
         12    1    1    2    0    0  0.21579351446E+02 -0.32007573756E+02  0.19836083705E+02  0.43400730446E+02  0.00000000000E+00 0. -1.
         11    1    3    3    0    0 -0.67248116485E+00  0.66324600659E+01 -0.10069937339E+02  0.12076646708E+02  0.51100000000E-03 0. -1.
        -11    1    3    3    0    0 -0.68503838026E+01  0.39571527367E+01  0.89614964432E+00  0.79617774693E+01  0.51100000000E-03 0.  1.
         12    1    3    3    0    0 -0.14056486478E+02  0.21417960953E+02 -0.10662296010E+02  0.27748845376E+02  0.00000000000E+00 0. -1.
</event>
<event>
 7    1  0.5031164E-009  0.4778727E+02  0.7816164E-02  0.1312668E+00
        -11   -1    0    0    0    0  0.00000000000E+00  0.00000000000E+00  0.45593999997E+02  0.45594000000E+02  0.51100000000E-03 0.  1.
         11   -1    0    0    0    0 -0.00000000000E+00 -0.00000000000E+00 -0.45593999997E+02  0.45594000000E+02  0.51100000000E-03 0. -1.
    9900012    2    1    2    0    0 -0.12980820436E+02  0.29003654929E+02  0.29561956147E+02  0.47787274779E+02  0.20000017028E+02 0.  0.
         12    1    1    2    0    0  0.12980820436E+02 -0.29003654929E+02 -0.29561956147E+02  0.43400725221E+02  0.00000000000E+00 0. -1.
         11    1    3    3    0    0 -0.19398319378E+01  0.58731413781E+01  0.11018311919E+02  0.12635661257E+02  0.51100000000E-03 0. -1.
        -11    1    3    3    0    0 -0.51339909454E+01  0.11103384350E+01  0.90319907167E+01  0.10448328624E+02  0.51100000000E-03 0.  1.
        -12    1    3    3    0    0 -0.59069975527E+01  0.22020175116E+02  0.95116535117E+01  0.24703284898E+02  0.00000000000E+00 0.  1.
</event>
<event>
 7    1  0.5031164E-009  0.4778727E+02  0.7816164E-02  0.1312668E+00
        -11   -1    0    0    0    0  0.00000000000E+00  0.00000000000E+00  0.45593999997E+02  0.45594000000E+02  0.51100000000E-03 0.  1.
         11   -1    0    0    0    0 -0.00000000000E+00 -0.00000000000E+00 -0.45593999997E+02  0.45594000000E+02  0.51100000000E-03 0. -1.
    9900012    2    1    2    0    0 -0.42210570915E+02  0.26298782141E+01  0.97454952981E+01  0.47787271492E+02  0.20000002041E+02 0.  0.
         12    1    1    2    0    0  0.42210570915E+02 -0.26298782141E+01 -0.97454952981E+01  0.43400728508E+02  0.00000000000E+00 0. -1.
         11    1    3    3    0    0 -0.14921493615E+02  0.40120579032E+01 -0.26788867658E+01  0.15681964637E+02  0.51100000000E-03 0. -1.
        -11    1    3    3    0    0 -0.20609709904E+02 -0.60171401472E+01  0.92375203125E+01  0.23373016486E+02  0.51100000000E-03 0.  1.
        -12    1    3    3    0    0 -0.66793673963E+01  0.46349604581E+01  0.31868617514E+01  0.87322903688E+01  0.00000000000E+00 0.  1.
</event>
<event>
 7    1  0.5227465E-009  0.4778726E+02  0.7816164E-02  0.1312668E+00
        -11   -1    0    0    0    0  0.00000000000E+00  0.00000000000E+00  0.45593999997E+02  0.45594000000E+02  0.51100000000E-03 0. -1.
         11   -1    0    0    0    0 -0.00000000000E+00 -0.00000000000E+00 -0.45593999997E+02  0.45594000000E+02  0.51100000000E-03 0.  1.
    9900012    2    1    2    0    0 -0.36270203221E+02  0.21454110787E+02 -0.10383511662E+02  0.47787264686E+02  0.19999971007E+02 0.  0.
         12    1    1    2    0    0  0.36270203221E+02 -0.21454110787E+02  0.10383511662E+02  0.43400735314E+02  0.00000000000E+00 0. -1.
         11    1    3    3    0    0 -0.61509655144E-01 -0.98780460855E+00  0.20658468428E+01  0.22906909048E+01  0.51100000000E-03 0. -1.
        -11    1    3    3    0    0 -0.17910580177E+02  0.99396099592E+01 -0.11090742408E+02  0.23293546228E+02  0.51100000000E-03 0.  1.
        -12    1    3    3    0    0 -0.18298113389E+02  0.12502305437E+02 -0.13586160967E+01  0.22203027553E+02  0.00000000000E+00 0.  1.
</event>
<event>
 7    1  0.5031164E-009  0.4778727E+02  0.7816164E-02  0.1312668E+00
        -11   -1    0    0    0    0  0.00000000000E+00  0.00000000000E+00  0.45593999997E+02  0.45594000000E+02  0.51100000000E-03 0.  1.
         11   -1    0    0    0    0 -0.00000000000E+00 -0.00000000000E+00 -0.45593999997E+02  0.45594000000E+02  0.51100000000E-03 0. -1.
    9900012    2    1    2    0    0  0.79094430531E-01  0.22765278449E+02  0.36950764789E+02  0.47787272157E+02  0.20000005075E+02 0.  0.
         12    1    1    2    0    0 -0.79094430531E-01 -0.22765278449E+02 -0.36950764789E+02  0.43400727843E+02  0.00000000000E+00 0. -1.
         11    1    3    3    0    0  0.12626109597E+00  0.54662605502E+01 -0.10613336254E+00  0.54687485606E+01  0.51100000000E-03 0. -1.
        -11    1    3    3    0    0 -0.37289232281E+00  0.23847612640E+01  0.17782228388E+02  0.17945299709E+02  0.51100000000E-03 0.  1.
         12    1    3    3    0    0  0.32572565738E+00  0.14914256635E+02  0.19274669764E+02  0.24373223888E+02  0.00000000000E+00 0. -1.
</event>
<event>
 7    1  0.5031164E-009  0.4778727E+02  0.7816164E-02  0.1312668E+00
        -11   -1    0    0    0    0  0.00000000000E+00  0.00000000000E+00  0.45593999997E+02  0.45594000000E+02  0.51100000000E-03 0. -1.
         11   -1    0    0    0    0 -0.00000000000E+00 -0.00000000000E+00 -0.45593999997E+02  0.45594000000E+02  0.51100000000E-03 0.  1.
    9900012    2    1    2    0    0 -0.24315183717E+02 -0.83319243945E+01 -0.34971045984E+02  0.47787272120E+02  0.20000004902E+02 0.  0.
         12    1    1    2    0    0  0.24315183717E+02  0.83319243945E+01  0.34971045984E+02  0.43400727880E+02  0.00000000000E+00 0. -1.
         11    1    3    3    0    0 -0.28915826093E+01  0.57157734719E+01 -0.80469889913E+01  0.10285200458E+02  0.51100000000E-03 0. -1.
        -11    1    3    3    0    0 -0.11681515522E+02 -0.91790295436E+01 -0.18538741392E+02  0.23757047816E+02  0.51100000000E-03 0.  1.
         12    1    3    3    0    0 -0.97420855859E+01 -0.48686683229E+01 -0.83853156006E+01  0.13745023846E+02  0.00000000000E+00 0. -1.
</event>
<event>
 7    1  0.5031164E-009  0.4778727E+02  0.7816164E-02  0.1312668E+00
        -11   -1    0    0    0    0  0.00000000000E+00  0.00000000000E+00  0.45593999997E+02  0.45594000000E+02  0.51100000000E-03 0.  1.
         11   -1    0    0    0    0 -0.00000000000E+00 -0.00000000000E+00 -0.45593999997E+02  0.45594000000E+02  0.51100000000E-03 0. -1.
    9900012    2    1    2    0    0 -0.16587340896E+02 -0.16374432703E+02  0.36610944308E+02  0.47787272270E+02  0.20000005589E+02 0.  0.
         12    1    1    2    0    0  0.16587340896E+02  0.16374432703E+02 -0.36610944308E+02  0.43400727730E+02  0.00000000000E+00 0. -1.
         11    1    3    3    0    0 -0.40613789653E+01 -0.46369536066E+01 -0.97886968890E+00  0.62413399185E+01  0.51100000000E-03 0. -1.
        -11    1    3    3    0    0 -0.50319041482E+01 -0.68314128842E+01  0.21792714137E+02  0.23386120907E+02  0.51100000000E-03 0.  1.
         12    1    3    3    0    0 -0.74940577829E+01 -0.49060662124E+01  0.15797099860E+02  0.18159811445E+02  0.00000000000E+00 0. -1.
</event>
<event>
 7    1  0.5031164E-009  0.4778730E+02  0.7816164E-02  0.1312668E+00
        -11   -1    0    0    0    0  0.00000000000E+00  0.00000000000E+00  0.45593999997E+02  0.45594000000E+02  0.51100000000E-03 0.  1.
         11   -1    0    0    0    0 -0.00000000000E+00 -0.00000000000E+00 -0.45593999997E+02  0.45594000000E+02  0.51100000000E-03 0. -1.
    9900012    2    1    2    0    0 -0.62639201521E-01 -0.25754797833E+02  0.34932891192E+02  0.47787303898E+02  0.20000149793E+02 0.  0.
         12    1    1    2    0    0  0.62639201521E-01  0.25754797833E+02 -0.34932891192E+02  0.43400696102E+02  0.00000000000E+00 0. -1.
         11    1    3    3    0    0 -0.58308345579E+01 -0.27824649662E+01  0.72400572040E+01  0.97035648865E+01  0.51100000000E-03 0. -1.
        -11    1    3    3    0    0  0.31634278909E+01 -0.22543006700E+02  0.27074032758E+02  0.35372272717E+02  0.51100000000E-03 0.  1.
        -12    1    3    3    0    0  0.26047674655E+01 -0.42932616703E+00  0.61880122962E+00  0.27114662950E+01  0.00000000000E+00 0.  1.
</event>
<event>
 7    1  0.5031164E-009  0.4778726E+02  0.7816164E-02  0.1312668E+00
        -11   -1    0    0    0    0  0.00000000000E+00  0.00000000000E+00  0.45593999997E+02  0.45594000000E+02  0.51100000000E-03 0.  1.
         11   -1    0    0    0    0 -0.00000000000E+00 -0.00000000000E+00 -0.45593999997E+02  0.45594000000E+02  0.51100000000E-03 0. -1.
    9900012    2    1    2    0    0 -0.32427888287E+02  0.23801112840E+02  0.16296105638E+02  0.47787263023E+02  0.19999963427E+02 0.  0.
         12    1    1    2    0    0  0.32427888287E+02 -0.23801112840E+02 -0.16296105638E+02  0.43400736977E+02  0.00000000000E+00 0. -1.
         11    1    3    3    0    0 -0.88758879844E+01  0.12292988525E+02 -0.68279365388E+00  0.15177785142E+02  0.51100000000E-03 0. -1.
        -11    1    3    3    0    0 -0.10227130277E+02  0.93813158053E+01  0.56253997709E+01  0.14974925802E+02  0.51100000000E-03 0.  1.
         12    1    3    3    0    0 -0.13324870026E+02  0.21268085097E+01  0.11353499521E+02  0.17634552079E+02  0.00000000000E+00 0. -1.
</event>
<event>
 7    1  0.5031164E-009  0.4778727E+02  0.7816164E-02  0.1312668E+00
        -11   -1    0    0    0    0  0.00000000000E+00  0.00000000000E+00  0.45593999997E+02  0.45594000000E+02  0.51100000000E-03 0. -1.
         11   -1    0    0    0    0 -0.00000000000E+00 -0.00000000000E+00 -0.45593999997E+02  0.45594000000E+02  0.51100000000E-03 0.  1.
    9900012    2    1    2    0    0 -0.40837341271E+02  0.14446584756E+02  0.26891054550E+01  0.47787267963E+02  0.19999985951E+02 0.  0.
         12    1    1    2    0    0  0.40837341271E+02 -0.14446584756E+02 -0.26891054550E+01  0.43400732037E+02  0.00000000000E+00 0. -1.
         11    1    3    3    0    0 -0.12388202452E+02  0.10916144616E+02 -0.15543575264E+01  0.16584504842E+02  0.51100000000E-03 0. -1.
        -11    1    3    3    0    0 -0.17499769443E+02 -0.33781380525E+01  0.39366543783E+01  0.18252424366E+02  0.51100000000E-03 0.  1.
        -12    1    3    3    0    0 -0.10949369376E+02  0.69085781925E+01  0.30680860318E+00  0.12950338756E+02  0.00000000000E+00 0.  1.
</event>
<event>
 7    1  0.5031164E-009  0.4778727E+02  0.7816164E-02  0.1312668E+00
        -11   -1    0    0    0    0  0.00000000000E+00  0.00000000000E+00  0.45593999997E+02  0.45594000000E+02  0.51100000000E-03 0.  1.
         11   -1    0    0    0    0 -0.00000000000E+00 -0.00000000000E+00 -0.45593999997E+02  0.45594000000E+02  0.51100000000E-03 0. -1.
    9900012    2    1    2    0    0  0.41144113287E+02  0.50541324787E+01  0.12854609263E+02  0.47787270829E+02  0.19999999017E+02 0.  0.
         12    1    1    2    0    0 -0.41144113287E+02 -0.50541324787E+01 -0.12854609263E+02  0.43400729171E+02  0.00000000000E+00 0. -1.
         11    1    3    3    0    0  0.68504893515E+01  0.18526662068E+01 -0.42479724996E+01  0.82708431884E+01  0.51100000000E-03 0. -1.
        -11    1    3    3    0    0  0.16140826979E+02  0.57532227150E+01  0.64139747597E+01  0.18296582732E+02  0.51100000000E-03 0.  1.
         12    1    3    3    0    0  0.18152796956E+02 -0.25517564431E+01  0.10688607003E+02  0.21219844908E+02  0.00000000000E+00 0. -1.
</event>
<event>
 7    1  0.5031164E-009  0.4778727E+02  0.7816164E-02  0.1312668E+00
        -11   -1    0    0    0    0  0.00000000000E+00  0.00000000000E+00  0.45593999997E+02  0.45594000000E+02  0.51100000000E-03 0.  1.
         11   -1    0    0    0    0 -0.00000000000E+00 -0.00000000000E+00 -0.45593999997E+02  0.45594000000E+02  0.51100000000E-03 0. -1.
    9900012    2    1    2    0    0 -0.42138481054E+02 -0.81647081122E+01  0.64272020599E+01  0.47787274541E+02  0.20000015941E+02 0.  0.
         12    1    1    2    0    0  0.42138481054E+02  0.81647081122E+01 -0.64272020599E+01  0.43400725459E+02  0.00000000000E+00 0. -1.
         11    1    3    3    0    0 -0.18017038397E+02 -0.44457511897E+01 -0.24846397709E+01  0.18723028902E+02  0.51100000000E-03 0. -1.
        -11    1    3    3    0    0 -0.11732948184E+02 -0.65881081803E+01  0.92745745110E+01  0.16342673438E+02  0.51100000000E-03 0.  1.
        -12    1    3    3    0    0 -0.12388494473E+02  0.28691512577E+01 -0.36273268020E+00  0.12721572200E+02  0.00000000000E+00 0.  1.
</event>
<event>
 7    1  0.5031164E-009  0.4778727E+02  0.7816164E-02  0.1312668E+00
        -11   -1    0    0    0    0  0.00000000000E+00  0.00000000000E+00  0.45593999997E+02  0.45594000000E+02  0.51100000000E-03 0.  1.
         11   -1    0    0    0    0 -0.00000000000E+00 -0.00000000000E+00 -0.45593999997E+02  0.45594000000E+02  0.51100000000E-03 0. -1.
    9900012    2    1    2    0    0 -0.32271438031E+02  0.14698274369E+02  0.25022755297E+02  0.47787271150E+02  0.20000000483E+02 0.  0.
         12    1    1    2    0    0  0.32271438031E+02 -0.14698274369E+02 -0.25022755297E+02  0.43400728850E+02  0.00000000000E+00 0. -1.
         11    1    3    3    0    0 -0.51286249102E+01  0.10321459453E+02  0.25798489261E+01  0.11810628241E+02  0.51100000000E-03 0. -1.
        -11    1    3    3    0    0 -0.19561158475E+02  0.79336827021E+00  0.13932021447E+02  0.24028515892E+02  0.51100000000E-03 0.  1.
        -12    1    3    3    0    0 -0.75816546455E+01  0.35834466460E+01  0.85108849241E+01  0.11948127017E+02  0.00000000000E+00 0.  1.
</event>
<event>
 7    1  0.5031164E-009  0.4778728E+02  0.7816164E-02  0.1312668E+00
        -11   -1    0    0    0    0  0.00000000000E+00  0.00000000000E+00  0.45593999997E+02  0.45594000000E+02  0.51100000000E-03 0. -1.
         11   -1    0    0    0    0 -0.00000000000E+00 -0.00000000000E+00 -0.45593999997E+02  0.45594000000E+02  0.51100000000E-03 0.  1.
    9900012    2    1    2    0    0  0.42671446210E+02  0.72438979972E+01  0.32088208896E+01  0.47787275221E+02  0.20000019041E+02 0.  0.
         12    1    1    2    0    0 -0.42671446210E+02 -0.72438979972E+01 -0.32088208896E+01  0.43400724779E+02  0.00000000000E+00 0. -1.
         11    1    3    3    0    0  0.75345525441E+01  0.34409998578E+01 -0.37955663182E+01  0.91113273456E+01  0.51100000000E-03 0. -1.
        -11    1    3    3    0    0  0.29004986617E+02 -0.11882574943E+01  0.15500855889E+01  0.29070671993E+02  0.51100000000E-03 0.  1.
        -12    1    3    3    0    0  0.61319070489E+01  0.49911556336E+01  0.54543016189E+01  0.96052758818E+01  0.00000000000E+00 0.  1.
</event>
<event>
 7    1  0.5031164E-009  0.4778727E+02  0.7816164E-02  0.1312668E+00
        -11   -1    0    0    0    0  0.00000000000E+00  0.00000000000E+00  0.45593999997E+02  0.45594000000E+02  0.51100000000E-03 0.  1.
         11   -1    0    0    0    0 -0.00000000000E+00 -0.00000000000E+00 -0.45593999997E+02  0.45594000000E+02  0.51100000000E-03 0. -1.
    9900012    2    1    2    0    0  0.87598284351E+01  0.38367761582E+02 -0.18297643183E+02  0.47787268796E+02  0.19999989748E+02 0.  0.
         12    1    1    2    0    0 -0.87598284351E+01 -0.38367761582E+02  0.18297643183E+02  0.43400731204E+02  0.00000000000E+00 0. -1.
         11    1    3    3    0    0  0.25432015644E+01  0.12181391826E+02 -0.14911634061E+02  0.19421920906E+02  0.51100000000E-03 0. -1.
        -11    1    3    3    0    0  0.50809424096E+01  0.20630855287E+02  0.88603954310E+00  0.21265776072E+02  0.51100000000E-03 0.  1.
         12    1    3    3    0    0  0.11356844610E+01  0.55555144689E+01 -0.42720486644E+01  0.70995718181E+01  0.00000000000E+00 0. -1.
</event>
<event>
 7    1  0.5031164E-009  0.4778727E+02  0.7816164E-02  0.1312668E+00
        -11   -1    0    0    0    0  0.00000000000E+00  0.00000000000E+00  0.45593999997E+02  0.45594000000E+02  0.51100000000E-03 0.  1.
         11   -1    0    0    0    0 -0.00000000000E+00 -0.00000000000E+00 -0.45593999997E+02  0.45594000000E+02  0.51100000000E-03 0. -1.
    9900012    2    1    2    0    0 -0.32199553672E+02  0.15840620572E+02  0.24410797556E+02  0.47787267816E+02  0.19999985280E+02 0.  0.
         12    1    1    2    0    0  0.32199553672E+02 -0.15840620572E+02 -0.24410797556E+02  0.43400732184E+02  0.00000000000E+00 0. -1.
         11    1    3    3    0    0 -0.99639802118E+01  0.94860868349E+01  0.40514343094E+01  0.14341578202E+02  0.51100000000E-03 0. -1.
        -11    1    3    3    0    0 -0.23820954483E+02  0.62528904576E+01  0.20193731158E+02  0.31848442503E+02  0.51100000000E-03 0.  1.
        -12    1    3    3    0    0  0.15853810227E+01  0.10164327920E+00  0.16563208907E+00  0.15972471105E+01  0.00000000000E+00 0.  1.
</event>
<event>
 7    1  0.5031164E-009  0.4778726E+02  0.7816164E-02  0.1312668E+00
        -11   -1    0    0    0    0  0.00000000000E+00  0.00000000000E+00  0.45593999997E+02  0.45594000000E+02  0.51100000000E-03 0.  1.
         11   -1    0    0    0    0 -0.00000000000E+00 -0.00000000000E+00 -0.45593999997E+02  0.45594000000E+02  0.51100000000E-03 0. -1.
    9900012    2    1    2    0    0 -0.19521893940E+02  0.38395565454E+02  0.53198463188E+01  0.47787256292E+02  0.19999932738E+02 0.  0.
         12    1    1    2    0    0  0.19521893940E+02 -0.38395565454E+02 -0.53198463188E+01  0.43400743708E+02  0.00000000000E+00 0. -1.
         11    1    3    3    0    0 -0.85478465711E+01  0.27166227392E+02  0.12377936280E+01  0.28506169947E+02  0.51100000000E-03 0. -1.
        -11    1    3    3    0    0 -0.48044927504E+01  0.11700467971E+02  0.30047471566E+01  0.13000484878E+02  0.51100000000E-03 0.  1.
         12    1    3    3    0    0 -0.61695546181E+01 -0.47112990867E+00  0.10773055341E+01  0.62806014672E+01  0.00000000000E+00 0. -1.
</event>
<event>
 7    1  0.5031164E-009  0.4778727E+02  0.7816164E-02  0.1312668E+00
        -11   -1    0    0    0    0  0.00000000000E+00  0.00000000000E+00  0.45593999997E+02  0.45594000000E+02  0.51100000000E-03 0.  1.
         11   -1    0    0    0    0 -0.00000000000E+00 -0.00000000000E+00 -0.45593999997E+02  0.45594000000E+02  0.51100000000E-03 0. -1.
    9900012    2    1    2    0    0  0.62696868205E+01 -0.75801896531E+01  0.42271206752E+02  0.47787272261E+02  0.20000005545E+02 0.  0.
         12    1    1    2    0    0 -0.62696868205E+01  0.75801896531E+01 -0.42271206752E+02  0.43400727739E+02  0.00000000000E+00 0. -1.
         11    1    3    3    0    0 -0.44210820110E+01 -0.69654587874E+00  0.23115596951E+01  0.50373059064E+01  0.51100000000E-03 0. -1.
        -11    1    3    3    0    0  0.61178841820E+01 -0.81364429792E+01  0.30753797308E+02  0.32394849287E+02  0.51100000000E-03 0.  1.
         12    1    3    3    0    0  0.45728846495E+01  0.12527992049E+01  0.92058497493E+01  0.10355117067E+02  0.00000000000E+00 0. -1.
</event>
<event>
 7    1  0.5031164E-009  0.4778727E+02  0.7816164E-02  0.1312668E+00
        -11   -1    0    0    0    0  0.00000000000E+00  0.00000000000E+00  0.45593999997E+02  0.45594000000E+02  0.51100000000E-03 0.  1.
         11   -1    0    0    0    0 -0.00000000000E+00 -0.00000000000E+00 -0.45593999997E+02  0.45594000000E+02  0.51100000000E-03 0. -1.
    9900012    2    1    2    0    0  0.12481243155E+02  0.40301816688E+02 -0.10178677109E+02  0.47787270435E+02  0.19999997221E+02 0.  0.
         12    1    1    2    0    0 -0.12481243155E+02 -0.40301816688E+02  0.10178677109E+02  0.43400729565E+02  0.00000000000E+00 0. -1.
         11    1    3    3    0    0 -0.23298175107E+01 -0.43681523702E+00  0.12088047222E+01  0.26608393980E+01  0.51100000000E-03 0. -1.
        -11    1    3    3    0    0  0.12162864397E+02  0.32289661220E+02 -0.11177270639E+02  0.36269668750E+02  0.51100000000E-03 0.  1.
        -12    1    3    3    0    0  0.26481962686E+01  0.84489707051E+01 -0.21021119253E+00  0.88567622865E+01  0.00000000000E+00 0.  1.
</event>
<event>
 7    1  0.5031164E-009  0.4778727E+02  0.7816164E-02  0.1312668E+00
        -11   -1    0    0    0    0  0.00000000000E+00  0.00000000000E+00  0.45593999997E+02  0.45594000000E+02  0.51100000000E-03 0.  1.
         11   -1    0    0    0    0 -0.00000000000E+00 -0.00000000000E+00 -0.45593999997E+02  0.45594000000E+02  0.51100000000E-03 0. -1.
    9900012    2    1    2    0    0  0.17580865086E+01 -0.26039221988E+02  0.34676953886E+02  0.47787273270E+02  0.20000010145E+02 0.  0.
         12    1    1    2    0    0 -0.17580865086E+01  0.26039221988E+02 -0.34676953886E+02  0.43400726730E+02  0.00000000000E+00 0. -1.
         11    1    3    3    0    0  0.79850780663E+01 -0.86761816977E+01  0.17918317492E+02  0.21450028033E+02  0.51100000000E-03 0.  1.
        -11    1    3    3    0    0 -0.11722892278E+01 -0.12210656613E+02  0.67616907830E+01  0.14006957538E+02  0.51100000000E-03 0. -1.
         12    1    3    3    0    0 -0.50547023298E+01 -0.51523836770E+01  0.99969456106E+01  0.12330287699E+02  0.00000000000E+00 0. -1.
</event>
<event>
 7    1  0.5031164E-009  0.4778727E+02  0.7816164E-02  0.1312668E+00
        -11   -1    0    0    0    0  0.00000000000E+00  0.00000000000E+00  0.45593999997E+02  0.45594000000E+02  0.51100000000E-03 0.  1.
         11   -1    0    0    0    0 -0.00000000000E+00 -0.00000000000E+00 -0.45593999997E+02  0.45594000000E+02  0.51100000000E-03 0. -1.
    9900012    2    1    2    0    0 -0.19718087686E+02  0.38568715868E+02  0.26971242812E+01  0.47787270684E+02  0.19999998359E+02 0.  0.
         12    1    1    2    0    0  0.19718087686E+02 -0.38568715868E+02 -0.26971242812E+01  0.43400729316E+02  0.00000000000E+00 0. -1.
         11    1    3    3    0    0  0.62765751894E+00  0.28116268056E+01  0.84076144079E+00  0.30010130484E+01  0.51100000000E-03 0. -1.
        -11    1    3    3    0    0 -0.20515682790E+01  0.13258863191E+02 -0.60688314876E+01  0.14725389686E+02  0.51100000000E-03 0.  1.
        -12    1    3    3    0    0 -0.18294176926E+02  0.22498225872E+02  0.79251943280E+01  0.30060867950E+02  0.00000000000E+00 0.  1.
</event>
<event>
 7    1  0.5031164E-009  0.4778726E+02  0.7816164E-02  0.1312668E+00
        -11   -1    0    0    0    0  0.00000000000E+00  0.00000000000E+00  0.45593999997E+02  0.45594000000E+02  0.51100000000E-03 0.  1.
         11   -1    0    0    0    0 -0.00000000000E+00 -0.00000000000E+00 -0.45593999997E+02  0.45594000000E+02  0.51100000000E-03 0. -1.
    9900012    2    1    2    0    0 -0.13143842545E+01 -0.41366180646E+02  0.13066578280E+02  0.47787262965E+02  0.19999963164E+02 0.  0.
         12    1    1    2    0    0  0.13143842545E+01  0.41366180646E+02 -0.13066578280E+02  0.43400737035E+02  0.00000000000E+00 0. -1.
         11    1    3    3    0    0  0.29643126793E+01 -0.30112808138E+01  0.70527370061E+00  0.42839669763E+01  0.51100000000E-03 0. -1.
        -11    1    3    3    0    0  0.13468538477E+01 -0.10615378741E+02  0.10727648817E+02  0.15151987675E+02  0.51100000000E-03 0.  1.
        -12    1    3    3    0    0 -0.56255507815E+01 -0.27739521092E+02  0.16336557624E+01  0.28351308314E+02  0.00000000000E+00 0.  1.
</event>
<event>
 7    1  0.5031164E-009  0.4778728E+02  0.7816164E-02  0.1312668E+00
        -11   -1    0    0    0    0  0.00000000000E+00  0.00000000000E+00  0.45593999997E+02  0.45594000000E+02  0.51100000000E-03 0. -1.
         11   -1    0    0    0    0 -0.00000000000E+00 -0.00000000000E+00 -0.45593999997E+02  0.45594000000E+02  0.51100000000E-03 0.  1.
    9900012    2    1    2    0    0 -0.14774159175E+02  0.32564474691E+02 -0.24594755645E+02  0.47787276545E+02  0.20000025077E+02 0.  0.
         12    1    1    2    0    0  0.14774159175E+02 -0.32564474691E+02  0.24594755645E+02  0.43400723455E+02  0.00000000000E+00 0. -1.
         11    1    3    3    0    0 -0.11286295049E+02  0.12306177305E+02 -0.16113311089E+02  0.23204767836E+02  0.51100000000E-03 0. -1.
        -11    1    3    3    0    0  0.14206420096E+01  0.16277413424E+02 -0.81368576838E+01  0.18253242581E+02  0.51100000000E-03 0.  1.
        -12    1    3    3    0    0 -0.49085061359E+01  0.39808839624E+01 -0.34458687165E+00  0.63292661281E+01  0.00000000000E+00 0.  1.
</event>
<event>
 7    1  0.5031164E-009  0.4778727E+02  0.7816164E-02  0.1312668E+00
        -11   -1    0    0    0    0  0.00000000000E+00  0.00000000000E+00  0.45593999997E+02  0.45594000000E+02  0.51100000000E-03 0.  1.
         11   -1    0    0    0    0 -0.00000000000E+00 -0.00000000000E+00 -0.45593999997E+02  0.45594000000E+02  0.51100000000E-03 0. -1.
    9900012    2    1    2    0    0 -0.16652459099E+02  0.37485658964E+02  0.14182547202E+02  0.47787266514E+02  0.19999979342E+02 0.  0.
         12    1    1    2    0    0  0.16652459099E+02 -0.37485658964E+02 -0.14182547202E+02  0.43400733486E+02  0.00000000000E+00 0. -1.
         11    1    3    3    0    0 -0.69159191326E+01  0.43862586613E+01  0.88499549747E+00  0.82372580259E+01  0.51100000000E-03 0. -1.
        -11    1    3    3    0    0 -0.11279293564E+02  0.14494110708E+02  0.44851453796E+01  0.18905508135E+02  0.51100000000E-03 0.  1.
        -12    1    3    3    0    0  0.15427535975E+01  0.18605289595E+02  0.88124063245E+01  0.20644500353E+02  0.00000000000E+00 0.  1.
</event>
<event>
 7    1  0.5031164E-009  0.4778732E+02  0.7816164E-02  0.1312668E+00
        -11   -1    0    0    0    0  0.00000000000E+00  0.00000000000E+00  0.45593999997E+02  0.45594000000E+02  0.51100000000E-03 0.  1.
         11   -1    0    0    0    0 -0.00000000000E+00 -0.00000000000E+00 -0.45593999997E+02  0.45594000000E+02  0.51100000000E-03 0. -1.
    9900012    2    1    2    0    0  0.34736931840E+02  0.20339224603E+02  0.16225930699E+02  0.47787316616E+02  0.20000207778E+02 0.  0.
         12    1    1    2    0    0 -0.34736931840E+02 -0.20339224603E+02 -0.16225930699E+02  0.43400683384E+02  0.00000000000E+00 0. -1.
         11    1    3    3    0    0  0.53105739552E+01 -0.14093592679E+01 -0.25387719215E+01  0.60525905536E+01  0.51100000000E-03 0. -1.
        -11    1    3    3    0    0  0.10583376410E+02  0.11954954418E+02  0.67428962840E+01  0.17331919742E+02  0.51100000000E-03 0.  1.
         12    1    3    3    0    0  0.18842981475E+02  0.97936294531E+01  0.12021806336E+02  0.24402806320E+02  0.00000000000E+00 0. -1.
</event>
<event>
 7    1  0.5031164E-009  0.4778727E+02  0.7816164E-02  0.1312668E+00
        -11   -1    0    0    0    0  0.00000000000E+00  0.00000000000E+00  0.45593999997E+02  0.45594000000E+02  0.51100000000E-03 0. -1.
         11   -1    0    0    0    0 -0.00000000000E+00 -0.00000000000E+00 -0.45593999997E+02  0.45594000000E+02  0.51100000000E-03 0.  1.
    9900012    2    1    2    0    0  0.42506140413E+02  0.34455566625E+01  0.80609809140E+01  0.47787271356E+02  0.20000001423E+02 0.  0.
         12    1    1    2    0    0 -0.42506140413E+02 -0.34455566625E+01 -0.80609809140E+01  0.43400728644E+02  0.00000000000E+00 0. -1.
         11    1    3    3    0    0  0.28272770822E+02  0.10223328240E+02  0.57607119185E+01  0.30611302036E+02  0.51100000000E-03 0. -1.
        -11    1    3    3    0    0  0.58881491986E+01 -0.35721540476E+01  0.41585745610E+01  0.80451431414E+01  0.51100000000E-03 0.  1.
         12    1    3    3    0    0  0.83452203919E+01 -0.32056175301E+01 -0.18583055655E+01  0.91308261791E+01  0.00000000000E+00 0. -1.
</event>
<event>
 7    1  0.5031164E-009  0.4778727E+02  0.7816164E-02  0.1312668E+00
        -11   -1    0    0    0    0  0.00000000000E+00  0.00000000000E+00  0.45593999997E+02  0.45594000000E+02  0.51100000000E-03 0.  1.
         11   -1    0    0    0    0 -0.00000000000E+00 -0.00000000000E+00 -0.45593999997E+02  0.45594000000E+02  0.51100000000E-03 0. -1.
    9900012    2    1    2    0    0 -0.23383112915E+02 -0.36095032399E+02 -0.58311289076E+01  0.47787269616E+02  0.19999993488E+02 0.  0.
         12    1    1    2    0    0  0.23383112915E+02  0.36095032399E+02  0.58311289076E+01  0.43400730384E+02  0.00000000000E+00 0. -1.
         11    1    3    3    0    0  0.18068484158E+01 -0.96043477501E+01 -0.26177732996E+01  0.10117358065E+02  0.51100000000E-03 0. -1.
        -11    1    3    3    0    0 -0.11913472636E+02 -0.80411415013E+01 -0.40226163906E+01  0.14925556264E+02  0.51100000000E-03 0.  1.
         12    1    3    3    0    0 -0.13276488695E+02 -0.18449543148E+02  0.80926078265E+00  0.22744355287E+02  0.00000000000E+00 0. -1.
</event>
<event>
 7    1  0.5031164E-009  0.4778727E+02  0.7816164E-02  0.1312668E+00
        -11   -1    0    0    0    0  0.00000000000E+00  0.00000000000E+00  0.45593999997E+02  0.45594000000E+02  0.51100000000E-03 0. -1.
         11   -1    0    0    0    0 -0.00000000000E+00 -0.00000000000E+00 -0.45593999997E+02  0.45594000000E+02  0.51100000000E-03 0.  1.
    9900012    2    1    2    0    0 -0.42517226564E+02  0.85469831745E+01  0.16905145086E+01  0.47787270567E+02  0.19999997821E+02 0.  0.
         12    1    1    2    0    0  0.42517226564E+02 -0.85469831745E+01 -0.16905145086E+01  0.43400729433E+02  0.00000000000E+00 0. -1.
         11    1    3    3    0    0 -0.17609442794E+02  0.27903896314E+01 -0.79501279083E+01  0.19521354559E+02  0.51100000000E-03 0. -1.
        -11    1    3    3    0    0 -0.18894650536E+02  0.60195434832E+01  0.44627694119E+01  0.20326313825E+02  0.51100000000E-03 0.  1.
         12    1    3    3    0    0 -0.60131332339E+01 -0.26294994016E+00  0.51778730050E+01  0.79396021824E+01  0.00000000000E+00 0. -1.
</event>
<event>
 7    1  0.5031164E-009  0.4778727E+02  0.7816164E-02  0.1312668E+00
        -11   -1    0    0    0    0  0.00000000000E+00  0.00000000000E+00  0.45593999997E+02  0.45594000000E+02  0.51100000000E-03 0.  1.
         11   -1    0    0    0    0 -0.00000000000E+00 -0.00000000000E+00 -0.45593999997E+02  0.45594000000E+02  0.51100000000E-03 0. -1.
    9900012    2    1    2    0    0 -0.25775669328E+02  0.24265336458E+02  0.25108393962E+02  0.47787272701E+02  0.20000007555E+02 0.  0.
         12    1    1    2    0    0  0.25775669328E+02 -0.24265336458E+02 -0.25108393962E+02  0.43400727299E+02  0.00000000000E+00 0. -1.
         11    1    3    3    0    0 -0.19062431282E+02  0.13207009907E+02  0.23449761358E+02  0.32980186553E+02  0.51100000000E-03 0. -1.
        -11    1    3    3    0    0 -0.39151424474E+01  0.94871985455E+01  0.38055561090E+01  0.10946119595E+02  0.51100000000E-03 0.  1.
         12    1    3    3    0    0 -0.27980955989E+01  0.15711280055E+01 -0.21469235055E+01  0.38609665536E+01  0.00000000000E+00 0. -1.
</event>
<event>
 7    1  0.5031164E-009  0.4778727E+02  0.7816164E-02  0.1312668E+00
        -11   -1    0    0    0    0  0.00000000000E+00  0.00000000000E+00  0.45593999997E+02  0.45594000000E+02  0.51100000000E-03 0.  1.
         11   -1    0    0    0    0 -0.00000000000E+00 -0.00000000000E+00 -0.45593999997E+02  0.45594000000E+02  0.51100000000E-03 0. -1.
    9900012    2    1    2    0    0 -0.13520357772E+02  0.55414936841E+01  0.40867042077E+02  0.47787270113E+02  0.19999995755E+02 0.  0.
         12    1    1    2    0    0  0.13520357772E+02 -0.55414936841E+01 -0.40867042077E+02  0.43400729887E+02  0.00000000000E+00 0. -1.
         11    1    3    3    0    0 -0.13510297689E+02  0.27843617711E+01  0.14614758381E+02  0.20096566297E+02  0.51100000000E-03 0. -1.
        -11    1    3    3    0    0 -0.10080011235E+01  0.45971585875E+01  0.24537499217E+02  0.24984771391E+02  0.51100000000E-03 0.  1.
         12    1    3    3    0    0  0.99794104069E+00 -0.18400266745E+01  0.17147844795E+01  0.27059324261E+01  0.00000000000E+00 0. -1.
</event>
<event>
 7    1  0.5031164E-009  0.4778727E+02  0.7816164E-02  0.1312668E+00
        -11   -1    0    0    0    0  0.00000000000E+00  0.00000000000E+00  0.45593999997E+02  0.45594000000E+02  0.51100000000E-03 0.  1.
         11   -1    0    0    0    0 -0.00000000000E+00 -0.00000000000E+00 -0.45593999997E+02  0.45594000000E+02  0.51100000000E-03 0. -1.
    9900012    2    1    2    0    0  0.12624201437E+02  0.19822221360E+02  0.36487424443E+02  0.47787273462E+02  0.20000011023E+02 0.  0.
         12    1    1    2    0    0 -0.12624201437E+02 -0.19822221360E+02 -0.36487424443E+02  0.43400726538E+02  0.00000000000E+00 0. -1.
         11    1    3    3    0    0  0.14291353650E+02  0.10295846917E+02  0.14376633398E+02  0.22736201112E+02  0.51100000000E-03 0. -1.
        -11    1    3    3    0    0 -0.19589206936E+01  0.10512843626E+02  0.19408256194E+02  0.22159369579E+02  0.51100000000E-03 0.  1.
        -12    1    3    3    0    0  0.29176847995E+00 -0.98646918296E+00  0.27025348505E+01  0.28917027705E+01  0.00000000000E+00 0.  1.
</event>
<event>
 7    1  0.5031164E-009  0.4778727E+02  0.7816164E-02  0.1312668E+00
        -11   -1    0    0    0    0  0.00000000000E+00  0.00000000000E+00  0.45593999997E+02  0.45594000000E+02  0.51100000000E-03 0. -1.
         11   -1    0    0    0    0 -0.00000000000E+00 -0.00000000000E+00 -0.45593999997E+02  0.45594000000E+02  0.51100000000E-03 0.  1.
    9900012    2    1    2    0    0  0.35385898930E+02 -0.24824070013E+02 -0.39021547457E+01  0.47787272970E+02  0.20000008779E+02 0.  0.
         12    1    1    2    0    0 -0.35385898930E+02  0.24824070013E+02  0.39021547457E+01  0.43400727030E+02  0.00000000000E+00 0. -1.
         11    1    3    3    0    0 -0.36727600644E+00 -0.78725380320E+01  0.55490208482E+00  0.79006115785E+01  0.51100000000E-03 0. -1.
        -11    1    3    3    0    0  0.28563198642E+02 -0.13548050047E+02 -0.26151505054E+01  0.31721364869E+02  0.51100000000E-03 0.  1.
         12    1    3    3    0    0  0.71899762945E+01 -0.34034819342E+01 -0.18419063251E+01  0.81652965226E+01  0.00000000000E+00 0. -1.
</event>
<event>
 7    1  0.5031164E-009  0.4778727E+02  0.7816164E-02  0.1312668E+00
        -11   -1    0    0    0    0  0.00000000000E+00  0.00000000000E+00  0.45593999997E+02  0.45594000000E+02  0.51100000000E-03 0.  1.
         11   -1    0    0    0    0 -0.00000000000E+00 -0.00000000000E+00 -0.45593999997E+02  0.45594000000E+02  0.51100000000E-03 0. -1.
    9900012    2    1    2    0    0  0.24306908937E+01 -0.12196589818E+02  0.41580742203E+02  0.47787272085E+02  0.20000004744E+02 0.  0.
         12    1    1    2    0    0 -0.24306908937E+01  0.12196589818E+02 -0.41580742203E+02  0.43400727915E+02  0.00000000000E+00 0. -1.
         11    1    3    3    0    0  0.35741084858E+01 -0.10534743021E+01  0.10018097942E+01  0.38584559993E+01  0.51100000000E-03 0. -1.
        -11    1    3    3    0    0 -0.58242194481E+01 -0.23830529768E+01  0.21734115844E+02  0.22626804137E+02  0.51100000000E-03 0.  1.
        -12    1    3    3    0    0  0.46808018559E+01 -0.87600625392E+01  0.18844816565E+02  0.21302011949E+02  0.00000000000E+00 0.  1.
</event>
<event>
 7    1  0.5031164E-009  0.4778727E+02  0.7816164E-02  0.1312668E+00
        -11   -1    0    0    0    0  0.00000000000E+00  0.00000000000E+00  0.45593999997E+02  0.45594000000E+02  0.51100000000E-03 0.  1.
         11   -1    0    0    0    0 -0.00000000000E+00 -0.00000000000E+00 -0.45593999997E+02  0.45594000000E+02  0.51100000000E-03 0. -1.
    9900012    2    1    2    0    0  0.93770977378E+00  0.22893257657E+02  0.36859774513E+02  0.47787268175E+02  0.19999986918E+02 0.  0.
         12    1    1    2    0    0 -0.93770977378E+00 -0.22893257657E+02 -0.36859774513E+02  0.43400731825E+02  0.00000000000E+00 0. -1.
         11    1    3    3    0    0  0.59828739034E+01  0.77806374169E+00  0.42432215401E+01  0.73759807910E+01  0.51100000000E-03 0. -1.
        -11    1    3    3    0    0 -0.55559175334E+01  0.18347961047E+02  0.30596429529E+02  0.36106196067E+02  0.51100000000E-03 0.  1.
         12    1    3    3    0    0  0.51075340380E+00  0.37672328680E+01  0.20201234437E+01  0.43050913172E+01  0.00000000000E+00 0. -1.
</event>
<event>
 7    1  0.5031164E-009  0.4778729E+02  0.7816164E-02  0.1312668E+00
        -11   -1    0    0    0    0  0.00000000000E+00  0.00000000000E+00  0.45593999997E+02  0.45594000000E+02  0.51100000000E-03 0.  1.
         11   -1    0    0    0    0 -0.00000000000E+00 -0.00000000000E+00 -0.45593999997E+02  0.45594000000E+02  0.51100000000E-03 0. -1.
    9900012    2    1    2    0    0  0.22061080170E+02 -0.14719655516E+02  0.34354936741E+02  0.47787294991E+02  0.20000109180E+02 0.  0.
         12    1    1    2    0    0 -0.22061080170E+02  0.14719655516E+02 -0.34354936741E+02  0.43400705009E+02  0.00000000000E+00 0. -1.
         11    1    3    3    0    0  0.74296573170E+01  0.10456977755E+01  0.20925128121E+02  0.22229581166E+02  0.51100000000E-03 0. -1.
        -11    1    3    3    0    0  0.75879175551E+01 -0.99621671693E+01  0.65759021141E+01  0.14144389574E+02  0.51100000000E-03 0.  1.
        -12    1    3    3    0    0  0.70435052982E+01 -0.58031861224E+01  0.68539065062E+01  0.11413324251E+02  0.00000000000E+00 0.  1.
</event>
<event>
 7    1  0.5031164E-009  0.4778727E+02  0.7816164E-02  0.1312668E+00
        -11   -1    0    0    0    0  0.00000000000E+00  0.00000000000E+00  0.45593999997E+02  0.45594000000E+02  0.51100000000E-03 0. -1.
         11   -1    0    0    0    0 -0.00000000000E+00 -0.00000000000E+00 -0.45593999997E+02  0.45594000000E+02  0.51100000000E-03 0.  1.
    9900012    2    1    2    0    0  0.32991653614E+02 -0.20766928786E+01 -0.28122263736E+02  0.47787267527E+02  0.19999983963E+02 0.  0.
         12    1    1    2    0    0 -0.32991653614E+02  0.20766928786E+01  0.28122263736E+02  0.43400732473E+02  0.00000000000E+00 0. -1.
         11    1    3    3    0    0 -0.15264737755E+01 -0.34557528740E+01 -0.40985170016E+01  0.55740642253E+01  0.51100000000E-03 0. -1.
        -11    1    3    3    0    0  0.22553556701E+02  0.24330574304E+00 -0.13857355064E+02  0.26471652898E+02  0.51100000000E-03 0.  1.
         12    1    3    3    0    0  0.11964570689E+02  0.11357542524E+01 -0.10166391671E+02  0.15741550403E+02  0.00000000000E+00 0. -1.
</event>
<event>
 7    1  0.5031164E-009  0.4778727E+02  0.7816164E-02  0.1312668E+00
        -11   -1    0    0    0    0  0.00000000000E+00  0.00000000000E+00  0.45593999997E+02  0.45594000000E+02  0.51100000000E-03 0.  1.
         11   -1    0    0    0    0 -0.00000000000E+00 -0.00000000000E+00 -0.45593999997E+02  0.45594000000E+02  0.51100000000E-03 0. -1.
    9900012    2    1    2    0    0  0.39678636176E+01 -0.94800661310E+01  0.42166432265E+02  0.47787267224E+02  0.19999982583E+02 0.  0.
         12    1    1    2    0    0 -0.39678636176E+01  0.94800661310E+01 -0.42166432265E+02  0.43400732776E+02  0.00000000000E+00 0. -1.
         11    1    3    3    0    0  0.20606879917E+01 -0.80445221608E+01  0.43405281562E+01  0.93702164719E+01  0.51100000000E-03 0. -1.
        -11    1    3    3    0    0  0.47524931472E+00 -0.38615558997E+01  0.21153434024E+02  0.21508259975E+02  0.51100000000E-03 0.  1.
         12    1    3    3    0    0  0.14319263112E+01  0.24260119295E+01  0.16672470084E+02  0.16908790777E+02  0.00000000000E+00 0. -1.
</event>
<event>
 7    1  0.5031164E-009  0.4778727E+02  0.7816164E-02  0.1312668E+00
        -11   -1    0    0    0    0  0.00000000000E+00  0.00000000000E+00  0.45593999997E+02  0.45594000000E+02  0.51100000000E-03 0.  1.
         11   -1    0    0    0    0 -0.00000000000E+00 -0.00000000000E+00 -0.45593999997E+02  0.45594000000E+02  0.51100000000E-03 0. -1.
    9900012    2    1    2    0    0  0.36471279181E+02 -0.99000903429E+01  0.21341448090E+02  0.47787269586E+02  0.19999993349E+02 0.  0.
         12    1    1    2    0    0 -0.36471279181E+02  0.99000903429E+01 -0.21341448090E+02  0.43400730414E+02  0.00000000000E+00 0. -1.
         11    1    3    3    0    0  0.29730405414E+01 -0.19606835511E-01  0.85500508399E+01  0.90522220540E+01  0.51100000000E-03 0. -1.
        -11    1    3    3    0    0  0.25373201101E+02 -0.28412058341E+01  0.67733455723E+01  0.26414957793E+02  0.51100000000E-03 0.  1.
         12    1    3    3    0    0  0.81250375387E+01 -0.70392776732E+01  0.60180516778E+01  0.12320089738E+02  0.00000000000E+00 0. -1.
</event>
<event>
 7    1  0.5031164E-009  0.4778727E+02  0.7816164E-02  0.1312668E+00
        -11   -1    0    0    0    0  0.00000000000E+00  0.00000000000E+00  0.45593999997E+02  0.45594000000E+02  0.51100000000E-03 0. -1.
         11   -1    0    0    0    0 -0.00000000000E+00 -0.00000000000E+00 -0.45593999997E+02  0.45594000000E+02  0.51100000000E-03 0.  1.
    9900012    2    1    2    0    0  0.34338147338E+02 -0.17050751340E+02 -0.20341753951E+02  0.47787269157E+02  0.19999991395E+02 0.  0.
         12    1    1    2    0    0 -0.34338147338E+02  0.17050751340E+02  0.20341753951E+02  0.43400730843E+02  0.00000000000E+00 0. -1.
         11    1    3    3    0    0 -0.11207587564E+01  0.13303866196E+01 -0.22159503363E+01  0.28171732112E+01  0.51100000000E-03 0. -1.
        -11    1    3    3    0    0  0.27413645597E+02 -0.17568376910E+02 -0.17220325096E+02  0.36833346696E+02  0.51100000000E-03 0.  1.
        -12    1    3    3    0    0  0.80452604981E+01 -0.81276104896E+00 -0.90547851864E+00  0.81367492497E+01  0.00000000000E+00 0.  1.
</event>
<event>
 7    1  0.5031164E-009  0.4778727E+02  0.7816164E-02  0.1312668E+00
        -11   -1    0    0    0    0  0.00000000000E+00  0.00000000000E+00  0.45593999997E+02  0.45594000000E+02  0.51100000000E-03 0. -1.
         11   -1    0    0    0    0 -0.00000000000E+00 -0.00000000000E+00 -0.45593999997E+02  0.45594000000E+02  0.51100000000E-03 0.  1.
    9900012    2    1    2    0    0 -0.20497535052E+02  0.38194084396E+02  0.21648576180E+01  0.47787266889E+02  0.19999981054E+02 0.  0.
         12    1    1    2    0    0  0.20497535052E+02 -0.38194084396E+02 -0.21648576180E+01  0.43400733111E+02  0.00000000000E+00 0. -1.
         11    1    3    3    0    0 -0.43993366673E+01  0.23340387086E+02  0.78962931618E+01  0.25029568082E+02  0.51100000000E-03 0. -1.
        -11    1    3    3    0    0 -0.14201493765E+02  0.11984341845E+02 -0.47205351785E+01  0.19172645286E+02  0.51100000000E-03 0.  1.
         12    1    3    3    0    0 -0.18967046189E+01  0.28693554661E+01 -0.10109003653E+01  0.35850535213E+01  0.00000000000E+00 0. -1.
</event>
<event>
 7    1  0.5031164E-009  0.4778727E+02  0.7816164E-02  0.1312668E+00
        -11   -1    0    0    0    0  0.00000000000E+00  0.00000000000E+00  0.45593999997E+02  0.45594000000E+02  0.51100000000E-03 0.  1.
         11   -1    0    0    0    0 -0.00000000000E+00 -0.00000000000E+00 -0.45593999997E+02  0.45594000000E+02  0.51100000000E-03 0. -1.
    9900012    2    1    2    0    0 -0.30865468299E+02 -0.14904348938E+02  0.26623421104E+02  0.47787270722E+02  0.19999998529E+02 0.  0.
         12    1    1    2    0    0  0.30865468299E+02  0.14904348938E+02 -0.26623421104E+02  0.43400729278E+02  0.00000000000E+00 0. -1.
         11    1    3    3    0    0 -0.97221388421E+01 -0.43361912873E+01  0.43911445674E+01  0.11515410953E+02  0.51100000000E-03 0. -1.
        -11    1    3    3    0    0 -0.18283382738E+02 -0.61016339558E+00  0.14534190597E+02  0.23364440509E+02  0.51100000000E-03 0.  1.
        -12    1    3    3    0    0 -0.28599467189E+01 -0.99579942546E+01  0.76980859397E+01  0.12907419260E+02  0.00000000000E+00 0.  1.
</event>
<event>
 7    1  0.5202336E-009  0.4778728E+02  0.7816164E-02  0.1312668E+00
        -11   -1    0    0    0    0  0.00000000000E+00  0.00000000000E+00  0.45593999997E+02  0.45594000000E+02  0.51100000000E-03 0. -1.
         11   -1    0    0    0    0 -0.00000000000E+00 -0.00000000000E+00 -0.45593999997E+02  0.45594000000E+02  0.51100000000E-03 0.  1.
    9900012    2    1    2    0    0  0.31711921787E+02 -0.19174301816E+01 -0.29568564653E+02  0.47787279527E+02  0.20000038676E+02 0.  0.
         12    1    1    2    0    0 -0.31711921787E+02  0.19174301816E+01  0.29568564653E+02  0.43400720473E+02  0.00000000000E+00 0. -1.
         11    1    3    3    0    0  0.95589738186E+01 -0.23238543489E+01 -0.19661757711E+02  0.21985426902E+02  0.51100000000E-03 0. -1.
        -11    1    3    3    0    0  0.12854969916E+02  0.10997922206E+01 -0.10240594705E+02  0.16472084708E+02  0.51100000000E-03 0.  1.
         12    1    3    3    0    0  0.92979780522E+01 -0.69336805331E+00  0.33378776288E+00  0.93297679171E+01  0.00000000000E+00 0. -1.
</event>
<event>
 7    1  0.5031164E-009  0.4778727E+02  0.7816164E-02  0.1312668E+00
        -11   -1    0    0    0    0  0.00000000000E+00  0.00000000000E+00  0.45593999997E+02  0.45594000000E+02  0.51100000000E-03 0.  1.
         11   -1    0    0    0    0 -0.00000000000E+00 -0.00000000000E+00 -0.45593999997E+02  0.45594000000E+02  0.51100000000E-03 0. -1.
    9900012    2    1    2    0    0 -0.22861081371E+02 -0.30348300701E+02  0.20975575260E+02  0.47787272421E+02  0.20000006279E+02 0.  0.
         12    1    1    2    0    0  0.22861081371E+02  0.30348300701E+02 -0.20975575260E+02  0.43400727579E+02  0.00000000000E+00 0. -1.
         11    1    3    3    0    0 -0.72821980393E+01 -0.97745957557E+01  0.10260854850E+01  0.12232169969E+02  0.51100000000E-03 0.  1.
        -11    1    3    3    0    0 -0.11386555114E+02 -0.20019508851E+02  0.21032581008E+02  0.31189803400E+02  0.51100000000E-03 0. -1.
        -12    1    3    3    0    0 -0.41923282176E+01 -0.55419609365E+00 -0.10830912336E+01  0.43652990522E+01  0.00000000000E+00 0.  1.
</event>
<event>
 7    1  0.5031164E-009  0.4778727E+02  0.7816164E-02  0.1312668E+00
        -11   -1    0    0    0    0  0.00000000000E+00  0.00000000000E+00  0.45593999997E+02  0.45594000000E+02  0.51100000000E-03 0.  1.
         11   -1    0    0    0    0 -0.00000000000E+00 -0.00000000000E+00 -0.45593999997E+02  0.45594000000E+02  0.51100000000E-03 0. -1.
    9900012    2    1    2    0    0  0.39437964393E+02 -0.10359860033E+02  0.14864183879E+02  0.47787266161E+02  0.19999977733E+02 0.  0.
         12    1    1    2    0    0 -0.39437964393E+02  0.10359860033E+02 -0.14864183879E+02  0.43400733839E+02  0.00000000000E+00 0. -1.
         11    1    3    3    0    0  0.36117771490E+01 -0.50616132960E+01  0.80257088943E+01  0.10152677817E+02  0.51100000000E-03 0. -1.
        -11    1    3    3    0    0  0.22667271916E+02 -0.32725928662E+01  0.54657027836E+00  0.22908815324E+02  0.51100000000E-03 0.  1.
         12    1    3    3    0    0  0.13158915328E+02 -0.20256538705E+01  0.62919047065E+01  0.14725773021E+02  0.00000000000E+00 0. -1.
</event>
<event>
 7    1  0.5031164E-009  0.4778727E+02  0.7816164E-02  0.1312668E+00
        -11   -1    0    0    0    0  0.00000000000E+00  0.00000000000E+00  0.45593999997E+02  0.45594000000E+02  0.51100000000E-03 0.  1.
         11   -1    0    0    0    0 -0.00000000000E+00 -0.00000000000E+00 -0.45593999997E+02  0.45594000000E+02  0.51100000000E-03 0. -1.
    9900012    2    1    2    0    0  0.32115430448E+02 -0.35253506592E+01  0.28979206888E+02  0.47787269569E+02  0.19999993273E+02 0.  0.
         12    1    1    2    0    0 -0.32115430448E+02  0.35253506592E+01 -0.28979206888E+02  0.43400730431E+02  0.00000000000E+00 0. -1.
         11    1    3    3    0    0  0.88951726724E+01  0.50698807049E+01  0.16840985341E+01  0.10376125258E+02  0.51100000000E-03 0. -1.
        -11    1    3    3    0    0  0.19831037389E+02 -0.47149760038E+01  0.20830025459E+02  0.29144313399E+02  0.51100000000E-03 0.  1.
         12    1    3    3    0    0  0.33892203864E+01 -0.38802553603E+01  0.64650828950E+01  0.82668309121E+01  0.00000000000E+00 0. -1.
</event>
<event>
 7    1  0.5031164E-009  0.4778727E+02  0.7816164E-02  0.1312668E+00
        -11   -1    0    0    0    0  0.00000000000E+00  0.00000000000E+00  0.45593999997E+02  0.45594000000E+02  0.51100000000E-03 0.  1.
         11   -1    0    0    0    0 -0.00000000000E+00 -0.00000000000E+00 -0.45593999997E+02  0.45594000000E+02  0.51100000000E-03 0. -1.
    9900012    2    1    2    0    0 -0.19730218585E+02  0.23754666057E+01  0.38583667031E+02  0.47787265806E+02  0.19999976116E+02 0.  0.
         12    1    1    2    0    0  0.19730218585E+02 -0.23754666057E+01 -0.38583667031E+02  0.43400734194E+02  0.00000000000E+00 0. -1.
         11    1    3    3    0    0 -0.16281517617E-01 -0.36348474930E+01  0.11880706313E+02  0.12424313427E+02  0.51100000000E-03 0. -1.
        -11    1    3    3    0    0 -0.46199927797E+01  0.15183642543E+01  0.14925907137E+02  0.15698167645E+02  0.51100000000E-03 0.  1.
         12    1    3    3    0    0 -0.15093944287E+02  0.44919498444E+01  0.11777053581E+02  0.19664784734E+02  0.00000000000E+00 0. -1.
</event>
<event>
 7    1  0.5031164E-009  0.4778727E+02  0.7816164E-02  0.1312668E+00
        -11   -1    0    0    0    0  0.00000000000E+00  0.00000000000E+00  0.45593999997E+02  0.45594000000E+02  0.51100000000E-03 0.  1.
         11   -1    0    0    0    0 -0.00000000000E+00 -0.00000000000E+00 -0.45593999997E+02  0.45594000000E+02  0.51100000000E-03 0. -1.
    9900012    2    1    2    0    0 -0.15062431470E+02  0.17885955566E+02  0.36562806604E+02  0.47787273335E+02  0.20000010445E+02 0.  0.
         12    1    1    2    0    0  0.15062431470E+02 -0.17885955566E+02 -0.36562806604E+02  0.43400726665E+02  0.00000000000E+00 0. -1.
         11    1    3    3    0    0 -0.12117689989E+00  0.84914977868E-01  0.48149279627E+01  0.48172010485E+01  0.51100000000E-03 0. -1.
        -11    1    3    3    0    0  0.30124272183E+00  0.67728819676E+01  0.90182530668E+00  0.68392957583E+01  0.51100000000E-03 0.  1.
        -12    1    3    3    0    0 -0.15242497292E+02  0.11028158620E+02  0.30846053335E+02  0.36130776528E+02  0.00000000000E+00 0.  1.
</event>
<event>
 7    1  0.5031164E-009  0.4778727E+02  0.7816164E-02  0.1312668E+00
        -11   -1    0    0    0    0  0.00000000000E+00  0.00000000000E+00  0.45593999997E+02  0.45594000000E+02  0.51100000000E-03 0.  1.
         11   -1    0    0    0    0 -0.00000000000E+00 -0.00000000000E+00 -0.45593999997E+02  0.45594000000E+02  0.51100000000E-03 0. -1.
    9900012    2    1    2    0    0 -0.26810180583E+02 -0.15917420037E+02  0.30190613993E+02  0.47787271702E+02  0.20000002999E+02 0.  0.
         12    1    1    2    0    0  0.26810180583E+02  0.15917420037E+02 -0.30190613993E+02  0.43400728298E+02  0.00000000000E+00 0. -1.
         11    1    3    3    0    0  0.10151758969E+01 -0.71960266627E+00  0.55883251293E+00  0.13640762946E+01  0.51100000000E-03 0. -1.
        -11    1    3    3    0    0 -0.11201236801E+02 -0.11148028493E+02  0.23352113220E+02  0.28196940211E+02  0.51100000000E-03 0.  1.
        -12    1    3    3    0    0 -0.16624119679E+02 -0.40497888785E+01  0.62796682598E+01  0.18226255197E+02  0.00000000000E+00 0.  1.
</event>
<event>
 7    1  0.5031164E-009  0.4778727E+02  0.7816164E-02  0.1312668E+00
        -11   -1    0    0    0    0  0.00000000000E+00  0.00000000000E+00  0.45593999997E+02  0.45594000000E+02  0.51100000000E-03 0. -1.
         11   -1    0    0    0    0 -0.00000000000E+00 -0.00000000000E+00 -0.45593999997E+02  0.45594000000E+02  0.51100000000E-03 0.  1.
    9900012    2    1    2    0    0  0.82397065764E+01  0.67599727117E+01 -0.42071762922E+02  0.47787271539E+02  0.20000002257E+02 0.  0.
         12    1    1    2    0    0 -0.82397065764E+01 -0.67599727117E+01  0.42071762922E+02  0.43400728461E+02  0.00000000000E+00 0. -1.
         11    1    3    3    0    0  0.22479799998E+01 -0.36651648178E+01 -0.20107725257E+02  0.20562282521E+02  0.51100000000E-03 0. -1.
        -11    1    3    3    0    0  0.72413718033E+01  0.50676776424E+01 -0.69778085813E+01  0.11260934026E+02  0.51100000000E-03 0.  1.
        -12    1    3    3    0    0 -0.12496452267E+01  0.53574598871E+01 -0.14986229084E+02  0.15964054992E+02  0.00000000000E+00 0.  1.
</event>
<event>
 7    1  0.5031164E-009  0.4778728E+02  0.7816164E-02  0.1312668E+00
        -11   -1    0    0    0    0  0.00000000000E+00  0.00000000000E+00  0.45593999997E+02  0.45594000000E+02  0.51100000000E-03 0.  1.
         11   -1    0    0    0    0 -0.00000000000E+00 -0.00000000000E+00 -0.45593999997E+02  0.45594000000E+02  0.51100000000E-03 0. -1.
    9900012    2    1    2    0    0 -0.13332158190E+02  0.23107971865E+02  0.34232996021E+02  0.47787276247E+02  0.20000023720E+02 0.  0.
         12    1    1    2    0    0  0.13332158190E+02 -0.23107971865E+02 -0.34232996021E+02  0.43400723753E+02  0.00000000000E+00 0. -1.
         11    1    3    3    0    0 -0.73953568137E+01  0.91605185634E+01  0.21925650037E+01  0.11975547767E+02  0.51100000000E-03 0. -1.
        -11    1    3    3    0    0 -0.49559744136E+01  0.92083759414E+01  0.26304556200E+02  0.28306987600E+02  0.51100000000E-03 0.  1.
         12    1    3    3    0    0 -0.98082696247E+00  0.47390773601E+01  0.57358748177E+01  0.75047408802E+01  0.00000000000E+00 0. -1.
</event>
<event>
 7    1  0.5031164E-009  0.4778728E+02  0.7816164E-02  0.1312668E+00
        -11   -1    0    0    0    0  0.00000000000E+00  0.00000000000E+00  0.45593999997E+02  0.45594000000E+02  0.51100000000E-03 0.  1.
         11   -1    0    0    0    0 -0.00000000000E+00 -0.00000000000E+00 -0.45593999997E+02  0.45594000000E+02  0.51100000000E-03 0. -1.
    9900012    2    1    2    0    0 -0.25018625993E+02 -0.19070716934E+02  0.29899814328E+02  0.47787276644E+02  0.20000025531E+02 0.  0.
         12    1    1    2    0    0  0.25018625993E+02  0.19070716934E+02 -0.29899814328E+02  0.43400723356E+02  0.00000000000E+00 0. -1.
         11    1    3    3    0    0 -0.32874201915E+01  0.13419680014E+01  0.10793056818E+02  0.11362133839E+02  0.51100000000E-03 0. -1.
        -11    1    3    3    0    0 -0.77521695003E+01 -0.13131952103E+02  0.92625708748E+01  0.17842071557E+02  0.51100000000E-03 0.  1.
         12    1    3    3    0    0 -0.13979036301E+02 -0.72807328331E+01  0.98441866351E+01  0.18583071248E+02  0.00000000000E+00 0. -1.
</event>
<event>
 7    1  0.5031164E-009  0.4778727E+02  0.7816164E-02  0.1312668E+00
        -11   -1    0    0    0    0  0.00000000000E+00  0.00000000000E+00  0.45593999997E+02  0.45594000000E+02  0.51100000000E-03 0. -1.
         11   -1    0    0    0    0 -0.00000000000E+00 -0.00000000000E+00 -0.45593999997E+02  0.45594000000E+02  0.51100000000E-03 0.  1.
    9900012    2    1    2    0    0  0.32842492002E+02  0.24894236270E+02 -0.13611431008E+02  0.47787270346E+02  0.19999996817E+02 0.  0.
         12    1    1    2    0    0 -0.32842492002E+02 -0.24894236270E+02  0.13611431008E+02  0.43400729654E+02  0.00000000000E+00 0. -1.
         11    1    3    3    0    0  0.14651517076E+01 -0.18916429716E+01 -0.14128970975E+01  0.27787157335E+01  0.51100000000E-03 0. -1.
        -11    1    3    3    0    0  0.31176885984E+02  0.22786610262E+02 -0.84641230949E+01  0.39533140615E+02  0.51100000000E-03 0.  1.
        -12    1    3    3    0    0  0.20045431052E+00  0.39992689797E+01 -0.37344108158E+01  0.54754139975E+01  0.00000000000E+00 0.  1.
</event>
<event>
 7    1  0.5031164E-009  0.4778728E+02  0.7816164E-02  0.1312668E+00
        -11   -1    0    0    0    0  0.00000000000E+00  0.00000000000E+00  0.45593999997E+02  0.45594000000E+02  0.51100000000E-03 0.  1.
         11   -1    0    0    0    0 -0.00000000000E+00 -0.00000000000E+00 -0.45593999997E+02  0.45594000000E+02  0.51100000000E-03 0. -1.
    9900012    2    1    2    0    0 -0.67653517695E+01 -0.25787642973E+02  0.34246902613E+02  0.47787275890E+02  0.20000022095E+02 0.  0.
         12    1    1    2    0    0  0.67653517695E+01  0.25787642973E+02 -0.34246902613E+02  0.43400724110E+02  0.00000000000E+00 0. -1.
         11    1    3    3    0    0 -0.38038560620E+01 -0.55690649493E+01  0.71779532116E+01  0.98492039232E+01  0.51100000000E-03 0. -1.
        -11    1    3    3    0    0 -0.53004638202E+01 -0.14905560684E+02  0.27900749236E+02  0.32073703625E+02  0.51100000000E-03 0.  1.
        -12    1    3    3    0    0  0.23389681128E+01 -0.53130173397E+01 -0.83179983557E+00  0.58643683420E+01  0.00000000000E+00 0.  1.
</event>
<event>
 7    1  0.5031164E-009  0.4778727E+02  0.7816164E-02  0.1312668E+00
        -11   -1    0    0    0    0  0.00000000000E+00  0.00000000000E+00  0.45593999997E+02  0.45594000000E+02  0.51100000000E-03 0. -1.
         11   -1    0    0    0    0 -0.00000000000E+00 -0.00000000000E+00 -0.45593999997E+02  0.45594000000E+02  0.51100000000E-03 0.  1.
    9900012    2    1    2    0    0 -0.81027015800E+00 -0.43193806994E+02  0.41547064894E+01  0.47787273205E+02  0.20000009850E+02 0.  0.
         12    1    1    2    0    0  0.81027015800E+00  0.43193806994E+02 -0.41547064894E+01  0.43400726795E+02  0.00000000000E+00 0. -1.
         11    1    3    3    0    0 -0.42239137733E+01 -0.73516186200E+01 -0.52563975416E+00  0.84949421017E+01  0.51100000000E-03 0. -1.
        -11    1    3    3    0    0  0.22483899074E+00 -0.68172936797E-01 -0.26296445092E+01  0.26401194342E+01  0.51100000000E-03 0.  1.
        -12    1    3    3    0    0  0.31888046245E+01 -0.35774015437E+02  0.73099907527E+01  0.36652211669E+02  0.00000000000E+00 0.  1.
</event>
<event>
 7    1  0.5031164E-009  0.4778727E+02  0.7816164E-02  0.1312668E+00
        -11   -1    0    0    0    0  0.00000000000E+00  0.00000000000E+00  0.45593999997E+02  0.45594000000E+02  0.51100000000E-03 0. -1.
         11   -1    0    0    0    0 -0.00000000000E+00 -0.00000000000E+00 -0.45593999997E+02  0.45594000000E+02  0.51100000000E-03 0.  1.
    9900012    2    1    2    0    0  0.22781823701E+02 -0.36265294934E+02  0.70313739420E+01  0.47787270429E+02  0.19999997192E+02 0.  0.
         12    1    1    2    0    0 -0.22781823701E+02  0.36265294934E+02 -0.70313739420E+01  0.43400729571E+02  0.00000000000E+00 0. -1.
         11    1    3    3    0    0 -0.98795200778E+00 -0.48787104080E+01  0.27916737992E+01  0.57071277607E+01  0.51100000000E-03 0. -1.
        -11    1    3    3    0    0  0.22122756873E+02 -0.27105516178E+02  0.82952450676E+01  0.35957425796E+02  0.51100000000E-03 0.  1.
        -12    1    3    3    0    0  0.16470188361E+01 -0.42810683490E+01 -0.40555449248E+01  0.61227168718E+01  0.00000000000E+00 0.  1.
</event>
<event>
 7    1  0.5031164E-009  0.4778727E+02  0.7816164E-02  0.1312668E+00
        -11   -1    0    0    0    0  0.00000000000E+00  0.00000000000E+00  0.45593999997E+02  0.45594000000E+02  0.51100000000E-03 0. -1.
         11   -1    0    0    0    0 -0.00000000000E+00 -0.00000000000E+00 -0.45593999997E+02  0.45594000000E+02  0.51100000000E-03 0.  1.
    9900012    2    1    2    0    0  0.36588659938E+02 -0.18931017966E+02 -0.13656855544E+02  0.47787272119E+02  0.20000004898E+02 0.  0.
         12    1    1    2    0    0 -0.36588659938E+02  0.18931017966E+02  0.13656855544E+02  0.43400727881E+02  0.00000000000E+00 0. -1.
         11    1    3    3    0    0  0.20205951061E+01 -0.53540835295E+01  0.17088359862E+01  0.59723643319E+01  0.51100000000E-03 0. -1.
        -11    1    3    3    0    0  0.19054208824E+02 -0.17208159898E+01 -0.98859431587E+01  0.21534993708E+02  0.51100000000E-03 0.  1.
         12    1    3    3    0    0  0.15513856008E+02 -0.11856118447E+02 -0.54797483716E+01  0.20279914079E+02  0.00000000000E+00 0. -1.
</event>
<event>
 7    1  0.5031164E-009  0.4778727E+02  0.7816164E-02  0.1312668E+00
        -11   -1    0    0    0    0  0.00000000000E+00  0.00000000000E+00  0.45593999997E+02  0.45594000000E+02  0.51100000000E-03 0.  1.
         11   -1    0    0    0    0 -0.00000000000E+00 -0.00000000000E+00 -0.45593999997E+02  0.45594000000E+02  0.51100000000E-03 0. -1.
    9900012    2    1    2    0    0  0.16581689991E+02 -0.27511078646E+02  0.29185805937E+02  0.47787272363E+02  0.20000006011E+02 0.  0.
         12    1    1    2    0    0 -0.16581689991E+02  0.27511078646E+02 -0.29185805937E+02  0.43400727637E+02  0.00000000000E+00 0. -1.
         11    1    3    3    0    0  0.10916155749E+01  0.27520706276E-01  0.60405364250E+01  0.61384413751E+01  0.51100000000E-03 0. -1.
        -11    1    3    3    0    0  0.16935142974E+02 -0.26285805924E+02  0.17819245992E+02  0.35989834518E+02  0.51100000000E-03 0.  1.
        -12    1    3    3    0    0 -0.14450685579E+01 -0.12527934284E+01  0.53260235202E+01  0.56589964701E+01  0.00000000000E+00 0.  1.
</event>
<event>
 7    1  0.6454560E-009  0.4778733E+02  0.7816164E-02  0.1312668E+00
        -11   -1    0    0    0    0  0.00000000000E+00  0.00000000000E+00  0.45593999997E+02  0.45594000000E+02  0.51100000000E-03 0. -1.
         11   -1    0    0    0    0 -0.00000000000E+00 -0.00000000000E+00 -0.45593999997E+02  0.45594000000E+02  0.51100000000E-03 0.  1.
    9900012    2    1    2    0    0  0.22162231271E+01 -0.29863575949E+02 -0.31414543000E+02  0.47787328055E+02  0.20000259933E+02 0.  0.
         12    1    1    2    0    0 -0.22162231271E+01  0.29863575949E+02  0.31414543000E+02  0.43400671945E+02  0.00000000000E+00 0. -1.
         11    1    3    3    0    0  0.43856681885E+00  0.33365741467E+00  0.54377867205E+00  0.77418578536E+00  0.51100000000E-03 0. -1.
        -11    1    3    3    0    0 -0.10891754060E+00 -0.47776362327E+01  0.14475453131E+01  0.49933013826E+01  0.51100000000E-03 0.  1.
        -12    1    3    3    0    0  0.18865738488E+01 -0.25419597131E+02 -0.33405866985E+02  0.42019840887E+02  0.00000000000E+00 0.  1.
</event>
<event>
 7    1  0.5031164E-009  0.4778727E+02  0.7816164E-02  0.1312668E+00
        -11   -1    0    0    0    0  0.00000000000E+00  0.00000000000E+00  0.45593999997E+02  0.45594000000E+02  0.51100000000E-03 0. -1.
         11   -1    0    0    0    0 -0.00000000000E+00 -0.00000000000E+00 -0.45593999997E+02  0.45594000000E+02  0.51100000000E-03 0.  1.
    9900012    2    1    2    0    0 -0.25499698751E+02  0.32953183029E+02  0.12143980017E+02  0.47787272370E+02  0.20000006045E+02 0.  0.
         12    1    1    2    0    0  0.25499698751E+02 -0.32953183029E+02 -0.12143980017E+02  0.43400727630E+02  0.00000000000E+00 0. -1.
         11    1    3    3    0    0 -0.11204598548E+02  0.26492627156E+02  0.41345255955E+01  0.29060224095E+02  0.51100000000E-03 0. -1.
        -11    1    3    3    0    0 -0.14032333340E+02  0.52228399391E+01  0.86677938675E+01  0.17300725037E+02  0.51100000000E-03 0.  1.
         12    1    3    3    0    0 -0.26276686262E+00  0.12377159335E+01 -0.65833944560E+00  0.14263232389E+01  0.00000000000E+00 0. -1.
</event>
<event>
 7    1  0.5031164E-009  0.4778727E+02  0.7816164E-02  0.1312668E+00
        -11   -1    0    0    0    0  0.00000000000E+00  0.00000000000E+00  0.45593999997E+02  0.45594000000E+02  0.51100000000E-03 0. -1.
         11   -1    0    0    0    0 -0.00000000000E+00 -0.00000000000E+00 -0.45593999997E+02  0.45594000000E+02  0.51100000000E-03 0.  1.
    9900012    2    1    2    0    0  0.64670125961E+01  0.42276263178E+02 -0.73836792308E+01  0.47787269600E+02  0.19999993415E+02 0.  0.
         12    1    1    2    0    0 -0.64670125961E+01 -0.42276263178E+02  0.73836792308E+01  0.43400730400E+02  0.00000000000E+00 0. -1.
         11    1    3    3    0    0  0.63175171780E+01  0.17349469376E+01 -0.19651879807E+01  0.68398120026E+01  0.51100000000E-03 0. -1.
        -11    1    3    3    0    0 -0.42781551089E+00  0.20110236141E+02 -0.35173134489E+01  0.20419993093E+02  0.51100000000E-03 0.  1.
         12    1    3    3    0    0  0.57731092896E+00  0.20431080099E+02 -0.19011778013E+01  0.20527464504E+02  0.00000000000E+00 0. -1.
</event>
<event>
 7    1  0.5031164E-009  0.4778727E+02  0.7816164E-02  0.1312668E+00
        -11   -1    0    0    0    0  0.00000000000E+00  0.00000000000E+00  0.45593999997E+02  0.45594000000E+02  0.51100000000E-03 0.  1.
         11   -1    0    0    0    0 -0.00000000000E+00 -0.00000000000E+00 -0.45593999997E+02  0.45594000000E+02  0.51100000000E-03 0. -1.
    9900012    2    1    2    0    0  0.37859173967E+02  0.20984262576E+01  0.21116416403E+02  0.47787268579E+02  0.19999988758E+02 0.  0.
         12    1    1    2    0    0 -0.37859173967E+02 -0.20984262576E+01 -0.21116416403E+02  0.43400731421E+02  0.00000000000E+00 0. -1.
         11    1    3    3    0    0  0.91180115890E+01  0.85467478229E+01  0.46773056518E+01  0.13343995732E+02  0.51100000000E-03 0. -1.
        -11    1    3    3    0    0  0.27207059063E+02 -0.64652040677E+01  0.13336386850E+02  0.30981964770E+02  0.51100000000E-03 0.  1.
        -12    1    3    3    0    0  0.15341033149E+01  0.16882502402E-01  0.31027239004E+01  0.34613080767E+01  0.00000000000E+00 0.  1.
</event>
<event>
 7    1  0.5031164E-009  0.4778727E+02  0.7816164E-02  0.1312668E+00
        -11   -1    0    0    0    0  0.00000000000E+00  0.00000000000E+00  0.45593999997E+02  0.45594000000E+02  0.51100000000E-03 0.  1.
         11   -1    0    0    0    0 -0.00000000000E+00 -0.00000000000E+00 -0.45593999997E+02  0.45594000000E+02  0.51100000000E-03 0. -1.
    9900012    2    1    2    0    0 -0.28203306514E+02  0.10159235611E+02  0.31384504030E+02  0.47787266599E+02  0.19999979734E+02 0.  0.
         12    1    1    2    0    0  0.28203306514E+02 -0.10159235611E+02 -0.31384504030E+02  0.43400733401E+02  0.00000000000E+00 0. -1.
         11    1    3    3    0    0 -0.11847776828E+02 -0.23434176656E+01  0.69160869076E+01  0.13917387704E+02  0.51100000000E-03 0. -1.
        -11    1    3    3    0    0 -0.99866852332E+01  0.86359332852E+01  0.22623360366E+02  0.26194076815E+02  0.51100000000E-03 0.  1.
        -12    1    3    3    0    0 -0.63688444525E+01  0.38667199915E+01  0.18450567558E+01  0.76758020809E+01  0.00000000000E+00 0.  1.
</event>
<event>
 7    1  0.5031164E-009  0.4778727E+02  0.7816164E-02  0.1312668E+00
        -11   -1    0    0    0    0  0.00000000000E+00  0.00000000000E+00  0.45593999997E+02  0.45594000000E+02  0.51100000000E-03 0.  1.
         11   -1    0    0    0    0 -0.00000000000E+00 -0.00000000000E+00 -0.45593999997E+02  0.45594000000E+02  0.51100000000E-03 0. -1.
    9900012    2    1    2    0    0 -0.10038113942E+02  0.20439468625E+02  0.36947090715E+02  0.47787272800E+02  0.20000008004E+02 0.  0.
         12    1    1    2    0    0  0.10038113942E+02 -0.20439468625E+02 -0.36947090715E+02  0.43400727200E+02  0.00000000000E+00 0. -1.
         11    1    3    3    0    0 -0.19543749001E+01  0.63791839224E+00  0.12606938857E+02  0.12773465807E+02  0.51100000000E-03 0. -1.
        -11    1    3    3    0    0 -0.92267603641E+01  0.91640627285E+01  0.73555483277E+01  0.14940456619E+02  0.51100000000E-03 0.  1.
        -12    1    3    3    0    0  0.11430213224E+01  0.10637487504E+02  0.16984603530E+02  0.20073350374E+02  0.00000000000E+00 0.  1.
</event>
<event>
 7    1  0.5031164E-009  0.4778727E+02  0.7816164E-02  0.1312668E+00
        -11   -1    0    0    0    0  0.00000000000E+00  0.00000000000E+00  0.45593999997E+02  0.45594000000E+02  0.51100000000E-03 0. -1.
         11   -1    0    0    0    0 -0.00000000000E+00 -0.00000000000E+00 -0.45593999997E+02  0.45594000000E+02  0.51100000000E-03 0.  1.
    9900012    2    1    2    0    0 -0.18823101021E+02  0.36195632582E+02 -0.14805077241E+02  0.47787271179E+02  0.20000000614E+02 0.  0.
         12    1    1    2    0    0  0.18823101021E+02 -0.36195632582E+02  0.14805077241E+02  0.43400728821E+02  0.00000000000E+00 0. -1.
         11    1    3    3    0    0 -0.40718039335E+01  0.56125052074E+01  0.16763998870E+01  0.71337310588E+01  0.51100000000E-03 0. -1.
        -11    1    3    3    0    0 -0.13996978087E+02  0.30067930157E+02 -0.18826398880E+02  0.38136978309E+02  0.51100000000E-03 0.  1.
        -12    1    3    3    0    0 -0.75431900059E+00  0.51519721786E+00  0.23449217518E+01  0.25165618113E+01  0.00000000000E+00 0.  1.
</event>
<event>
 7    1  0.5031164E-009  0.4778727E+02  0.7816164E-02  0.1312668E+00
        -11   -1    0    0    0    0  0.00000000000E+00  0.00000000000E+00  0.45593999997E+02  0.45594000000E+02  0.51100000000E-03 0.  1.
         11   -1    0    0    0    0 -0.00000000000E+00 -0.00000000000E+00 -0.45593999997E+02  0.45594000000E+02  0.51100000000E-03 0. -1.
    9900012    2    1    2    0    0  0.31656715945E+02 -0.54628892856E+01  0.29182742196E+02  0.47787271137E+02  0.20000000421E+02 0.  0.
         12    1    1    2    0    0 -0.31656715945E+02  0.54628892856E+01 -0.29182742196E+02  0.43400728863E+02  0.00000000000E+00 0. -1.
         11    1    3    3    0    0  0.87742936181E+01  0.38690416497E+01  0.20459296174E+01  0.98052812323E+01  0.51100000000E-03 0. -1.
        -11    1    3    3    0    0  0.51512067442E+01  0.19995674844E+01  0.59866214136E+01  0.81469526362E+01  0.51100000000E-03 0.  1.
         12    1    3    3    0    0  0.17731215583E+02 -0.11331498420E+02  0.21150191165E+02  0.29835037268E+02  0.00000000000E+00 0. -1.
</event>
<event>
 7    1  0.5031164E-009  0.4778727E+02  0.7816164E-02  0.1312668E+00
        -11   -1    0    0    0    0  0.00000000000E+00  0.00000000000E+00  0.45593999997E+02  0.45594000000E+02  0.51100000000E-03 0. -1.
         11   -1    0    0    0    0 -0.00000000000E+00 -0.00000000000E+00 -0.45593999997E+02  0.45594000000E+02  0.51100000000E-03 0.  1.
    9900012    2    1    2    0    0 -0.39783778517E+02  0.14346985058E+02 -0.97487536298E+01  0.47787271772E+02  0.20000003318E+02 0.  0.
         12    1    1    2    0    0  0.39783778517E+02 -0.14346985058E+02  0.97487536298E+01  0.43400728228E+02  0.00000000000E+00 0. -1.
         11    1    3    3    0    0 -0.25788789433E+02  0.27921743659E+01 -0.10060842533E+02  0.27822265379E+02  0.51100000000E-03 0. -1.
        -11    1    3    3    0    0 -0.13012547339E+01  0.48063434076E+01 -0.20706751492E+01  0.53927633611E+01  0.51100000000E-03 0.  1.
         12    1    3    3    0    0 -0.12693734350E+02  0.67484672850E+01  0.23827640523E+01  0.14572243032E+02  0.00000000000E+00 0. -1.
</event>
<event>
 7    1  0.5031164E-009  0.4778727E+02  0.7816164E-02  0.1312668E+00
        -11   -1    0    0    0    0  0.00000000000E+00  0.00000000000E+00  0.45593999997E+02  0.45594000000E+02  0.51100000000E-03 0.  1.
         11   -1    0    0    0    0 -0.00000000000E+00 -0.00000000000E+00 -0.45593999997E+02  0.45594000000E+02  0.51100000000E-03 0. -1.
    9900012    2    1    2    0    0 -0.29195716739E+02  0.12841497974E+02  0.29433473843E+02  0.47787270414E+02  0.19999997127E+02 0.  0.
         12    1    1    2    0    0  0.29195716739E+02 -0.12841497974E+02 -0.29433473843E+02  0.43400729586E+02  0.00000000000E+00 0. -1.
         11    1    3    3    0    0 -0.24296551799E+02  0.88711807476E+01  0.16491556528E+02  0.30675588245E+02  0.51100000000E-03 0. -1.
        -11    1    3    3    0    0 -0.56690664424E+01 -0.13416849995E+01  0.68663943928E+01  0.90047656930E+01  0.51100000000E-03 0.  1.
         12    1    3    3    0    0  0.76990150297E+00  0.53120022263E+01  0.60755229225E+01  0.81069164766E+01  0.00000000000E+00 0. -1.
</event>
<event>
 7    1  0.5031164E-009  0.4778727E+02  0.7816164E-02  0.1312668E+00
        -11   -1    0    0    0    0  0.00000000000E+00  0.00000000000E+00  0.45593999997E+02  0.45594000000E+02  0.51100000000E-03 0.  1.
         11   -1    0    0    0    0 -0.00000000000E+00 -0.00000000000E+00 -0.45593999997E+02  0.45594000000E+02  0.51100000000E-03 0. -1.
    9900012    2    1    2    0    0  0.20483152627E+02  0.77339317973E+01  0.37473323486E+02  0.47787271715E+02  0.20000003056E+02 0.  0.
         12    1    1    2    0    0 -0.20483152627E+02 -0.77339317973E+01 -0.37473323486E+02  0.43400728285E+02  0.00000000000E+00 0. -1.
         11    1    3    3    0    0  0.21563782471E+01  0.22892919083E+01  0.15370847758E+02  0.15689288883E+02  0.51100000000E-03 0. -1.
        -11    1    3    3    0    0  0.14887175082E+02  0.45039082717E+01  0.78810143423E+01  0.17436271361E+02  0.51100000000E-03 0.  1.
        -12    1    3    3    0    0  0.34395992977E+01  0.94073161732E+00  0.14221461385E+02  0.14661711470E+02  0.00000000000E+00 0.  1.
</event>
<event>
 7    1  0.5031164E-009  0.4778727E+02  0.7816164E-02  0.1312668E+00
        -11   -1    0    0    0    0  0.00000000000E+00  0.00000000000E+00  0.45593999997E+02  0.45594000000E+02  0.51100000000E-03 0.  1.
         11   -1    0    0    0    0 -0.00000000000E+00 -0.00000000000E+00 -0.45593999997E+02  0.45594000000E+02  0.51100000000E-03 0. -1.
    9900012    2    1    2    0    0 -0.29146055951E+02  0.32156204810E+02  0.32996676222E+00  0.47787274622E+02  0.20000016310E+02 0.  0.
         12    1    1    2    0    0  0.29146055951E+02 -0.32156204810E+02 -0.32996676222E+00  0.43400725378E+02  0.00000000000E+00 0. -1.
         11    1    3    3    0    0  0.18697219175E+01  0.44654376468E+01 -0.14927913514E+01  0.50660062876E+01  0.51100000000E-03 0. -1.
        -11    1    3    3    0    0 -0.26627018124E+02  0.27277899394E+02  0.27438192352E+01  0.38217933406E+02  0.51100000000E-03 0.  1.
        -12    1    3    3    0    0 -0.43887597442E+01  0.41286776953E+00 -0.92106112157E+00  0.45033349283E+01  0.00000000000E+00 0.  1.
</event>
<event>
 7    1  0.5031164E-009  0.4778727E+02  0.7816164E-02  0.1312668E+00
        -11   -1    0    0    0    0  0.00000000000E+00  0.00000000000E+00  0.45593999997E+02  0.45594000000E+02  0.51100000000E-03 0. -1.
         11   -1    0    0    0    0 -0.00000000000E+00 -0.00000000000E+00 -0.45593999997E+02  0.45594000000E+02  0.51100000000E-03 0.  1.
    9900012    2    1    2    0    0  0.30169768312E+02 -0.31175409020E+02  0.12256206677E+01  0.47787271970E+02  0.20000004220E+02 0.  0.
         12    1    1    2    0    0 -0.30169768312E+02  0.31175409020E+02 -0.12256206677E+01  0.43400728030E+02  0.00000000000E+00 0. -1.
         11    1    3    3    0    0  0.59564416694E+01 -0.83349196171E+01  0.38900334558E+01  0.10958213492E+02  0.51100000000E-03 0. -1.
        -11    1    3    3    0    0  0.12434507715E+02 -0.44586916033E+01 -0.64023794528E+01  0.14679488269E+02  0.51100000000E-03 0.  1.
        -12    1    3    3    0    0  0.11778818927E+02 -0.18381797799E+02  0.37379666647E+01  0.22149570209E+02  0.00000000000E+00 0.  1.
</event>
<event>
 7    1  0.5031164E-009  0.4778726E+02  0.7816164E-02  0.1312668E+00
        -11   -1    0    0    0    0  0.00000000000E+00  0.00000000000E+00  0.45593999997E+02  0.45594000000E+02  0.51100000000E-03 0.  1.
         11   -1    0    0    0    0 -0.00000000000E+00 -0.00000000000E+00 -0.45593999997E+02  0.45594000000E+02  0.51100000000E-03 0. -1.
    9900012    2    1    2    0    0 -0.36728208899E+02 -0.15601948374E+02 -0.17065811719E+02  0.47787262084E+02  0.19999959145E+02 0.  0.
         12    1    1    2    0    0  0.36728208899E+02  0.15601948374E+02  0.17065811719E+02  0.43400737916E+02  0.00000000000E+00 0. -1.
         11    1    3    3    0    0 -0.66040052868E+01 -0.13263184085E+01  0.91527873214E+00  0.67977747658E+01  0.51100000000E-03 0. -1.
        -11    1    3    3    0    0 -0.27412893030E+02 -0.10429237166E+02 -0.87154877658E+01  0.30597310656E+02  0.51100000000E-03 0.  1.
        -12    1    3    3    0    0 -0.27113105828E+01 -0.38463928000E+01 -0.92656026855E+01  0.10392176662E+02  0.00000000000E+00 0.  1.
</event>
<event>
 7    1  0.5031164E-009  0.4778727E+02  0.7816164E-02  0.1312668E+00
        -11   -1    0    0    0    0  0.00000000000E+00  0.00000000000E+00  0.45593999997E+02  0.45594000000E+02  0.51100000000E-03 0.  1.
         11   -1    0    0    0    0 -0.00000000000E+00 -0.00000000000E+00 -0.45593999997E+02  0.45594000000E+02  0.51100000000E-03 0. -1.
    9900012    2    1    2    0    0 -0.21546074407E+02 -0.16880945997E+02  0.33681207812E+02  0.47787269363E+02  0.19999992334E+02 0.  0.
         12    1    1    2    0    0  0.21546074407E+02  0.16880945997E+02 -0.33681207812E+02  0.43400730637E+02  0.00000000000E+00 0. -1.
         11    1    3    3    0    0  0.15594931389E+01 -0.47625528705E+00 -0.54943538537E+00  0.17206735462E+01  0.51100000000E-03 0. -1.
        -11    1    3    3    0    0 -0.96886354084E+01 -0.84837842634E+01  0.24552263981E+02  0.27724680672E+02  0.51100000000E-03 0.  1.
        -12    1    3    3    0    0 -0.13416932138E+02 -0.79209064464E+01  0.96783792168E+01  0.18341915145E+02  0.00000000000E+00 0.  1.
</event>
<event>
 7    1  0.5031164E-009  0.4778727E+02  0.7816164E-02  0.1312668E+00
        -11   -1    0    0    0    0  0.00000000000E+00  0.00000000000E+00  0.45593999997E+02  0.45594000000E+02  0.51100000000E-03 0. -1.
         11   -1    0    0    0    0 -0.00000000000E+00 -0.00000000000E+00 -0.45593999997E+02  0.45594000000E+02  0.51100000000E-03 0.  1.
    9900012    2    1    2    0    0 -0.27199193167E+02 -0.32907851287E+02 -0.78038800063E+01  0.47787270416E+02  0.19999997135E+02 0.  0.
         12    1    1    2    0    0  0.27199193167E+02  0.32907851287E+02  0.78038800063E+01  0.43400729584E+02  0.00000000000E+00 0. -1.
         11    1    3    3    0    0 -0.25997827650E+01  0.79931094369E+00  0.39653344446E+00  0.27486373794E+01  0.51100000000E-03 0. -1.
        -11    1    3    3    0    0 -0.18876926070E+02 -0.33135483343E+02 -0.50127448319E+01  0.38463309858E+02  0.51100000000E-03 0.  1.
        -12    1    3    3    0    0 -0.57224843320E+01 -0.57167888792E+00 -0.31876686188E+01  0.65753231787E+01  0.00000000000E+00 0.  1.
</event>
<event>
 7    1  0.5031164E-009  0.4778727E+02  0.7816164E-02  0.1312668E+00
        -11   -1    0    0    0    0  0.00000000000E+00  0.00000000000E+00  0.45593999997E+02  0.45594000000E+02  0.51100000000E-03 0.  1.
         11   -1    0    0    0    0 -0.00000000000E+00 -0.00000000000E+00 -0.45593999997E+02  0.45594000000E+02  0.51100000000E-03 0. -1.
    9900012    2    1    2    0    0  0.49390514738E+01  0.16824635087E+02  0.39700888939E+02  0.47787272381E+02  0.20000006093E+02 0.  0.
         12    1    1    2    0    0 -0.49390514738E+01 -0.16824635087E+02 -0.39700888939E+02  0.43400727619E+02  0.00000000000E+00 0. -1.
         11    1    3    3    0    0  0.11307388666E+02  0.10040292779E+02  0.22129965144E+02  0.26802982578E+02  0.51100000000E-03 0. -1.
        -11    1    3    3    0    0 -0.22148084651E+01  0.62126556209E+01  0.14004457983E+02  0.15479900196E+02  0.51100000000E-03 0.  1.
         12    1    3    3    0    0 -0.41535287274E+01  0.57168668716E+00  0.35664658124E+01  0.55043896073E+01  0.00000000000E+00 0. -1.
</event>
<event>
 7    1  0.5031164E-009  0.4778727E+02  0.7816164E-02  0.1312668E+00
        -11   -1    0    0    0    0  0.00000000000E+00  0.00000000000E+00  0.45593999997E+02  0.45594000000E+02  0.51100000000E-03 0.  1.
         11   -1    0    0    0    0 -0.00000000000E+00 -0.00000000000E+00 -0.45593999997E+02  0.45594000000E+02  0.51100000000E-03 0. -1.
    9900012    2    1    2    0    0 -0.23968932881E+02 -0.31450077363E+02  0.17888712252E+02  0.47787272637E+02  0.20000007262E+02 0.  0.
         12    1    1    2    0    0  0.23968932881E+02  0.31450077363E+02 -0.17888712252E+02  0.43400727363E+02  0.00000000000E+00 0. -1.
         11    1    3    3    0    0  0.15922640261E+01 -0.56267557185E+01  0.32020882464E+00  0.58564680992E+01  0.51100000000E-03 0. -1.
        -11    1    3    3    0    0 -0.13533002876E+02 -0.71241723747E+01  0.10683037773E+02  0.18655382472E+02  0.51100000000E-03 0.  1.
        -12    1    3    3    0    0 -0.12028194032E+02 -0.18699149269E+02  0.68854656551E+01  0.23275422066E+02  0.00000000000E+00 0.  1.
</event>
<event>
 7    1  0.5031164E-009  0.4778727E+02  0.7816164E-02  0.1312668E+00
        -11   -1    0    0    0    0  0.00000000000E+00  0.00000000000E+00  0.45593999997E+02  0.45594000000E+02  0.51100000000E-03 0.  1.
         11   -1    0    0    0    0 -0.00000000000E+00 -0.00000000000E+00 -0.45593999997E+02  0.45594000000E+02  0.51100000000E-03 0. -1.
    9900012    2    1    2    0    0  0.12697900877E+02  0.46939810905E+01  0.41235336701E+02  0.47787272610E+02  0.20000007139E+02 0.  0.
         12    1    1    2    0    0 -0.12697900877E+02 -0.46939810905E+01 -0.41235336701E+02  0.43400727390E+02  0.00000000000E+00 0. -1.
         11    1    3    3    0    0  0.84771282634E+01  0.38048158302E+01  0.61664894276E+01  0.11151857209E+02  0.51100000000E-03 0.  1.
        -11    1    3    3    0    0  0.48642593423E+01 -0.35182673352E+01  0.23010611553E+02  0.23780821439E+02  0.51100000000E-03 0. -1.
         12    1    3    3    0    0 -0.64348672869E+00  0.44074325955E+01  0.12058235720E+02  0.12854593962E+02  0.00000000000E+00 0. -1.
</event>
<event>
 7    1  0.5031164E-009  0.4778724E+02  0.7816164E-02  0.1312668E+00
        -11   -1    0    0    0    0  0.00000000000E+00  0.00000000000E+00  0.45593999997E+02  0.45594000000E+02  0.51100000000E-03 0.  1.
         11   -1    0    0    0    0 -0.00000000000E+00 -0.00000000000E+00 -0.45593999997E+02  0.45594000000E+02  0.51100000000E-03 0. -1.
    9900012    2    1    2    0    0 -0.20829383136E+02 -0.36928290479E+02 -0.92770581988E+01  0.47787243689E+02  0.19999875275E+02 0.  0.
         12    1    1    2    0    0  0.20829383136E+02  0.36928290479E+02  0.92770581988E+01  0.43400756311E+02  0.00000000000E+00 0. -1.
         11    1    3    3    0    0 -0.69547646661E+01 -0.17808744780E+02 -0.10343203772E+02  0.21737111279E+02  0.51100000000E-03 0. -1.
        -11    1    3    3    0    0 -0.11217013072E+02 -0.19046074458E+02  0.35793528460E+01  0.22391652498E+02  0.51100000000E-03 0.  1.
         12    1    3    3    0    0 -0.26576053980E+01 -0.73471240711E-01 -0.25132072725E+01  0.36584799124E+01  0.00000000000E+00 0. -1.
</event>
<event>
 7    1  0.5031164E-009  0.4778727E+02  0.7816164E-02  0.1312668E+00
        -11   -1    0    0    0    0  0.00000000000E+00  0.00000000000E+00  0.45593999997E+02  0.45594000000E+02  0.51100000000E-03 0.  1.
         11   -1    0    0    0    0 -0.00000000000E+00 -0.00000000000E+00 -0.45593999997E+02  0.45594000000E+02  0.51100000000E-03 0. -1.
    9900012    2    1    2    0    0  0.11248646167E+02  0.66576480358E+01  0.41385589317E+02  0.47787270501E+02  0.19999997521E+02 0.  0.
         12    1    1    2    0    0 -0.11248646167E+02 -0.66576480358E+01 -0.41385589317E+02  0.43400729499E+02  0.00000000000E+00 0. -1.
         11    1    3    3    0    0 -0.44061119752E+01 -0.14431654952E+01  0.89252415258E+01  0.10057658074E+02  0.51100000000E-03 0. -1.
        -11    1    3    3    0    0  0.10524409716E+02  0.83218150236E+01  0.18487264155E+02  0.22842826912E+02  0.51100000000E-03 0.  1.
        -12    1    3    3    0    0  0.51303484268E+01 -0.22100149262E+00  0.13973083636E+02  0.14886785514E+02  0.00000000000E+00 0.  1.
</event>
<event>
 7    1  0.5031164E-009  0.4778727E+02  0.7816164E-02  0.1312668E+00
        -11   -1    0    0    0    0  0.00000000000E+00  0.00000000000E+00  0.45593999997E+02  0.45594000000E+02  0.51100000000E-03 0.  1.
         11   -1    0    0    0    0 -0.00000000000E+00 -0.00000000000E+00 -0.45593999997E+02  0.45594000000E+02  0.51100000000E-03 0. -1.
    9900012    2    1    2    0    0 -0.39205441017E+02 -0.17177869628E+02 -0.71747763155E+01  0.47787271602E+02  0.20000002542E+02 0.  0.
         12    1    1    2    0    0  0.39205441017E+02  0.17177869628E+02  0.71747763155E+01  0.43400728398E+02  0.00000000000E+00 0. -1.
         11    1    3    3    0    0 -0.86199007909E+01  0.33291104065E+01 -0.59286846342E-01  0.92406266527E+01  0.51100000000E-03 0. -1.
        -11    1    3    3    0    0 -0.22600265408E+02 -0.11274652446E+02 -0.74601118591E+01  0.26335205591E+02  0.51100000000E-03 0.  1.
         12    1    3    3    0    0 -0.79852748182E+01 -0.92323275876E+01  0.34462239001E+00  0.12211439358E+02  0.00000000000E+00 0. -1.
</event>
<event>
 7    1  0.5031164E-009  0.4778725E+02  0.7816164E-02  0.1312668E+00
        -11   -1    0    0    0    0  0.00000000000E+00  0.00000000000E+00  0.45593999997E+02  0.45594000000E+02  0.51100000000E-03 0. -1.
         11   -1    0    0    0    0 -0.00000000000E+00 -0.00000000000E+00 -0.45593999997E+02  0.45594000000E+02  0.51100000000E-03 0.  1.
    9900012    2    1    2    0    0  0.27764380695E+02  0.18340801876E+02 -0.27863580068E+02  0.47787251815E+02  0.19999912323E+02 0.  0.
         12    1    1    2    0    0 -0.27764380695E+02 -0.18340801876E+02  0.27863580068E+02  0.43400748185E+02  0.00000000000E+00 0. -1.
         11    1    3    3    0    0  0.20409278786E+02  0.16061550868E+02 -0.10764218507E+02  0.28113706216E+02  0.51100000000E-03 0.  1.
        -11    1    3    3    0    0  0.35994223271E+01  0.41660079301E+01 -0.10328859392E+02  0.11704563202E+02  0.51100000000E-03 0. -1.
         12    1    3    3    0    0  0.37556795816E+01 -0.18867569223E+01 -0.67705021700E+01  0.79689823966E+01  0.00000000000E+00 0. -1.
</event>
<event>
 7    1  0.5031164E-009  0.4778727E+02  0.7816164E-02  0.1312668E+00
        -11   -1    0    0    0    0  0.00000000000E+00  0.00000000000E+00  0.45593999997E+02  0.45594000000E+02  0.51100000000E-03 0. -1.
         11   -1    0    0    0    0 -0.00000000000E+00 -0.00000000000E+00 -0.45593999997E+02  0.45594000000E+02  0.51100000000E-03 0.  1.
    9900012    2    1    2    0    0 -0.63430417924E+01  0.27257441292E+02  0.33172593460E+02  0.47787271413E+02  0.20000001681E+02 0.  0.
         12    1    1    2    0    0  0.63430417924E+01 -0.27257441292E+02 -0.33172593460E+02  0.43400728587E+02  0.00000000000E+00 0. -1.
         11    1    3    3    0    0 -0.46838979783E+01  0.26963832690E+02  0.30547108104E+02  0.41013570771E+02  0.51100000000E-03 0.  1.
        -11    1    3    3    0    0 -0.53407915805E+00  0.16165007104E+01 -0.15180496029E+01  0.22809625056E+01  0.51100000000E-03 0. -1.
        -12    1    3    3    0    0 -0.11250646560E+01 -0.13228921078E+01  0.41435349589E+01  0.44927381367E+01  0.00000000000E+00 0.  1.
</event>
<event>
 7    1  0.5031164E-009  0.4778727E+02  0.7816164E-02  0.1312668E+00
        -11   -1    0    0    0    0  0.00000000000E+00  0.00000000000E+00  0.45593999997E+02  0.45594000000E+02  0.51100000000E-03 0. -1.
         11   -1    0    0    0    0 -0.00000000000E+00 -0.00000000000E+00 -0.45593999997E+02  0.45594000000E+02  0.51100000000E-03 0.  1.
    9900012    2    1    2    0    0 -0.18061059480E+02  0.64496308496E+01 -0.38933580866E+02  0.47787270435E+02  0.19999997224E+02 0.  0.
         12    1    1    2    0    0  0.18061059480E+02 -0.64496308496E+01  0.38933580866E+02  0.43400729565E+02  0.00000000000E+00 0. -1.
         11    1    3    3    0    0 -0.16117017351E+01 -0.24802998961E+00 -0.16799346613E+02  0.16878304069E+02  0.51100000000E-03 0. -1.
        -11    1    3    3    0    0 -0.67714181480E+01  0.82096974164E+01 -0.65319534705E+01  0.12486698996E+02  0.51100000000E-03 0.  1.
        -12    1    3    3    0    0 -0.96779395971E+01 -0.15120365771E+01 -0.15602280783E+02  0.18422267371E+02  0.00000000000E+00 0.  1.
</event>
<event>
 7    1  0.5031164E-009  0.4778727E+02  0.7816164E-02  0.1312668E+00
        -11   -1    0    0    0    0  0.00000000000E+00  0.00000000000E+00  0.45593999997E+02  0.45594000000E+02  0.51100000000E-03 0. -1.
         11   -1    0    0    0    0 -0.00000000000E+00 -0.00000000000E+00 -0.45593999997E+02  0.45594000000E+02  0.51100000000E-03 0.  1.
    9900012    2    1    2    0    0  0.36781429447E+02  0.17896754736E+02 -0.14507100855E+02  0.47787270081E+02  0.19999995609E+02 0.  0.
         12    1    1    2    0    0 -0.36781429447E+02 -0.17896754736E+02  0.14507100855E+02  0.43400729919E+02  0.00000000000E+00 0. -1.
         11    1    3    3    0    0  0.20780668023E+02  0.13606639051E+02 -0.81437633692E+01  0.26139963118E+02  0.51100000000E-03 0. -1.
        -11    1    3    3    0    0  0.10632739125E+02  0.70883487934E+01  0.11691712461E+00  0.12779417036E+02  0.51100000000E-03 0.  1.
         12    1    3    3    0    0  0.53680222999E+01 -0.27982331088E+01 -0.64802546100E+01  0.88678899268E+01  0.00000000000E+00 0. -1.
</event>
<event>
 7    1  0.5031164E-009  0.4778727E+02  0.7816164E-02  0.1312668E+00
        -11   -1    0    0    0    0  0.00000000000E+00  0.00000000000E+00  0.45593999997E+02  0.45594000000E+02  0.51100000000E-03 0.  1.
         11   -1    0    0    0    0 -0.00000000000E+00 -0.00000000000E+00 -0.45593999997E+02  0.45594000000E+02  0.51100000000E-03 0. -1.
    9900012    2    1    2    0    0 -0.45834243747E+01  0.25638073031E+02  0.34717498655E+02  0.47787270967E+02  0.19999999649E+02 0.  0.
         12    1    1    2    0    0  0.45834243747E+01 -0.25638073031E+02 -0.34717498655E+02  0.43400729033E+02  0.00000000000E+00 0. -1.
         11    1    3    3    0    0  0.16466993263E+01 -0.10079721444E+01  0.25640453422E+00  0.19476575832E+01  0.51100000000E-03 0. -1.
        -11    1    3    3    0    0 -0.67017037479E+01  0.19878379391E+02  0.16656131539E+02  0.26785994819E+02  0.51100000000E-03 0.  1.
        -12    1    3    3    0    0  0.47158004683E+00  0.67676657836E+01  0.17804962581E+02  0.19053618565E+02  0.00000000000E+00 0.  1.
</event>
<event>
 7    1  0.5031164E-009  0.4778727E+02  0.7816164E-02  0.1312668E+00
        -11   -1    0    0    0    0  0.00000000000E+00  0.00000000000E+00  0.45593999997E+02  0.45594000000E+02  0.51100000000E-03 0. -1.
         11   -1    0    0    0    0 -0.00000000000E+00 -0.00000000000E+00 -0.45593999997E+02  0.45594000000E+02  0.51100000000E-03 0.  1.
    9900012    2    1    2    0    0 -0.99387386317E+01 -0.31024457339E+02 -0.28676264276E+02  0.47787267154E+02  0.19999982261E+02 0.  0.
         12    1    1    2    0    0  0.99387386317E+01  0.31024457339E+02  0.28676264276E+02  0.43400732846E+02  0.00000000000E+00 0. -1.
         11    1    3    3    0    0  0.34252979510E+01 -0.10691561682E+02 -0.64179948585E+01  0.12931852749E+02  0.51100000000E-03 0. -1.
        -11    1    3    3    0    0  0.31202573318E+00  0.48424130378E-01 -0.46194894092E+01  0.46302686334E+01  0.51100000000E-03 0.  1.
         12    1    3    3    0    0 -0.13676062316E+02 -0.20381319787E+02 -0.17638780008E+02  0.30225145772E+02  0.00000000000E+00 0. -1.
</event>
<event>
 7    1  0.5031164E-009  0.4778728E+02  0.7816164E-02  0.1312668E+00
        -11   -1    0    0    0    0  0.00000000000E+00  0.00000000000E+00  0.45593999997E+02  0.45594000000E+02  0.51100000000E-03 0.  1.
         11   -1    0    0    0    0 -0.00000000000E+00 -0.00000000000E+00 -0.45593999997E+02  0.45594000000E+02  0.51100000000E-03 0. -1.
    9900012    2    1    2    0    0  0.29996094449E-01 -0.38610316241E+02  0.19820831571E+02  0.47787276686E+02  0.20000025723E+02 0.  0.
         12    1    1    2    0    0 -0.29996094449E-01  0.38610316241E+02 -0.19820831571E+02  0.43400723314E+02  0.00000000000E+00 0. -1.
         11    1    3    3    0    0  0.59115584674E+00 -0.10924733620E+02 -0.23986374738E+01  0.11200568374E+02  0.51100000000E-03 0. -1.
        -11    1    3    3    0    0  0.36822109834E+01 -0.10041826249E+02  0.10476462540E+02  0.14971747385E+02  0.51100000000E-03 0.  1.
         12    1    3    3    0    0 -0.42433707357E+01 -0.17643756372E+02  0.11743006505E+02  0.21614960927E+02  0.00000000000E+00 0. -1.
</event>
<event>
 7    1  0.5031164E-009  0.4778731E+02  0.7816164E-02  0.1312668E+00
        -11   -1    0    0    0    0  0.00000000000E+00  0.00000000000E+00  0.45593999997E+02  0.45594000000E+02  0.51100000000E-03 0. -1.
         11   -1    0    0    0    0 -0.00000000000E+00 -0.00000000000E+00 -0.45593999997E+02  0.45594000000E+02  0.51100000000E-03 0.  1.
    9900012    2    1    2    0    0 -0.37852186966E+02  0.63860857796E+01  0.20249678777E+02  0.47787312906E+02  0.20000190864E+02 0.  0.
         12    1    1    2    0    0  0.37852186966E+02 -0.63860857796E+01 -0.20249678777E+02  0.43400687094E+02  0.00000000000E+00 0. -1.
         11    1    3    3    0    0 -0.18154352475E+02  0.82212870634E+01  0.12482635429E+02  0.23515659937E+02  0.51100000000E-03 0. -1.
        -11    1    3    3    0    0 -0.20882912884E+02 -0.31265175200E+01  0.64484735704E+01  0.22078359857E+02  0.51100000000E-03 0.  1.
        -12    1    3    3    0    0  0.11850783930E+01  0.12913162362E+01  0.13185697777E+01  0.21932931127E+01  0.00000000000E+00 0.  1.
</event>
<event>
 7    1  0.5031164E-009  0.4778727E+02  0.7816164E-02  0.1312668E+00
        -11   -1    0    0    0    0  0.00000000000E+00  0.00000000000E+00  0.45593999997E+02  0.45594000000E+02  0.51100000000E-03 0.  1.
         11   -1    0    0    0    0 -0.00000000000E+00 -0.00000000000E+00 -0.45593999997E+02  0.45594000000E+02  0.51100000000E-03 0. -1.
    9900012    2    1    2    0    0  0.26877154676E+02  0.20156297249E+02  0.27476630160E+02  0.47787274577E+02  0.20000016107E+02 0.  0.
         12    1    1    2    0    0 -0.26877154676E+02 -0.20156297249E+02 -0.27476630160E+02  0.43400725423E+02  0.00000000000E+00 0. -1.
         11    1    3    3    0    0  0.16973150944E+01  0.23463618808E+01 -0.30437870813E+01  0.42013013058E+01  0.51100000000E-03 0. -1.
        -11    1    3    3    0    0  0.20245574661E+02  0.12290165454E+02  0.24036951309E+02  0.33744725347E+02  0.51100000000E-03 0.  1.
        -12    1    3    3    0    0  0.49342649201E+01  0.55197699143E+01  0.64834659324E+01  0.98412479241E+01  0.00000000000E+00 0.  1.
</event>
<event>
 7    1  0.5031164E-009  0.4778727E+02  0.7816164E-02  0.1312668E+00
        -11   -1    0    0    0    0  0.00000000000E+00  0.00000000000E+00  0.45593999997E+02  0.45594000000E+02  0.51100000000E-03 0.  1.
         11   -1    0    0    0    0 -0.00000000000E+00 -0.00000000000E+00 -0.45593999997E+02  0.45594000000E+02  0.51100000000E-03 0. -1.
    9900012    2    1    2    0    0 -0.51591199176E+01  0.29201878421E+02  0.31690011003E+02  0.47787273981E+02  0.20000013387E+02 0.  0.
         12    1    1    2    0    0  0.51591199176E+01 -0.29201878421E+02 -0.31690011003E+02  0.43400726019E+02  0.00000000000E+00 0. -1.
         11    1    3    3    0    0  0.51468395292E+01  0.70729093643E+01  0.12509918069E+02  0.15264797881E+02  0.51100000000E-03 0. -1.
        -11    1    3    3    0    0 -0.12092058790E+02  0.18232401244E+02  0.14933322475E+02  0.26488534526E+02  0.51100000000E-03 0.  1.
        -12    1    3    3    0    0  0.17860993429E+01  0.38965678125E+01  0.42467704588E+01  0.60339415734E+01  0.00000000000E+00 0.  1.
</event>
<event>
 7    1  0.5031164E-009  0.4778726E+02  0.7816164E-02  0.1312668E+00
        -11   -1    0    0    0    0  0.00000000000E+00  0.00000000000E+00  0.45593999997E+02  0.45594000000E+02  0.51100000000E-03 0.  1.
         11   -1    0    0    0    0 -0.00000000000E+00 -0.00000000000E+00 -0.45593999997E+02  0.45594000000E+02  0.51100000000E-03 0. -1.
    9900012    2    1    2    0    0  0.38785847377E+02  0.10175317122E+02 -0.16605570490E+02  0.47787262603E+02  0.19999961510E+02 0.  0.
         12    1    1    2    0    0 -0.38785847377E+02 -0.10175317122E+02  0.16605570490E+02  0.43400737397E+02  0.00000000000E+00 0. -1.
         11    1    3    3    0    0  0.86071297741E+01 -0.17200925609E+01  0.27498090158E+01  0.91979808247E+01  0.51100000000E-03 0. -1.
        -11    1    3    3    0    0  0.11776955095E+02  0.50016880699E+01 -0.12192053434E+02  0.17673701425E+02  0.51100000000E-03 0.  1.
         12    1    3    3    0    0  0.18401762508E+02  0.68937216134E+01 -0.71633260726E+01  0.20915580353E+02  0.00000000000E+00 0. -1.
</event>
<event>
 7    1  0.5031164E-009  0.4778726E+02  0.7816164E-02  0.1312668E+00
        -11   -1    0    0    0    0  0.00000000000E+00  0.00000000000E+00  0.45593999997E+02  0.45594000000E+02  0.51100000000E-03 0.  1.
         11   -1    0    0    0    0 -0.00000000000E+00 -0.00000000000E+00 -0.45593999997E+02  0.45594000000E+02  0.51100000000E-03 0. -1.
    9900012    2    1    2    0    0 -0.25097112071E+02 -0.29196352699E+02  0.20033271855E+02  0.47787262375E+02  0.19999960470E+02 0.  0.
         12    1    1    2    0    0  0.25097112071E+02  0.29196352699E+02 -0.20033271855E+02  0.43400737625E+02  0.00000000000E+00 0. -1.
         11    1    3    3    0    0 -0.14956486757E+01 -0.87297709537E+01  0.87126742859E+01  0.12424031525E+02  0.51100000000E-03 0. -1.
        -11    1    3    3    0    0 -0.12754565451E+02 -0.33925443887E+01  0.56396786801E+01  0.14352500589E+02  0.51100000000E-03 0.  1.
         12    1    3    3    0    0 -0.10846897944E+02 -0.17074037357E+02  0.56809188891E+01  0.21010730261E+02  0.00000000000E+00 0. -1.
</event>
<event>
 7    1  0.5031164E-009  0.4778728E+02  0.7816164E-02  0.1312668E+00
        -11   -1    0    0    0    0  0.00000000000E+00  0.00000000000E+00  0.45593999997E+02  0.45594000000E+02  0.51100000000E-03 0.  1.
         11   -1    0    0    0    0 -0.00000000000E+00 -0.00000000000E+00 -0.45593999997E+02  0.45594000000E+02  0.51100000000E-03 0. -1.
    9900012    2    1    2    0    0  0.41873561467E+02 -0.86126907433E+01 -0.74865874667E+01  0.47787278996E+02  0.20000036255E+02 0.  0.
         12    1    1    2    0    0 -0.41873561467E+02  0.86126907433E+01  0.74865874667E+01  0.43400721004E+02  0.00000000000E+00 0. -1.
         11    1    3    3    0    0  0.18099063592E+02 -0.34976958376E+01 -0.13036818888E+02  0.22578056295E+02  0.51100000000E-03 0. -1.
        -11    1    3    3    0    0  0.64885510232E+00  0.28887105104E+00 -0.26654192300E+00  0.75861998773E+00  0.51100000000E-03 0.  1.
         12    1    3    3    0    0  0.23125642773E+02 -0.54038659567E+01  0.58167733440E+01  0.24450602714E+02  0.00000000000E+00 0. -1.
</event>
<event>
 7    1  0.5031164E-009  0.4778728E+02  0.7816164E-02  0.1312668E+00
        -11   -1    0    0    0    0  0.00000000000E+00  0.00000000000E+00  0.45593999997E+02  0.45594000000E+02  0.51100000000E-03 0.  1.
         11   -1    0    0    0    0 -0.00000000000E+00 -0.00000000000E+00 -0.45593999997E+02  0.45594000000E+02  0.51100000000E-03 0. -1.
    9900012    2    1    2    0    0  0.23250628337E+02 -0.38704974507E+01  0.36442425889E+02  0.47787275660E+02  0.20000021044E+02 0.  0.
         12    1    1    2    0    0 -0.23250628337E+02  0.38704974507E+01 -0.36442425889E+02  0.43400724340E+02  0.00000000000E+00 0. -1.
         11    1    3    3    0    0  0.11530416998E+02 -0.10542133877E+02  0.17338477900E+02  0.23339021380E+02  0.51100000000E-03 0. -1.
        -11    1    3    3    0    0  0.77357888086E+01  0.59528193329E+01  0.79717884846E+01  0.12602694093E+02  0.51100000000E-03 0.  1.
         12    1    3    3    0    0  0.39844225298E+01  0.71881709294E+00  0.11132159504E+02  0.11845560187E+02  0.00000000000E+00 0. -1.
</event>
<event>
 7    1  0.5031164E-009  0.4778727E+02  0.7816164E-02  0.1312668E+00
        -11   -1    0    0    0    0  0.00000000000E+00  0.00000000000E+00  0.45593999997E+02  0.45594000000E+02  0.51100000000E-03 0. -1.
         11   -1    0    0    0    0 -0.00000000000E+00 -0.00000000000E+00 -0.45593999997E+02  0.45594000000E+02  0.51100000000E-03 0.  1.
    9900012    2    1    2    0    0  0.46139606228E+01  0.35116820843E+02  0.25082735020E+02  0.47787270342E+02  0.19999996797E+02 0.  0.
         12    1    1    2    0    0 -0.46139606228E+01 -0.35116820843E+02 -0.25082735020E+02  0.43400729658E+02  0.00000000000E+00 0. -1.
         11    1    3    3    0    0  0.10335314453E+02  0.17107663242E+02  0.11973562828E+02  0.23299293412E+02  0.51100000000E-03 0. -1.
        -11    1    3    3    0    0  0.21399112727E+01  0.55640287003E+01  0.39395217932E+01  0.71454508502E+01  0.51100000000E-03 0.  1.
         12    1    3    3    0    0 -0.78612651033E+01  0.12445128901E+02  0.91696503983E+01  0.17342526079E+02  0.00000000000E+00 0. -1.
</event>
<event>
 7    1  0.5031164E-009  0.4778727E+02  0.7816164E-02  0.1312668E+00
        -11   -1    0    0    0    0  0.00000000000E+00  0.00000000000E+00  0.45593999997E+02  0.45594000000E+02  0.51100000000E-03 0.  1.
         11   -1    0    0    0    0 -0.00000000000E+00 -0.00000000000E+00 -0.45593999997E+02  0.45594000000E+02  0.51100000000E-03 0. -1.
    9900012    2    1    2    0    0  0.35259790400E+01  0.35242652648E+02  0.25082785616E+02  0.47787271571E+02  0.20000002403E+02 0.  0.
         12    1    1    2    0    0 -0.35259790400E+01 -0.35242652648E+02 -0.25082785616E+02  0.43400728429E+02  0.00000000000E+00 0. -1.
         11    1    3    3    0    0 -0.14361480680E+01  0.28322678402E+01  0.13147487952E+01  0.34369793493E+01  0.51100000000E-03 0. -1.
        -11    1    3    3    0    0 -0.96467973720E+00 -0.11503244703E+01 -0.13460152022E+01  0.20163359264E+01  0.51100000000E-03 0.  1.
        -12    1    3    3    0    0  0.59268068452E+01  0.33560709278E+02  0.25114052023E+02  0.42333956296E+02  0.00000000000E+00 0.  1.
</event>
<event>
 7    1  0.5031164E-009  0.4778727E+02  0.7816164E-02  0.1312668E+00
        -11   -1    0    0    0    0  0.00000000000E+00  0.00000000000E+00  0.45593999997E+02  0.45594000000E+02  0.51100000000E-03 0.  1.
         11   -1    0    0    0    0 -0.00000000000E+00 -0.00000000000E+00 -0.45593999997E+02  0.45594000000E+02  0.51100000000E-03 0. -1.
    9900012    2    1    2    0    0 -0.41253130913E+02  0.12884441923E+02  0.39741474489E+01  0.47787268419E+02  0.19999988030E+02 0.  0.
         12    1    1    2    0    0  0.41253130913E+02 -0.12884441923E+02 -0.39741474489E+01  0.43400731581E+02  0.00000000000E+00 0. -1.
         11    1    3    3    0    0 -0.30583759901E+02  0.78445276464E+01 -0.45316617233E+01  0.31897318726E+02  0.51100000000E-03 0. -1.
        -11    1    3    3    0    0 -0.52701393173E+01 -0.91891975659E+00  0.39301375553E+01  0.66381295112E+01  0.51100000000E-03 0.  1.
         12    1    3    3    0    0 -0.53992316949E+01  0.59588340331E+01  0.45756716169E+01  0.92518201817E+01  0.00000000000E+00 0. -1.
</event>
<event>
 7    1  0.5031164E-009  0.4778727E+02  0.7816164E-02  0.1312668E+00
        -11   -1    0    0    0    0  0.00000000000E+00  0.00000000000E+00  0.45593999997E+02  0.45594000000E+02  0.51100000000E-03 0.  1.
         11   -1    0    0    0    0 -0.00000000000E+00 -0.00000000000E+00 -0.45593999997E+02  0.45594000000E+02  0.51100000000E-03 0. -1.
    9900012    2    1    2    0    0 -0.22768804753E+02  0.99138413159E+00  0.36935374967E+02  0.47787271477E+02  0.20000001974E+02 0.  0.
         12    1    1    2    0    0  0.22768804753E+02 -0.99138413159E+00 -0.36935374967E+02  0.43400728523E+02  0.00000000000E+00 0. -1.
         11    1    3    3    0    0 -0.69605779449E-01 -0.11377340328E+01 -0.19559544811E+01  0.22638555358E+01  0.51100000000E-03 0. -1.
        -11    1    3    3    0    0 -0.14000808041E+02  0.43892524591E+01  0.24334568551E+02  0.28415829915E+02  0.51100000000E-03 0.  1.
         12    1    3    3    0    0 -0.86983909320E+01 -0.22601342948E+01  0.14556760897E+02  0.17107586026E+02  0.00000000000E+00 0. -1.
</event>
<event>
 7    1  0.5031164E-009  0.4778727E+02  0.7816164E-02  0.1312668E+00
        -11   -1    0    0    0    0  0.00000000000E+00  0.00000000000E+00  0.45593999997E+02  0.45594000000E+02  0.51100000000E-03 0. -1.
         11   -1    0    0    0    0 -0.00000000000E+00 -0.00000000000E+00 -0.45593999997E+02  0.45594000000E+02  0.51100000000E-03 0.  1.
    9900012    2    1    2    0    0 -0.14281403457E+02 -0.37547892371E+02  0.16426216126E+02  0.47787270946E+02  0.19999999553E+02 0.  0.
         12    1    1    2    0    0  0.14281403457E+02  0.37547892371E+02 -0.16426216126E+02  0.43400729054E+02  0.00000000000E+00 0. -1.
         11    1    3    3    0    0  0.16597920044E+01 -0.71442632736E+01 -0.59252927279E+00  0.73584304318E+01  0.51100000000E-03 0. -1.
        -11    1    3    3    0    0 -0.12629835128E+02 -0.10471020854E+02  0.87836124323E+01  0.18609321876E+02  0.51100000000E-03 0.  1.
        -12    1    3    3    0    0 -0.33113603338E+01 -0.19932608243E+02  0.82351329663E+01  0.21819518638E+02  0.00000000000E+00 0.  1.
</event>
<event>
 7    1  0.5031164E-009  0.4778726E+02  0.7816164E-02  0.1312668E+00
        -11   -1    0    0    0    0  0.00000000000E+00  0.00000000000E+00  0.45593999997E+02  0.45594000000E+02  0.51100000000E-03 0.  1.
         11   -1    0    0    0    0 -0.00000000000E+00 -0.00000000000E+00 -0.45593999997E+02  0.45594000000E+02  0.51100000000E-03 0. -1.
    9900012    2    1    2    0    0 -0.32267476987E+02 -0.26068726827E+02  0.12761477301E+02  0.47787263919E+02  0.19999967511E+02 0.  0.
         12    1    1    2    0    0  0.32267476987E+02  0.26068726827E+02 -0.12761477301E+02  0.43400736081E+02  0.00000000000E+00 0. -1.
         11    1    3    3    0    0 -0.88690779362E+01 -0.15732731034E+02  0.72990575516E+01  0.19479620392E+02  0.51100000000E-03 0. -1.
        -11    1    3    3    0    0 -0.24299548625E+02 -0.10885108036E+02  0.47824480788E+01  0.27052272552E+02  0.51100000000E-03 0.  1.
        -12    1    3    3    0    0  0.90114957433E+00  0.54911224289E+00  0.67997167066E+00  0.12553709745E+01  0.00000000000E+00 0.  1.
</event>
<event>
 7    1  0.5031164E-009  0.4778727E+02  0.7816164E-02  0.1312668E+00
        -11   -1    0    0    0    0  0.00000000000E+00  0.00000000000E+00  0.45593999997E+02  0.45594000000E+02  0.51100000000E-03 0.  1.
         11   -1    0    0    0    0 -0.00000000000E+00 -0.00000000000E+00 -0.45593999997E+02  0.45594000000E+02  0.51100000000E-03 0. -1.
    9900012    2    1    2    0    0 -0.59174753633E+01  0.26853724563E+02  0.33578032580E+02  0.47787270634E+02  0.19999998128E+02 0.  0.
         12    1    1    2    0    0  0.59174753633E+01 -0.26853724563E+02 -0.33578032580E+02  0.43400729366E+02  0.00000000000E+00 0. -1.
         11    1    3    3    0    0 -0.23269658158E+01  0.50509152291E+01  0.24361525521E+01  0.60713552093E+01  0.51100000000E-03 0. -1.
        -11    1    3    3    0    0 -0.10141824012E+02  0.11765881327E+02  0.20240088360E+02  0.25513794990E+02  0.51100000000E-03 0.  1.
        -12    1    3    3    0    0  0.65513144645E+01  0.10036928006E+02  0.10901791668E+02  0.16202120435E+02  0.00000000000E+00 0.  1.
</event>
<event>
 7    1  0.5031164E-009  0.4778727E+02  0.7816164E-02  0.1312668E+00
        -11   -1    0    0    0    0  0.00000000000E+00  0.00000000000E+00  0.45593999997E+02  0.45594000000E+02  0.51100000000E-03 0.  1.
         11   -1    0    0    0    0 -0.00000000000E+00 -0.00000000000E+00 -0.45593999997E+02  0.45594000000E+02  0.51100000000E-03 0. -1.
    9900012    2    1    2    0    0 -0.34354830174E+02  0.18883847188E+02  0.18621740777E+02  0.47787271084E+02  0.20000000179E+02 0.  0.
         12    1    1    2    0    0  0.34354830174E+02 -0.18883847188E+02 -0.18621740777E+02  0.43400728916E+02  0.00000000000E+00 0. -1.
         11    1    3    3    0    0 -0.13470033894E+02 -0.97638075617E+00  0.79543576706E+01  0.15673765939E+02  0.51100000000E-03 0. -1.
        -11    1    3    3    0    0 -0.21567559644E+02  0.18540080606E+02  0.11153348141E+02  0.30549818213E+02  0.51100000000E-03 0.  1.
        -12    1    3    3    0    0  0.68276336358E+00  0.13201473383E+01 -0.48596503467E+00  0.15636869317E+01  0.00000000000E+00 0.  1.
</event>
<event>
 7    1  0.5031164E-009  0.4778727E+02  0.7816164E-02  0.1312668E+00
        -11   -1    0    0    0    0  0.00000000000E+00  0.00000000000E+00  0.45593999997E+02  0.45594000000E+02  0.51100000000E-03 0. -1.
         11   -1    0    0    0    0 -0.00000000000E+00 -0.00000000000E+00 -0.45593999997E+02  0.45594000000E+02  0.51100000000E-03 0.  1.
    9900012    2    1    2    0    0 -0.18655420881E+02 -0.24394299531E+02 -0.30667845485E+02  0.47787270461E+02  0.19999997339E+02 0.  0.
         12    1    1    2    0    0  0.18655420881E+02  0.24394299531E+02  0.30667845485E+02  0.43400729539E+02  0.00000000000E+00 0. -1.
         11    1    3    3    0    0 -0.70545604107E+01 -0.22076030075E+02 -0.20589931224E+02  0.31001019250E+02  0.51100000000E-03 0. -1.
        -11    1    3    3    0    0 -0.19084969415E+01 -0.30704907591E+01 -0.19094591754E+01  0.40885582644E+01  0.51100000000E-03 0.  1.
         12    1    3    3    0    0 -0.96923635290E+01  0.75222130408E+00 -0.81684550853E+01  0.12697692946E+02  0.00000000000E+00 0. -1.
</event>
<event>
 7    1  0.5031164E-009  0.4778727E+02  0.7816164E-02  0.1312668E+00
        -11   -1    0    0    0    0  0.00000000000E+00  0.00000000000E+00  0.45593999997E+02  0.45594000000E+02  0.51100000000E-03 0.  1.
         11   -1    0    0    0    0 -0.00000000000E+00 -0.00000000000E+00 -0.45593999997E+02  0.45594000000E+02  0.51100000000E-03 0. -1.
    9900012    2    1    2    0    0 -0.17809194153E+02 -0.39341465729E+02  0.43249205614E+01  0.47787271205E+02  0.20000000733E+02 0.  0.
         12    1    1    2    0    0  0.17809194153E+02  0.39341465729E+02 -0.43249205614E+01  0.43400728795E+02  0.00000000000E+00 0. -1.
         11    1    3    3    0    0 -0.28669342584E+01 -0.23355610276E+02 -0.12706049849E+01  0.23565192142E+02  0.51100000000E-03 0. -1.
        -11    1    3    3    0    0 -0.77144483321E+01 -0.64611719052E+01  0.68900473618E+01  0.12195581510E+02  0.51100000000E-03 0.  1.
         12    1    3    3    0    0 -0.72278115627E+01 -0.95246835473E+01 -0.12945218155E+01  0.12026497553E+02  0.00000000000E+00 0. -1.
</event>
<event>
 7    1  0.5031164E-009  0.4778727E+02  0.7816164E-02  0.1312668E+00
        -11   -1    0    0    0    0  0.00000000000E+00  0.00000000000E+00  0.45593999997E+02  0.45594000000E+02  0.51100000000E-03 0. -1.
         11   -1    0    0    0    0 -0.00000000000E+00 -0.00000000000E+00 -0.45593999997E+02  0.45594000000E+02  0.51100000000E-03 0.  1.
    9900012    2    1    2    0    0 -0.33341244494E+02 -0.25319468932E+02 -0.11441560336E+02  0.47787269657E+02  0.19999993673E+02 0.  0.
         12    1    1    2    0    0  0.33341244494E+02  0.25319468932E+02  0.11441560336E+02  0.43400730343E+02  0.00000000000E+00 0. -1.
         11    1    3    3    0    0 -0.20933641044E+02 -0.25798474679E+02 -0.54500237564E+01  0.33667215245E+02  0.51100000000E-03 0. -1.
        -11    1    3    3    0    0 -0.10546139439E+02 -0.72098207964E+00 -0.49142625165E+01  0.11657223021E+02  0.51100000000E-03 0.  1.
         12    1    3    3    0    0 -0.18614640116E+01  0.11999878275E+01 -0.10772740632E+01  0.24628313909E+01  0.00000000000E+00 0. -1.
</event>
<event>
 7    1  0.5031164E-009  0.4778727E+02  0.7816164E-02  0.1312668E+00
        -11   -1    0    0    0    0  0.00000000000E+00  0.00000000000E+00  0.45593999997E+02  0.45594000000E+02  0.51100000000E-03 0. -1.
         11   -1    0    0    0    0 -0.00000000000E+00 -0.00000000000E+00 -0.45593999997E+02  0.45594000000E+02  0.51100000000E-03 0.  1.
    9900012    2    1    2    0    0  0.53691898743E+01  0.40178838053E+02 -0.15506639014E+02  0.47787273270E+02  0.20000010146E+02 0.  0.
         12    1    1    2    0    0 -0.53691898743E+01 -0.40178838053E+02  0.15506639014E+02  0.43400726730E+02  0.00000000000E+00 0. -1.
         11    1    3    3    0    0  0.85001089221E+01  0.26464876828E+02 -0.17869923011E+01  0.27853813006E+02  0.51100000000E-03 0. -1.
        -11    1    3    3    0    0 -0.32392238649E+01  0.13230884082E+02 -0.12031837610E+02  0.18174542123E+02  0.51100000000E-03 0.  1.
        -12    1    3    3    0    0  0.10830481714E+00  0.48307714284E+00 -0.16878091027E+01  0.17589181409E+01  0.00000000000E+00 0.  1.
</event>
<event>
 7    1  0.5031164E-009  0.4778727E+02  0.7816164E-02  0.1312668E+00
        -11   -1    0    0    0    0  0.00000000000E+00  0.00000000000E+00  0.45593999997E+02  0.45594000000E+02  0.51100000000E-03 0.  1.
         11   -1    0    0    0    0 -0.00000000000E+00 -0.00000000000E+00 -0.45593999997E+02  0.45594000000E+02  0.51100000000E-03 0. -1.
    9900012    2    1    2    0    0  0.19025311622E+02  0.33855033877E+02  0.19377759388E+02  0.47787270052E+02  0.19999995475E+02 0.  0.
         12    1    1    2    0    0 -0.19025311622E+02 -0.33855033877E+02 -0.19377759388E+02  0.43400729948E+02  0.00000000000E+00 0. -1.
         11    1    3    3    0    0  0.87006067699E+00  0.88415628625E+01  0.11061595407E+02  0.14187640136E+02  0.51100000000E-03 0. -1.
        -11    1    3    3    0    0  0.26550119979E+01  0.85717350716E+01  0.61947559871E+01  0.10904069554E+02  0.51100000000E-03 0.  1.
         12    1    3    3    0    0  0.15500238947E+02  0.16441735943E+02  0.21214079938E+01  0.22695560361E+02  0.00000000000E+00 0. -1.
</event>
<event>
 7    1  0.5031164E-009  0.4778728E+02  0.7816164E-02  0.1312668E+00
        -11   -1    0    0    0    0  0.00000000000E+00  0.00000000000E+00  0.45593999997E+02  0.45594000000E+02  0.51100000000E-03 0.  1.
         11   -1    0    0    0    0 -0.00000000000E+00 -0.00000000000E+00 -0.45593999997E+02  0.45594000000E+02  0.51100000000E-03 0. -1.
    9900012    2    1    2    0    0  0.16172324602E+02  0.29891275883E+02  0.26992414435E+02  0.47787275421E+02  0.20000019954E+02 0.  0.
         12    1    1    2    0    0 -0.16172324602E+02 -0.29891275883E+02 -0.26992414435E+02  0.43400724579E+02  0.00000000000E+00 0. -1.
         11    1    3    3    0    0  0.72384562852E+01  0.24110018109E+02  0.13574634665E+02  0.28599981279E+02  0.51100000000E-03 0. -1.
        -11    1    3    3    0    0  0.40557307280E+00  0.48751138457E+01  0.31923984284E+01  0.58414580811E+01  0.51100000000E-03 0.  1.
         12    1    3    3    0    0  0.85282952439E+01  0.90614392879E+00  0.10225381341E+02  0.13345836061E+02  0.00000000000E+00 0. -1.
</event>
<event>
 7    1  0.5031164E-009  0.4778727E+02  0.7816164E-02  0.1312668E+00
        -11   -1    0    0    0    0  0.00000000000E+00  0.00000000000E+00  0.45593999997E+02  0.45594000000E+02  0.51100000000E-03 0.  1.
         11   -1    0    0    0    0 -0.00000000000E+00 -0.00000000000E+00 -0.45593999997E+02  0.45594000000E+02  0.51100000000E-03 0. -1.
    9900012    2    1    2    0    0  0.35065052755E+02 -0.16667582071E+02  0.19397346217E+02  0.47787271238E+02  0.20000000882E+02 0.  0.
         12    1    1    2    0    0 -0.35065052755E+02  0.16667582071E+02 -0.19397346217E+02  0.43400728762E+02  0.00000000000E+00 0. -1.
         11    1    3    3    0    0  0.11364708338E+02 -0.92220874453E+00  0.58905109167E+01  0.12833751739E+02  0.51100000000E-03 0. -1.
        -11    1    3    3    0    0  0.10263928960E+02 -0.85601055270E+01 -0.16443139823E+01  0.13465786760E+02  0.51100000000E-03 0.  1.
        -12    1    3    3    0    0  0.13436415457E+02 -0.71852677998E+01  0.15151149282E+02  0.21487732739E+02  0.00000000000E+00 0.  1.
</event>
<event>
 7    1  0.5031164E-009  0.4778727E+02  0.7816164E-02  0.1312668E+00
        -11   -1    0    0    0    0  0.00000000000E+00  0.00000000000E+00  0.45593999997E+02  0.45594000000E+02  0.51100000000E-03 0.  1.
         11   -1    0    0    0    0 -0.00000000000E+00 -0.00000000000E+00 -0.45593999997E+02  0.45594000000E+02  0.51100000000E-03 0. -1.
    9900012    2    1    2    0    0  0.26129354499E+02  0.33582456666E+02 -0.85497710652E+01  0.47787272500E+02  0.20000006636E+02 0.  0.
         12    1    1    2    0    0 -0.26129354499E+02 -0.33582456666E+02  0.85497710652E+01  0.43400727500E+02  0.00000000000E+00 0. -1.
         11    1    3    3    0    0 -0.26780453966E+01  0.28065338739E+01 -0.19219728078E+01  0.43292654419E+01  0.51100000000E-03 0. -1.
        -11    1    3    3    0    0  0.11949912967E+02  0.13476627621E+02  0.12403087691E+01  0.18054314667E+02  0.51100000000E-03 0.  1.
         12    1    3    3    0    0  0.16857486929E+02  0.17299295171E+02 -0.78681070265E+01  0.25403692392E+02  0.00000000000E+00 0. -1.
</event>
<event>
 7    1  0.5031164E-009  0.4778728E+02  0.7816164E-02  0.1312668E+00
        -11   -1    0    0    0    0  0.00000000000E+00  0.00000000000E+00  0.45593999997E+02  0.45594000000E+02  0.51100000000E-03 0.  1.
         11   -1    0    0    0    0 -0.00000000000E+00 -0.00000000000E+00 -0.45593999997E+02  0.45594000000E+02  0.51100000000E-03 0. -1.
    9900012    2    1    2    0    0  0.26699643746E+02 -0.24954713193E+02  0.23409698021E+02  0.47787278253E+02  0.20000032865E+02 0.  0.
         12    1    1    2    0    0 -0.26699643746E+02  0.24954713193E+02 -0.23409698021E+02  0.43400721747E+02  0.00000000000E+00 0. -1.
         11    1    3    3    0    0  0.56416371366E+01 -0.20412325858E+00  0.10159075455E+02  0.11622243770E+02  0.51100000000E-03 0. -1.
        -11    1    3    3    0    0  0.19818240527E+02 -0.20378874926E+02  0.86852452484E+01  0.29723638508E+02  0.51100000000E-03 0.  1.
         12    1    3    3    0    0  0.12397660827E+01 -0.43717150083E+01  0.45653773176E+01  0.64413959749E+01  0.00000000000E+00 0. -1.
</event>
<event>
 7    1  0.5031164E-009  0.4778727E+02  0.7816164E-02  0.1312668E+00
        -11   -1    0    0    0    0  0.00000000000E+00  0.00000000000E+00  0.45593999997E+02  0.45594000000E+02  0.51100000000E-03 0. -1.
         11   -1    0    0    0    0 -0.00000000000E+00 -0.00000000000E+00 -0.45593999997E+02  0.45594000000E+02  0.51100000000E-03 0.  1.
    9900012    2    1    2    0    0  0.10380490442E+02  0.19918649603E+02 -0.37136452889E+02  0.47787270547E+02  0.19999997734E+02 0.  0.
         12    1    1    2    0    0 -0.10380490442E+02 -0.19918649603E+02  0.37136452889E+02  0.43400729453E+02  0.00000000000E+00 0. -1.
         11    1    3    3    0    0  0.32014112266E+01 -0.15460879776E+01 -0.46505271665E+01  0.58537872411E+01  0.51100000000E-03 0. -1.
        -11    1    3    3    0    0  0.79769338260E+01  0.22366288692E+02 -0.32973881059E+02  0.40634457981E+02  0.51100000000E-03 0.  1.
        -12    1    3    3    0    0 -0.79785461078E+00 -0.90155111069E+00  0.48795533621E+00  0.12990253251E+01  0.00000000000E+00 0.  1.
</event>
<event>
 7    1  0.5031164E-009  0.4778727E+02  0.7816164E-02  0.1312668E+00
        -11   -1    0    0    0    0  0.00000000000E+00  0.00000000000E+00  0.45593999997E+02  0.45594000000E+02  0.51100000000E-03 0. -1.
         11   -1    0    0    0    0 -0.00000000000E+00 -0.00000000000E+00 -0.45593999997E+02  0.45594000000E+02  0.51100000000E-03 0.  1.
    9900012    2    1    2    0    0 -0.32034743873E+02  0.21327369988E+02  0.20063444286E+02  0.47787270487E+02  0.19999997461E+02 0.  0.
         12    1    1    2    0    0  0.32034743873E+02 -0.21327369988E+02 -0.20063444286E+02  0.43400729513E+02  0.00000000000E+00 0. -1.
         11    1    3    3    0    0 -0.37517240799E+01  0.10571278115E+02  0.11044837426E+02  0.15742165943E+02  0.51100000000E-03 0. -1.
        -11    1    3    3    0    0 -0.17902210744E+02  0.94864834900E+01  0.66305993865E+01  0.21317771155E+02  0.51100000000E-03 0.  1.
         12    1    3    3    0    0 -0.10380809049E+02  0.12696083830E+01  0.23880074739E+01  0.10727333390E+02  0.00000000000E+00 0. -1.
</event>
<event>
 7    1  0.5031164E-009  0.4778726E+02  0.7816164E-02  0.1312668E+00
        -11   -1    0    0    0    0  0.00000000000E+00  0.00000000000E+00  0.45593999997E+02  0.45594000000E+02  0.51100000000E-03 0.  1.
         11   -1    0    0    0    0 -0.00000000000E+00 -0.00000000000E+00 -0.45593999997E+02  0.45594000000E+02  0.51100000000E-03 0. -1.
    9900012    2    1    2    0    0 -0.35395029674E+02 -0.13122449864E+00  0.25115716199E+02  0.47787256392E+02  0.19999933195E+02 0.  0.
         12    1    1    2    0    0  0.35395029674E+02  0.13122449864E+00 -0.25115716199E+02  0.43400743608E+02  0.00000000000E+00 0. -1.
         11    1    3    3    0    0 -0.75441075768E+01 -0.59955803771E+00  0.16542400303E+02  0.18191317627E+02  0.51100000000E-03 0. -1.
        -11    1    3    3    0    0 -0.21569892594E+02 -0.11035782287E+01  0.82270235192E+01  0.23111946427E+02  0.51100000000E-03 0.  1.
         12    1    3    3    0    0 -0.62810295034E+01  0.15719117678E+01  0.34629237721E+00  0.64839923380E+01  0.00000000000E+00 0. -1.
</event>
<event>
 7    1  0.5031164E-009  0.4778727E+02  0.7816164E-02  0.1312668E+00
        -11   -1    0    0    0    0  0.00000000000E+00  0.00000000000E+00  0.45593999997E+02  0.45594000000E+02  0.51100000000E-03 0. -1.
         11   -1    0    0    0    0 -0.00000000000E+00 -0.00000000000E+00 -0.45593999997E+02  0.45594000000E+02  0.51100000000E-03 0.  1.
    9900012    2    1    2    0    0  0.37381966806E+02 -0.15512060966E+02 -0.15671250941E+02  0.47787267475E+02  0.19999983725E+02 0.  0.
         12    1    1    2    0    0 -0.37381966806E+02  0.15512060966E+02  0.15671250941E+02  0.43400732525E+02  0.00000000000E+00 0. -1.
         11    1    3    3    0    0  0.90183106314E+01 -0.35431650117E+00 -0.72482989519E+01  0.11575547710E+02  0.51100000000E-03 0. -1.
        -11    1    3    3    0    0  0.93821358682E+01 -0.12255643311E+02 -0.70271835350E+01  0.16958967395E+02  0.51100000000E-03 0.  1.
        -12    1    3    3    0    0  0.18981520306E+02 -0.29021011537E+01 -0.13957684538E+01  0.19252752370E+02  0.00000000000E+00 0.  1.
</event>
<event>
 7    1  0.5031164E-009  0.4778727E+02  0.7816164E-02  0.1312668E+00
        -11   -1    0    0    0    0  0.00000000000E+00  0.00000000000E+00  0.45593999997E+02  0.45594000000E+02  0.51100000000E-03 0.  1.
         11   -1    0    0    0    0 -0.00000000000E+00 -0.00000000000E+00 -0.45593999997E+02  0.45594000000E+02  0.51100000000E-03 0. -1.
    9900012    2    1    2    0    0 -0.19226153610E+02  0.13486505883E+02  0.36497843318E+02  0.47787269702E+02  0.19999993878E+02 0.  0.
         12    1    1    2    0    0  0.19226153610E+02 -0.13486505883E+02 -0.36497843318E+02  0.43400730298E+02  0.00000000000E+00 0. -1.
         11    1    3    3    0    0 -0.85905659983E+01  0.66253256017E+01  0.38582546262E+01  0.11514290795E+02  0.51100000000E-03 0. -1.
        -11    1    3    3    0    0 -0.27157258530E+01  0.62483732896E+01  0.21762957418E+02  0.22804465604E+02  0.51100000000E-03 0.  1.
         12    1    3    3    0    0 -0.79198617592E+01  0.61280699146E+00  0.10876631274E+02  0.13468513302E+02  0.00000000000E+00 0. -1.
</event>
<event>
 7    1  0.5031164E-009  0.4778725E+02  0.7816164E-02  0.1312668E+00
        -11   -1    0    0    0    0  0.00000000000E+00  0.00000000000E+00  0.45593999997E+02  0.45594000000E+02  0.51100000000E-03 0.  1.
         11   -1    0    0    0    0 -0.00000000000E+00 -0.00000000000E+00 -0.45593999997E+02  0.45594000000E+02  0.51100000000E-03 0. -1.
    9900012    2    1    2    0    0  0.13981431250E+02 -0.40999109881E+02 -0.26865162604E+01  0.47787253457E+02  0.19999919813E+02 0.  0.
         12    1    1    2    0    0 -0.13981431250E+02  0.40999109881E+02  0.26865162604E+01  0.43400746543E+02  0.00000000000E+00 0. -1.
         11    1    3    3    0    0  0.35492269371E+00 -0.70900541862E+00  0.40943085612E+01  0.41703742826E+01  0.51100000000E-03 0. -1.
        -11    1    3    3    0    0  0.11245700897E+02 -0.37785079690E+02 -0.50296823119E+01  0.39742618689E+02  0.51100000000E-03 0.  1.
        -12    1    3    3    0    0  0.23808076593E+01 -0.25050247728E+01 -0.17511425096E+01  0.38742604858E+01  0.00000000000E+00 0.  1.
</event>
<event>
 7    1  0.5031164E-009  0.4778727E+02  0.7816164E-02  0.1312668E+00
        -11   -1    0    0    0    0  0.00000000000E+00  0.00000000000E+00  0.45593999997E+02  0.45594000000E+02  0.51100000000E-03 0.  1.
         11   -1    0    0    0    0 -0.00000000000E+00 -0.00000000000E+00 -0.45593999997E+02  0.45594000000E+02  0.51100000000E-03 0. -1.
    9900012    2    1    2    0    0  0.57324759905E+01 -0.36616840959E+02  0.22582495363E+02  0.47787269365E+02  0.19999992345E+02 0.  0.
         12    1    1    2    0    0 -0.57324759905E+01  0.36616840959E+02 -0.22582495363E+02  0.43400730635E+02  0.00000000000E+00 0. -1.
         11    1    3    3    0    0 -0.15083261600E+01 -0.19573285496E+02  0.15505339545E+01  0.19692453091E+02  0.51100000000E-03 0. -1.
        -11    1    3    3    0    0  0.44598134947E+01 -0.82876011071E+01  0.98603200536E+01  0.13630853984E+02  0.51100000000E-03 0.  1.
         12    1    3    3    0    0  0.27809886559E+01 -0.87559543555E+01  0.11171641355E+02  0.14463962291E+02  0.00000000000E+00 0. -1.
</event>
<event>
 7    1  0.5031164E-009  0.4778729E+02  0.7816164E-02  0.1312668E+00
        -11   -1    0    0    0    0  0.00000000000E+00  0.00000000000E+00  0.45593999997E+02  0.45594000000E+02  0.51100000000E-03 0. -1.
         11   -1    0    0    0    0 -0.00000000000E+00 -0.00000000000E+00 -0.45593999997E+02  0.45594000000E+02  0.51100000000E-03 0.  1.
    9900012    2    1    2    0    0 -0.12490729101E+02 -0.29894841862E+01 -0.41456797796E+02  0.47787292486E+02  0.20000097761E+02 0.  0.
         12    1    1    2    0    0  0.12490729101E+02  0.29894841862E+01  0.41456797796E+02  0.43400707514E+02  0.00000000000E+00 0. -1.
         11    1    3    3    0    0 -0.16141354133E+01 -0.68529687202E+01 -0.76350427103E+01  0.10385686827E+02  0.51100000000E-03 0. -1.
        -11    1    3    3    0    0 -0.36618261715E+01 -0.28238028830E+01 -0.19405088892E+02  0.19948441263E+02  0.51100000000E-03 0.  1.
         12    1    3    3    0    0 -0.72147675166E+01  0.66872874170E+01 -0.14416666194E+02  0.17453164397E+02  0.00000000000E+00 0. -1.
</event>
<event>
 7    1  0.5031164E-009  0.4778727E+02  0.7816164E-02  0.1312668E+00
        -11   -1    0    0    0    0  0.00000000000E+00  0.00000000000E+00  0.45593999997E+02  0.45594000000E+02  0.51100000000E-03 0.  1.
         11   -1    0    0    0    0 -0.00000000000E+00 -0.00000000000E+00 -0.45593999997E+02  0.45594000000E+02  0.51100000000E-03 0. -1.
    9900012    2    1    2    0    0 -0.36610738869E+02 -0.32254145450E+01 -0.23084058923E+02  0.47787271022E+02  0.19999999896E+02 0.  0.
         12    1    1    2    0    0  0.36610738869E+02  0.32254145450E+01  0.23084058923E+02  0.43400728978E+02  0.00000000000E+00 0. -1.
         11    1    3    3    0    0  0.10790263456E+01 -0.32434598791E+01  0.16985243820E+00  0.34224523304E+01  0.51100000000E-03 0. -1.
        -11    1    3    3    0    0 -0.24308097752E+02 -0.10438655566E+01 -0.15797479041E+02  0.29009198816E+02  0.51100000000E-03 0.  1.
         12    1    3    3    0    0 -0.13381667462E+02  0.10619108907E+01 -0.74564323201E+01  0.15355619875E+02  0.00000000000E+00 0. -1.
</event>
<event>
 7    1  0.5031164E-009  0.4778727E+02  0.7816164E-02  0.1312668E+00
        -11   -1    0    0    0    0  0.00000000000E+00  0.00000000000E+00  0.45593999997E+02  0.45594000000E+02  0.51100000000E-03 0.  1.
         11   -1    0    0    0    0 -0.00000000000E+00 -0.00000000000E+00 -0.45593999997E+02  0.45594000000E+02  0.51100000000E-03 0. -1.
    9900012    2    1    2    0    0 -0.39676192356E+01  0.59262345816E+01  0.42810761728E+02  0.47787267536E+02  0.19999984003E+02 0.  0.
         12    1    1    2    0    0  0.39676192356E+01 -0.59262345816E+01 -0.42810761728E+02  0.43400732464E+02  0.00000000000E+00 0. -1.
         11    1    3    3    0    0 -0.13783306357E+01 -0.38533007773E+01  0.20738469698E+02  0.21138397477E+02  0.51100000000E-03 0. -1.
        -11    1    3    3    0    0 -0.29637250305E+01  0.10759363324E+02  0.22791427877E+02  0.25377091049E+02  0.51100000000E-03 0.  1.
        -12    1    3    3    0    0  0.37443643056E+00 -0.97982796535E+00 -0.71913584701E+00  0.12717790094E+01  0.00000000000E+00 0.  1.
</event>
<event>
 7    1  0.5031164E-009  0.4778727E+02  0.7816164E-02  0.1312668E+00
        -11   -1    0    0    0    0  0.00000000000E+00  0.00000000000E+00  0.45593999997E+02  0.45594000000E+02  0.51100000000E-03 0.  1.
         11   -1    0    0    0    0 -0.00000000000E+00 -0.00000000000E+00 -0.45593999997E+02  0.45594000000E+02  0.51100000000E-03 0. -1.
    9900012    2    1    2    0    0  0.39303806601E+01  0.15651487830E+02  0.40289037667E+02  0.47787268214E+02  0.19999987093E+02 0.  0.
         12    1    1    2    0    0 -0.39303806601E+01 -0.15651487830E+02 -0.40289037667E+02  0.43400731786E+02  0.00000000000E+00 0. -1.
         11    1    3    3    0    0  0.18385446932E+01  0.10143692712E+02  0.57531657107E+01  0.11805662387E+02  0.51100000000E-03 0. -1.
        -11    1    3    3    0    0  0.35346761555E+01  0.70263266475E+01  0.29426656135E+02  0.30459666663E+02  0.51100000000E-03 0.  1.
         12    1    3    3    0    0 -0.14428401887E+01 -0.15185315295E+01  0.51092158216E+01  0.55219391637E+01  0.00000000000E+00 0. -1.
</event>
<event>
 7    1  0.5798626E-009  0.4778728E+02  0.7816164E-02  0.1312668E+00
        -11   -1    0    0    0    0  0.00000000000E+00  0.00000000000E+00  0.45593999997E+02  0.45594000000E+02  0.51100000000E-03 0. -1.
         11   -1    0    0    0    0 -0.00000000000E+00 -0.00000000000E+00 -0.45593999997E+02  0.45594000000E+02  0.51100000000E-03 0.  1.
    9900012    2    1    2    0    0 -0.20175027415E+02  0.26911849333E+02 -0.27428880286E+02  0.47787276049E+02  0.20000022819E+02 0.  0.
         12    1    1    2    0    0  0.20175027415E+02 -0.26911849333E+02  0.27428880286E+02  0.43400723951E+02  0.00000000000E+00 0. -1.
         11    1    3    3    0    0 -0.31731678015E+01  0.21118804762E+01 -0.42946721837E+00  0.38358148281E+01  0.51100000000E-03 0. -1.
        -11    1    3    3    0    0 -0.16623208880E+02  0.90660890859E+01 -0.15203967324E+02  0.24283444307E+02  0.51100000000E-03 0.  1.
        -12    1    3    3    0    0 -0.37865073308E+00  0.15733879771E+02 -0.11795445744E+02  0.19668016914E+02  0.00000000000E+00 0.  1.
</event>
<event>
 7    1  0.5031164E-009  0.4778729E+02  0.7816164E-02  0.1312668E+00
        -11   -1    0    0    0    0  0.00000000000E+00  0.00000000000E+00  0.45593999997E+02  0.45594000000E+02  0.51100000000E-03 0.  1.
         11   -1    0    0    0    0 -0.00000000000E+00 -0.00000000000E+00 -0.45593999997E+02  0.45594000000E+02  0.51100000000E-03 0. -1.
    9900012    2    1    2    0    0  0.23394555438E+02 -0.18478865009E+02  0.31541217008E+02  0.47787285184E+02  0.20000064467E+02 0.  0.
         12    1    1    2    0    0 -0.23394555438E+02  0.18478865009E+02 -0.31541217008E+02  0.43400714816E+02  0.00000000000E+00 0. -1.
         11    1    3    3    0    0  0.27693060755E+01 -0.55311192900E+01  0.82370609647E+01  0.10301044138E+02  0.51100000000E-03 0. -1.
        -11    1    3    3    0    0  0.17038027957E+02 -0.15565179862E+02  0.23635330750E+02  0.33033287465E+02  0.51100000000E-03 0.  1.
         12    1    3    3    0    0  0.35872214054E+01  0.26174341429E+01 -0.33117470630E+00  0.44529535805E+01  0.00000000000E+00 0. -1.
</event>
<event>
 7    1  0.5031164E-009  0.4778728E+02  0.7816164E-02  0.1312668E+00
        -11   -1    0    0    0    0  0.00000000000E+00  0.00000000000E+00  0.45593999997E+02  0.45594000000E+02  0.51100000000E-03 0.  1.
         11   -1    0    0    0    0 -0.00000000000E+00 -0.00000000000E+00 -0.45593999997E+02  0.45594000000E+02  0.51100000000E-03 0. -1.
    9900012    2    1    2    0    0  0.33894982728E+02  0.23866106944E+02  0.12851517136E+02  0.47787281025E+02  0.20000045506E+02 0.  0.
         12    1    1    2    0    0 -0.33894982728E+02 -0.23866106944E+02 -0.12851517136E+02  0.43400718975E+02  0.00000000000E+00 0. -1.
         11    1    3    3    0    0 -0.60965767094E+00  0.41496631431E+01  0.91258166798E-01  0.41952014244E+01  0.51100000000E-03 0. -1.
        -11    1    3    3    0    0  0.31979072627E+02  0.14795452463E+02  0.14014170377E+02  0.37920488806E+02  0.51100000000E-03 0.  1.
        -12    1    3    3    0    0  0.25255677724E+01  0.49209913381E+01 -0.12539114084E+01  0.56715907948E+01  0.00000000000E+00 0.  1.
</event>
<event>
 7    1  0.5031164E-009  0.4778727E+02  0.7816164E-02  0.1312668E+00
        -11   -1    0    0    0    0  0.00000000000E+00  0.00000000000E+00  0.45593999997E+02  0.45594000000E+02  0.51100000000E-03 0.  1.
         11   -1    0    0    0    0 -0.00000000000E+00 -0.00000000000E+00 -0.45593999997E+02  0.45594000000E+02  0.51100000000E-03 0. -1.
    9900012    2    1    2    0    0  0.17717960786E+02 -0.31191136080E+02  0.24429704583E+02  0.47787267628E+02  0.19999984425E+02 0.  0.
         12    1    1    2    0    0 -0.17717960786E+02  0.31191136080E+02 -0.24429704583E+02  0.43400732372E+02  0.00000000000E+00 0. -1.
         11    1    3    3    0    0  0.49453512504E+01 -0.34407751184E+01  0.11172276816E+02  0.12693116320E+02  0.51100000000E-03 0. -1.
        -11    1    3    3    0    0  0.47354573010E+01 -0.25207918155E+01  0.50626285709E+01  0.73762562004E+01  0.51100000000E-03 0.  1.
         12    1    3    3    0    0  0.80371522346E+01 -0.25229569147E+02  0.81947991961E+01  0.27717895108E+02  0.00000000000E+00 0. -1.
</event>
<event>
 7    1  0.5031164E-009  0.4778727E+02  0.7816164E-02  0.1312668E+00
        -11   -1    0    0    0    0  0.00000000000E+00  0.00000000000E+00  0.45593999997E+02  0.45594000000E+02  0.51100000000E-03 0.  1.
         11   -1    0    0    0    0 -0.00000000000E+00 -0.00000000000E+00 -0.45593999997E+02  0.45594000000E+02  0.51100000000E-03 0. -1.
    9900012    2    1    2    0    0 -0.10112096798E+02 -0.18258083004E+02  0.38052748621E+02  0.47787265280E+02  0.19999973718E+02 0.  0.
         12    1    1    2    0    0  0.10112096798E+02  0.18258083004E+02 -0.38052748621E+02  0.43400734720E+02  0.00000000000E+00 0. -1.
         11    1    3    3    0    0 -0.14629401130E+01  0.19526655103E+01  0.39112230482E+01  0.46098549178E+01  0.51100000000E-03 0. -1.
        -11    1    3    3    0    0 -0.37388488273E+01 -0.20660883303E+02  0.30582049132E+02  0.37095994646E+02  0.51100000000E-03 0.  1.
        -12    1    3    3    0    0 -0.49103078573E+01  0.45013478880E+00  0.35594764415E+01  0.60814157167E+01  0.00000000000E+00 0.  1.
</event>
<event>
 7    1  0.5031164E-009  0.4778729E+02  0.7816164E-02  0.1312668E+00
        -11   -1    0    0    0    0  0.00000000000E+00  0.00000000000E+00  0.45593999997E+02  0.45594000000E+02  0.51100000000E-03 0.  1.
         11   -1    0    0    0    0 -0.00000000000E+00 -0.00000000000E+00 -0.45593999997E+02  0.45594000000E+02  0.51100000000E-03 0. -1.
    9900012    2    1    2    0    0 -0.90415815838E+01  0.29244957299E+02  0.30766923043E+02  0.47787294032E+02  0.20000104810E+02 0.  0.
         12    1    1    2    0    0  0.90415815838E+01 -0.29244957299E+02 -0.30766923043E+02  0.43400705968E+02  0.00000000000E+00 0. -1.
         11    1    3    3    0    0 -0.44194822841E+01  0.16768474114E+02  0.10519318176E+02  0.20282248468E+02  0.51100000000E-03 0. -1.
        -11    1    3    3    0    0  0.36721535534E+01  0.21159738382E+01  0.95870314674E+01  0.10482043199E+02  0.51100000000E-03 0.  1.
        -12    1    3    3    0    0 -0.82942528531E+01  0.10360509346E+02  0.10660573400E+02  0.17023002365E+02  0.00000000000E+00 0.  1.
</event>
<event>
 7    1  0.5031164E-009  0.4778727E+02  0.7816164E-02  0.1312668E+00
        -11   -1    0    0    0    0  0.00000000000E+00  0.00000000000E+00  0.45593999997E+02  0.45594000000E+02  0.51100000000E-03 0. -1.
         11   -1    0    0    0    0 -0.00000000000E+00 -0.00000000000E+00 -0.45593999997E+02  0.45594000000E+02  0.51100000000E-03 0.  1.
    9900012    2    1    2    0    0  0.40686364368E+02 -0.55912720770E+01 -0.14034995041E+02  0.47787266656E+02  0.19999979993E+02 0.  0.
         12    1    1    2    0    0 -0.40686364368E+02  0.55912720770E+01  0.14034995041E+02  0.43400733344E+02  0.00000000000E+00 0. -1.
         11    1    3    3    0    0  0.26184051965E+02 -0.62037206540E+01 -0.13766274869E+02  0.30225834170E+02  0.51100000000E-03 0. -1.
        -11    1    3    3    0    0  0.46536097991E+01 -0.17634487423E+01 -0.43783565849E+01  0.66284117460E+01  0.51100000000E-03 0.  1.
         12    1    3    3    0    0  0.98487026043E+01  0.23758973193E+01  0.41096364125E+01  0.10933020740E+02  0.00000000000E+00 0. -1.
</event>
<event>
 7    1  0.5031164E-009  0.4778728E+02  0.7816164E-02  0.1312668E+00
        -11   -1    0    0    0    0  0.00000000000E+00  0.00000000000E+00  0.45593999997E+02  0.45594000000E+02  0.51100000000E-03 0. -1.
         11   -1    0    0    0    0 -0.00000000000E+00 -0.00000000000E+00 -0.45593999997E+02  0.45594000000E+02  0.51100000000E-03 0.  1.
    9900012    2    1    2    0    0  0.77211315679E+01  0.12385396008E+01 -0.42690428695E+02  0.47787279324E+02  0.20000037751E+02 0.  0.
         12    1    1    2    0    0 -0.77211315679E+01 -0.12385396008E+01  0.42690428695E+02  0.43400720676E+02  0.00000000000E+00 0. -1.
         11    1    3    3    0    0  0.57914494311E+01  0.18281432803E+01 -0.18136318968E+02  0.19126135530E+02  0.51100000000E-03 0.  1.
        -11    1    3    3    0    0  0.80394708420E+01 -0.22169871410E+01 -0.15753053462E+02  0.17824332162E+02  0.51100000000E-03 0. -1.
         12    1    3    3    0    0 -0.61097887051E+01  0.16273834616E+01 -0.88010562652E+01  0.10836811631E+02  0.00000000000E+00 0. -1.
</event>
<event>
 7    1  0.5031164E-009  0.4778727E+02  0.7816164E-02  0.1312668E+00
        -11   -1    0    0    0    0  0.00000000000E+00  0.00000000000E+00  0.45593999997E+02  0.45594000000E+02  0.51100000000E-03 0. -1.
         11   -1    0    0    0    0 -0.00000000000E+00 -0.00000000000E+00 -0.45593999997E+02  0.45594000000E+02  0.51100000000E-03 0.  1.
    9900012    2    1    2    0    0 -0.30654580419E+02 -0.27435264197E+01 -0.30600539072E+02  0.47787271557E+02  0.20000002335E+02 0.  0.
         12    1    1    2    0    0  0.30654580419E+02  0.27435264197E+01  0.30600539072E+02  0.43400728443E+02  0.00000000000E+00 0. -1.
         11    1    3    3    0    0 -0.19417303783E+02  0.62980580874E+01 -0.22902203025E+02  0.30679115463E+02  0.51100000000E-03 0.  1.
        -11    1    3    3    0    0 -0.11074547806E+02 -0.71544612722E+01 -0.75849609665E+01  0.15210639642E+02  0.51100000000E-03 0. -1.
         12    1    3    3    0    0 -0.16272883028E+00 -0.18871232349E+01 -0.11337508037E+00  0.18975164517E+01  0.00000000000E+00 0. -1.
</event>
<event>
 7    1  0.5031164E-009  0.4778727E+02  0.7816164E-02  0.1312668E+00
        -11   -1    0    0    0    0  0.00000000000E+00  0.00000000000E+00  0.45593999997E+02  0.45594000000E+02  0.51100000000E-03 0.  1.
         11   -1    0    0    0    0 -0.00000000000E+00 -0.00000000000E+00 -0.45593999997E+02  0.45594000000E+02  0.51100000000E-03 0. -1.
    9900012    2    1    2    0    0  0.39845126353E+02  0.13057629878E+02 -0.11202112574E+02  0.47787272838E+02  0.20000008177E+02 0.  0.
         12    1    1    2    0    0 -0.39845126353E+02 -0.13057629878E+02  0.11202112574E+02  0.43400727162E+02  0.00000000000E+00 0. -1.
         11    1    3    3    0    0 -0.65899007206E+00  0.33835695951E+01 -0.11012680761E+01  0.36187847071E+01  0.51100000000E-03 0. -1.
        -11    1    3    3    0    0  0.22377482860E+02  0.89235077472E+01 -0.16300170745E+01  0.24146173311E+02  0.51100000000E-03 0.  1.
         12    1    3    3    0    0  0.18126633565E+02  0.75055253571E+00 -0.84708274232E+01  0.20022314819E+02  0.00000000000E+00 0. -1.
</event>
<event>
 7    1  0.5031164E-009  0.4778726E+02  0.7816164E-02  0.1312668E+00
        -11   -1    0    0    0    0  0.00000000000E+00  0.00000000000E+00  0.45593999997E+02  0.45594000000E+02  0.51100000000E-03 0.  1.
         11   -1    0    0    0    0 -0.00000000000E+00 -0.00000000000E+00 -0.45593999997E+02  0.45594000000E+02  0.51100000000E-03 0. -1.
    9900012    2    1    2    0    0  0.41412885647E+00 -0.42513054942E+02  0.87231204321E+01  0.47787260683E+02  0.19999952758E+02 0.  0.
         12    1    1    2    0    0 -0.41412885647E+00  0.42513054942E+02 -0.87231204321E+01  0.43400739317E+02  0.00000000000E+00 0. -1.
         11    1    3    3    0    0 -0.10771962683E+01 -0.25827777429E+02  0.10405984675E+02  0.27866089716E+02  0.51100000000E-03 0.  1.
        -11    1    3    3    0    0  0.90394307890E+00  0.13206664412E+01  0.70366953478E+00  0.17482631421E+01  0.51100000000E-03 0. -1.
         12    1    3    3    0    0  0.58738204585E+00 -0.18005943954E+02 -0.23865337781E+01  0.18172907825E+02  0.00000000000E+00 0. -1.
</event>
<event>
 7    1  0.5031164E-009  0.4778727E+02  0.7816164E-02  0.1312668E+00
        -11   -1    0    0    0    0  0.00000000000E+00  0.00000000000E+00  0.45593999997E+02  0.45594000000E+02  0.51100000000E-03 0.  1.
         11   -1    0    0    0    0 -0.00000000000E+00 -0.00000000000E+00 -0.45593999997E+02  0.45594000000E+02  0.51100000000E-03 0. -1.
    9900012    2    1    2    0    0 -0.40221401386E+02  0.14458256313E+02 -0.75379865953E+01  0.47787267898E+02  0.19999985654E+02 0.  0.
         12    1    1    2    0    0  0.40221401386E+02 -0.14458256313E+02  0.75379865953E+01  0.43400732102E+02  0.00000000000E+00 0. -1.
         11    1    3    3    0    0 -0.13761851943E+02  0.19802657489E+01  0.46145822040E+01  0.14649381916E+02  0.51100000000E-03 0. -1.
        -11    1    3    3    0    0 -0.16231944768E+02  0.84534235593E+01 -0.24264369052E+01  0.18461419153E+02  0.51100000000E-03 0.  1.
         12    1    3    3    0    0 -0.10227604675E+02  0.40245670046E+01 -0.97261318941E+01  0.14676466829E+02  0.00000000000E+00 0. -1.
</event>
<event>
 7    1  0.5031164E-009  0.4778727E+02  0.7816164E-02  0.1312668E+00
        -11   -1    0    0    0    0  0.00000000000E+00  0.00000000000E+00  0.45593999997E+02  0.45594000000E+02  0.51100000000E-03 0. -1.
         11   -1    0    0    0    0 -0.00000000000E+00 -0.00000000000E+00 -0.45593999997E+02  0.45594000000E+02  0.51100000000E-03 0.  1.
    9900012    2    1    2    0    0 -0.25621064213E+02  0.26012781466E+02 -0.23463155502E+02  0.47787269625E+02  0.19999993528E+02 0.  0.
         12    1    1    2    0    0  0.25621064213E+02 -0.26012781466E+02  0.23463155502E+02  0.43400730375E+02  0.00000000000E+00 0. -1.
         11    1    3    3    0    0 -0.30491304840E+01 -0.99345263425E+00 -0.69868152380E+00  0.32821183674E+01  0.51100000000E-03 0. -1.
        -11    1    3    3    0    0 -0.12477548410E+02  0.23106728941E+02 -0.20815528057E+02  0.33509645555E+02  0.51100000000E-03 0.  1.
        -12    1    3    3    0    0 -0.10094385319E+02  0.38995051596E+01 -0.19489459205E+01  0.10995505702E+02  0.00000000000E+00 0.  1.
</event>
<event>
 7    1  0.5031164E-009  0.4778727E+02  0.7816164E-02  0.1312668E+00
        -11   -1    0    0    0    0  0.00000000000E+00  0.00000000000E+00  0.45593999997E+02  0.45594000000E+02  0.51100000000E-03 0.  1.
         11   -1    0    0    0    0 -0.00000000000E+00 -0.00000000000E+00 -0.45593999997E+02  0.45594000000E+02  0.51100000000E-03 0. -1.
    9900012    2    1    2    0    0  0.13367744000E+02 -0.29138611686E+02  0.29255229854E+02  0.47787265623E+02  0.19999975282E+02 0.  0.
         12    1    1    2    0    0 -0.13367744000E+02  0.29138611686E+02 -0.29255229854E+02  0.43400734377E+02  0.00000000000E+00 0. -1.
         11    1    3    3    0    0 -0.13240789697E+00  0.47359447995E+00  0.89011730323E+01  0.89147465020E+01  0.51100000000E-03 0. -1.
        -11    1    3    3    0    0  0.10017299969E+02 -0.14597291397E+02  0.10797269701E+02  0.20736640230E+02  0.51100000000E-03 0.  1.
         12    1    3    3    0    0  0.34828519283E+01 -0.15014914769E+02  0.95567871211E+01  0.18135878891E+02  0.00000000000E+00 0. -1.
</event>
<event>
 7    1  0.5031164E-009  0.4778727E+02  0.7816164E-02  0.1312668E+00
        -11   -1    0    0    0    0  0.00000000000E+00  0.00000000000E+00  0.45593999997E+02  0.45594000000E+02  0.51100000000E-03 0. -1.
         11   -1    0    0    0    0 -0.00000000000E+00 -0.00000000000E+00 -0.45593999997E+02  0.45594000000E+02  0.51100000000E-03 0.  1.
    9900012    2    1    2    0    0  0.97144815518E+01 -0.18142551338E+02  0.38211250910E+02  0.47787274004E+02  0.20000013495E+02 0.  0.
         12    1    1    2    0    0 -0.97144815518E+01  0.18142551338E+02 -0.38211250910E+02  0.43400725996E+02  0.00000000000E+00 0. -1.
         11    1    3    3    0    0  0.26958460836E+00  0.60393468588E+00  0.91872590013E+00  0.11320205416E+01  0.51100000000E-03 0. -1.
        -11    1    3    3    0    0  0.78666309453E+01 -0.93427189176E+01  0.53751886882E+01  0.13344022366E+02  0.51100000000E-03 0.  1.
        -12    1    3    3    0    0  0.15782659982E+01 -0.94037671061E+01  0.31917336321E+02  0.33311231097E+02  0.00000000000E+00 0.  1.
</event>
<event>
 7    1  0.5031164E-009  0.4778727E+02  0.7816164E-02  0.1312668E+00
        -11   -1    0    0    0    0  0.00000000000E+00  0.00000000000E+00  0.45593999997E+02  0.45594000000E+02  0.51100000000E-03 0.  1.
         11   -1    0    0    0    0 -0.00000000000E+00 -0.00000000000E+00 -0.45593999997E+02  0.45594000000E+02  0.51100000000E-03 0. -1.
    9900012    2    1    2    0    0 -0.23698262184E+02 -0.15621814912E+02  0.32832523393E+02  0.47787270466E+02  0.19999997363E+02 0.  0.
         12    1    1    2    0    0  0.23698262184E+02  0.15621814912E+02 -0.32832523393E+02  0.43400729534E+02  0.00000000000E+00 0. -1.
         11    1    3    3    0    0  0.12333014899E-01 -0.84547327674E+01  0.13398212777E+02  0.15842814275E+02  0.51100000000E-03 0. -1.
        -11    1    3    3    0    0 -0.19505795559E+02 -0.57735811532E+01  0.13030624705E+02  0.24157969289E+02  0.51100000000E-03 0.  1.
        -12    1    3    3    0    0 -0.42047996409E+01 -0.13935009919E+01  0.64036859109E+01  0.77864869023E+01  0.00000000000E+00 0.  1.
</event>
<event>
 7    1  0.5031164E-009  0.4778727E+02  0.7816164E-02  0.1312668E+00
        -11   -1    0    0    0    0  0.00000000000E+00  0.00000000000E+00  0.45593999997E+02  0.45594000000E+02  0.51100000000E-03 0.  1.
         11   -1    0    0    0    0 -0.00000000000E+00 -0.00000000000E+00 -0.45593999997E+02  0.45594000000E+02  0.51100000000E-03 0. -1.
    9900012    2    1    2    0    0 -0.32594913899E+02 -0.21664230401E+02  0.18757818488E+02  0.47787273678E+02  0.20000012005E+02 0.  0.
         12    1    1    2    0    0  0.32594913899E+02  0.21664230401E+02 -0.18757818488E+02  0.43400726322E+02  0.00000000000E+00 0. -1.
         11    1    3    3    0    0 -0.41805042850E+01 -0.86097417802E+01  0.74967502946E+01  0.12157529965E+02  0.51100000000E-03 0. -1.
        -11    1    3    3    0    0 -0.71153334735E+01 -0.18621702608E+01 -0.26728190042E+01  0.78255741138E+01  0.51100000000E-03 0.  1.
        -12    1    3    3    0    0 -0.21299076140E+02 -0.11192318360E+02  0.13933887197E+02  0.27804169599E+02  0.00000000000E+00 0.  1.
</event>
<event>
 7    1  0.5031164E-009  0.4778727E+02  0.7816164E-02  0.1312668E+00
        -11   -1    0    0    0    0  0.00000000000E+00  0.00000000000E+00  0.45593999997E+02  0.45594000000E+02  0.51100000000E-03 0.  1.
         11   -1    0    0    0    0 -0.00000000000E+00 -0.00000000000E+00 -0.45593999997E+02  0.45594000000E+02  0.51100000000E-03 0. -1.
    9900012    2    1    2    0    0  0.38110995166E+02 -0.20311282227E+02  0.43159130953E+01  0.47787271388E+02  0.20000001566E+02 0.  0.
         12    1    1    2    0    0 -0.38110995166E+02  0.20311282227E+02 -0.43159130953E+01  0.43400728612E+02  0.00000000000E+00 0. -1.
         11    1    3    3    0    0  0.15148740281E+02 -0.14853066233E+02  0.33725595993E+00  0.21218191499E+02  0.51100000000E-03 0. -1.
        -11    1    3    3    0    0  0.23642415898E+02 -0.58319979164E+01  0.54063913442E+01  0.24944039305E+02  0.51100000000E-03 0.  1.
         12    1    3    3    0    0 -0.68016101352E+00  0.37378192301E+00 -0.14277342088E+01  0.16250405845E+01  0.00000000000E+00 0. -1.
</event>
<event>
 7    1  0.5031164E-009  0.4778727E+02  0.7816164E-02  0.1312668E+00
        -11   -1    0    0    0    0  0.00000000000E+00  0.00000000000E+00  0.45593999997E+02  0.45594000000E+02  0.51100000000E-03 0.  1.
         11   -1    0    0    0    0 -0.00000000000E+00 -0.00000000000E+00 -0.45593999997E+02  0.45594000000E+02  0.51100000000E-03 0. -1.
    9900012    2    1    2    0    0 -0.40249670228E+02  0.14972936677E+02 -0.62768334976E+01  0.47787269304E+02  0.19999992063E+02 0.  0.
         12    1    1    2    0    0  0.40249670228E+02 -0.14972936677E+02  0.62768334976E+01  0.43400730696E+02  0.00000000000E+00 0. -1.
         11    1    3    3    0    0 -0.10976380799E+02  0.10346347285E+02  0.40229731569E+01  0.15611282806E+02  0.51100000000E-03 0. -1.
        -11    1    3    3    0    0 -0.56713724993E+01  0.30605274443E+01 -0.17640380052E+00  0.64468917181E+01  0.51100000000E-03 0.  1.
         12    1    3    3    0    0 -0.23601916930E+02  0.15660619476E+01 -0.10123402854E+02  0.25729094779E+02  0.00000000000E+00 0. -1.
</event>
<event>
 7    1  0.5031164E-009  0.4778727E+02  0.7816164E-02  0.1312668E+00
        -11   -1    0    0    0    0  0.00000000000E+00  0.00000000000E+00  0.45593999997E+02  0.45594000000E+02  0.51100000000E-03 0.  1.
         11   -1    0    0    0    0 -0.00000000000E+00 -0.00000000000E+00 -0.45593999997E+02  0.45594000000E+02  0.51100000000E-03 0. -1.
    9900012    2    1    2    0    0 -0.84141366517E+01 -0.41715181018E+02  0.85246450495E+01  0.47787267331E+02  0.19999983071E+02 0.  0.
         12    1    1    2    0    0  0.84141366517E+01  0.41715181018E+02 -0.85246450495E+01  0.43400732669E+02  0.00000000000E+00 0. -1.
         11    1    3    3    0    0 -0.89001993051E+01 -0.16474279285E+02  0.34209914487E+01  0.19034668591E+02  0.51100000000E-03 0. -1.
        -11    1    3    3    0    0  0.36015681529E+01 -0.30397739188E+01 -0.21631274468E+01  0.51856185021E+01  0.51100000000E-03 0.  1.
        -12    1    3    3    0    0 -0.31155054995E+01 -0.22201127814E+02  0.72667810476E+01  0.23566980238E+02  0.00000000000E+00 0.  1.
</event>
<event>
 7    1  0.5031164E-009  0.4778724E+02  0.7816164E-02  0.1312668E+00
        -11   -1    0    0    0    0  0.00000000000E+00  0.00000000000E+00  0.45593999997E+02  0.45594000000E+02  0.51100000000E-03 0. -1.
         11   -1    0    0    0    0 -0.00000000000E+00 -0.00000000000E+00 -0.45593999997E+02  0.45594000000E+02  0.51100000000E-03 0.  1.
    9900012    2    1    2    0    0  0.38014993927E+02  0.91998281160E+01 -0.18810892438E+02  0.47787236470E+02  0.19999842362E+02 0.  0.
         12    1    1    2    0    0 -0.38014993927E+02 -0.91998281160E+01  0.18810892438E+02  0.43400763530E+02  0.00000000000E+00 0. -1.
         11    1    3    3    0    0  0.23326944291E+02  0.12854848559E+02 -0.66034005870E+01  0.27440815604E+02  0.51100000000E-03 0.  1.
        -11    1    3    3    0    0  0.68582190121E+01 -0.46269391025E+01 -0.74501477096E+01  0.11133213132E+02  0.51100000000E-03 0. -1.
        -12    1    3    3    0    0  0.78298306239E+01  0.97191865905E+00 -0.47573441417E+01  0.92132077346E+01  0.00000000000E+00 0.  1.
</event>
<event>
 7    1  0.5031164E-009  0.4778723E+02  0.7816164E-02  0.1312668E+00
        -11   -1    0    0    0    0  0.00000000000E+00  0.00000000000E+00  0.45593999997E+02  0.45594000000E+02  0.51100000000E-03 0. -1.
         11   -1    0    0    0    0 -0.00000000000E+00 -0.00000000000E+00 -0.45593999997E+02  0.45594000000E+02  0.51100000000E-03 0.  1.
    9900012    2    1    2    0    0  0.41575353447E+02 -0.44370313840E+00 -0.12446693672E+02  0.47787227311E+02  0.19999800599E+02 0.  0.
         12    1    1    2    0    0 -0.41575353447E+02  0.44370313840E+00  0.12446693672E+02  0.43400772689E+02  0.00000000000E+00 0. -1.
         11    1    3    3    0    0  0.27728696567E+02  0.34333585576E+01 -0.10581099598E+01  0.27960474982E+02  0.51100000000E-03 0. -1.
        -11    1    3    3    0    0  0.89697120642E+01 -0.34030982234E+01 -0.28945468935E+01  0.10020739195E+02  0.51100000000E-03 0.  1.
         12    1    3    3    0    0  0.48769448158E+01 -0.47396347261E+00 -0.84940368183E+01  0.98060131338E+01  0.00000000000E+00 0. -1.
</event>
<event>
 7    1  0.5031164E-009  0.4778727E+02  0.7816164E-02  0.1312668E+00
        -11   -1    0    0    0    0  0.00000000000E+00  0.00000000000E+00  0.45593999997E+02  0.45594000000E+02  0.51100000000E-03 0.  1.
         11   -1    0    0    0    0 -0.00000000000E+00 -0.00000000000E+00 -0.45593999997E+02  0.45594000000E+02  0.51100000000E-03 0. -1.
    9900012    2    1    2    0    0  0.26182754828E+02  0.18673908559E+02  0.29143983186E+02  0.47787271122E+02  0.20000000353E+02 0.  0.
         12    1    1    2    0    0 -0.26182754828E+02 -0.18673908559E+02 -0.29143983186E+02  0.43400728878E+02  0.00000000000E+00 0. -1.
         11    1    3    3    0    0  0.90957544018E+01  0.37640227675E+01  0.17767109932E+00  0.98454143037E+01  0.51100000000E-03 0. -1.
        -11    1    3    3    0    0  0.58640196762E+01  0.30716784769E+01  0.15265465159E+02  0.16639001238E+02  0.51100000000E-03 0.  1.
        -12    1    3    3    0    0  0.11222980750E+02  0.11838207314E+02  0.13700846928E+02  0.21302855580E+02  0.00000000000E+00 0.  1.
</event>
<event>
 7    1  0.5031164E-009  0.4778730E+02  0.7816164E-02  0.1312668E+00
        -11   -1    0    0    0    0  0.00000000000E+00  0.00000000000E+00  0.45593999997E+02  0.45594000000E+02  0.51100000000E-03 0.  1.
         11   -1    0    0    0    0 -0.00000000000E+00 -0.00000000000E+00 -0.45593999997E+02  0.45594000000E+02  0.51100000000E-03 0. -1.
    9900012    2    1    2    0    0  0.36799283891E+02  0.79940031171E-01  0.23009291585E+02  0.47787295115E+02  0.20000109747E+02 0.  0.
         12    1    1    2    0    0 -0.36799283891E+02 -0.79940031171E-01 -0.23009291585E+02  0.43400704885E+02  0.00000000000E+00 0. -1.
         11    1    3    3    0    0  0.34229698509E+02  0.36134535472E+01  0.20235609696E+02  0.39927549469E+02  0.51100000000E-03 0. -1.
        -11    1    3    3    0    0  0.16800616335E+01 -0.35520868053E+00  0.39888012557E+01  0.43427314006E+01  0.51100000000E-03 0.  1.
         12    1    3    3    0    0  0.88952374800E+00 -0.31783048355E+01 -0.12151193670E+01  0.35170142453E+01  0.00000000000E+00 0. -1.
</event>
<event>
 7    1  0.5031164E-009  0.4778728E+02  0.7816164E-02  0.1312668E+00
        -11   -1    0    0    0    0  0.00000000000E+00  0.00000000000E+00  0.45593999997E+02  0.45594000000E+02  0.51100000000E-03 0.  1.
         11   -1    0    0    0    0 -0.00000000000E+00 -0.00000000000E+00 -0.45593999997E+02  0.45594000000E+02  0.51100000000E-03 0. -1.
    9900012    2    1    2    0    0 -0.36661635033E+02 -0.71300236231E+01  0.22106784308E+02  0.47787278432E+02  0.20000033683E+02 0.  0.
         12    1    1    2    0    0  0.36661635033E+02  0.71300236231E+01 -0.22106784308E+02  0.43400721568E+02  0.00000000000E+00 0. -1.
         11    1    3    3    0    0 -0.27493043374E+00 -0.20415548353E+01  0.32632124196E+01  0.38590268780E+01  0.51100000000E-03 0. -1.
        -11    1    3    3    0    0 -0.24606518264E+02 -0.18914996076E+01  0.19862812754E+02  0.31679486148E+02  0.51100000000E-03 0.  1.
        -12    1    3    3    0    0 -0.11780186335E+02 -0.31969691802E+01 -0.10192408648E+01  0.12248765406E+02  0.00000000000E+00 0.  1.
</event>
<event>
 7    1  0.5031164E-009  0.4778727E+02  0.7816164E-02  0.1312668E+00
        -11   -1    0    0    0    0  0.00000000000E+00  0.00000000000E+00  0.45593999997E+02  0.45594000000E+02  0.51100000000E-03 0.  1.
         11   -1    0    0    0    0 -0.00000000000E+00 -0.00000000000E+00 -0.45593999997E+02  0.45594000000E+02  0.51100000000E-03 0. -1.
    9900012    2    1    2    0    0  0.19261603720E+02 -0.11813288858E+01  0.38874391138E+02  0.47787271870E+02  0.20000003766E+02 0.  0.
         12    1    1    2    0    0 -0.19261603720E+02  0.11813288858E+01 -0.38874391138E+02  0.43400728130E+02  0.00000000000E+00 0. -1.
         11    1    3    3    0    0  0.72309558777E+01 -0.68080504234E+01  0.15487971692E+02  0.18398737480E+02  0.51100000000E-03 0. -1.
        -11    1    3    3    0    0  0.12148417723E+02  0.73831671290E+01  0.23664588567E+02  0.27606302946E+02  0.51100000000E-03 0.  1.
        -12    1    3    3    0    0 -0.11776988118E+00 -0.17564455915E+01 -0.27816912084E+00  0.17822314441E+01  0.00000000000E+00 0.  1.
</event>
<event>
 7    1  0.5031164E-009  0.4778727E+02  0.7816164E-02  0.1312668E+00
        -11   -1    0    0    0    0  0.00000000000E+00  0.00000000000E+00  0.45593999997E+02  0.45594000000E+02  0.51100000000E-03 0. -1.
         11   -1    0    0    0    0 -0.00000000000E+00 -0.00000000000E+00 -0.45593999997E+02  0.45594000000E+02  0.51100000000E-03 0.  1.
    9900012    2    1    2    0    0 -0.10966292422E+01 -0.42475156338E+02 -0.88476958801E+01  0.47787271619E+02  0.20000002618E+02 0.  0.
         12    1    1    2    0    0  0.10966292422E+01  0.42475156338E+02  0.88476958801E+01  0.43400728381E+02  0.00000000000E+00 0. -1.
         11    1    3    3    0    0 -0.30953490494E+01 -0.32467592125E+02 -0.39800003384E+01  0.32856751621E+02  0.51100000000E-03 0. -1.
        -11    1    3    3    0    0  0.53118096347E+01 -0.72074765392E+01 -0.80879890421E+00  0.89898384628E+01  0.51100000000E-03 0.  1.
         12    1    3    3    0    0 -0.33130898274E+01 -0.28000876742E+01 -0.40588966374E+01  0.59406815351E+01  0.00000000000E+00 0. -1.
</event>
<event>
 7    1  0.5031164E-009  0.4778727E+02  0.7816164E-02  0.1312668E+00
        -11   -1    0    0    0    0  0.00000000000E+00  0.00000000000E+00  0.45593999997E+02  0.45594000000E+02  0.51100000000E-03 0.  1.
         11   -1    0    0    0    0 -0.00000000000E+00 -0.00000000000E+00 -0.45593999997E+02  0.45594000000E+02  0.51100000000E-03 0. -1.
    9900012    2    1    2    0    0  0.25359238323E+02  0.33084183291E+01  0.35065468286E+02  0.47787266524E+02  0.19999979390E+02 0.  0.
         12    1    1    2    0    0 -0.25359238323E+02 -0.33084183291E+01 -0.35065468286E+02  0.43400733476E+02  0.00000000000E+00 0. -1.
         11    1    3    3    0    0  0.10772131602E+02  0.90233084026E+01  0.14838072399E+02  0.20435931752E+02  0.51100000000E-03 0. -1.
        -11    1    3    3    0    0  0.85468907980E+01 -0.44482288539E+01  0.48610214174E+01  0.10791923449E+02  0.51100000000E-03 0.  1.
        -12    1    3    3    0    0  0.60402159221E+01 -0.12666612196E+01  0.15366374469E+02  0.16559411323E+02  0.00000000000E+00 0.  1.
</event>
<event>
 7    1  0.5031164E-009  0.4778727E+02  0.7816164E-02  0.1312668E+00
        -11   -1    0    0    0    0  0.00000000000E+00  0.00000000000E+00  0.45593999997E+02  0.45594000000E+02  0.51100000000E-03 0.  1.
         11   -1    0    0    0    0 -0.00000000000E+00 -0.00000000000E+00 -0.45593999997E+02  0.45594000000E+02  0.51100000000E-03 0. -1.
    9900012    2    1    2    0    0  0.20030921526E+02  0.19704809974E+02  0.33077276942E+02  0.47787267251E+02  0.19999982705E+02 0.  0.
         12    1    1    2    0    0 -0.20030921526E+02 -0.19704809974E+02 -0.33077276942E+02  0.43400732749E+02  0.00000000000E+00 0. -1.
         11    1    3    3    0    0  0.82070544290E+01  0.43713859221E+01  0.20848919542E+02  0.22828539235E+02  0.51100000000E-03 0.  1.
        -11    1    3    3    0    0  0.92869003267E+00  0.48401870182E+01 -0.80246358442E+00  0.49933779762E+01  0.51100000000E-03 0. -1.
        -12    1    3    3    0    0  0.10895177064E+02  0.10493237034E+02  0.13030820984E+02  0.19965350040E+02  0.00000000000E+00 0.  1.
</event>
<event>
 7    1  0.5031164E-009  0.4778727E+02  0.7816164E-02  0.1312668E+00
        -11   -1    0    0    0    0  0.00000000000E+00  0.00000000000E+00  0.45593999997E+02  0.45594000000E+02  0.51100000000E-03 0. -1.
         11   -1    0    0    0    0 -0.00000000000E+00 -0.00000000000E+00 -0.45593999997E+02  0.45594000000E+02  0.51100000000E-03 0.  1.
    9900012    2    1    2    0    0 -0.26215276127E+02 -0.34249058263E+02 -0.48357704980E+01  0.47787269930E+02  0.19999994918E+02 0.  0.
         12    1    1    2    0    0  0.26215276127E+02  0.34249058263E+02  0.48357704980E+01  0.43400730070E+02  0.00000000000E+00 0. -1.
         11    1    3    3    0    0  0.15410039940E+01 -0.69131773204E+01 -0.39850473208E-01  0.70829585834E+01  0.51100000000E-03 0. -1.
        -11    1    3    3    0    0 -0.24719947065E+02 -0.27957039905E+02 -0.45609456760E+01  0.37596197798E+02  0.51100000000E-03 0.  1.
         12    1    3    3    0    0 -0.30363330562E+01  0.62115896270E+00 -0.23497434872E+00  0.31081135484E+01  0.00000000000E+00 0. -1.
</event>
<event>
 7    1  0.5031164E-009  0.4778727E+02  0.7816164E-02  0.1312668E+00
        -11   -1    0    0    0    0  0.00000000000E+00  0.00000000000E+00  0.45593999997E+02  0.45594000000E+02  0.51100000000E-03 0.  1.
         11   -1    0    0    0    0 -0.00000000000E+00 -0.00000000000E+00 -0.45593999997E+02  0.45594000000E+02  0.51100000000E-03 0. -1.
    9900012    2    1    2    0    0  0.26399686781E+02 -0.13749033832E+02  0.31585499361E+02  0.47787272318E+02  0.20000005808E+02 0.  0.
         12    1    1    2    0    0 -0.26399686781E+02  0.13749033832E+02 -0.31585499361E+02  0.43400727682E+02  0.00000000000E+00 0. -1.
         11    1    3    3    0    0  0.13085699677E+02  0.12124405938E+01  0.15749000380E+02  0.20511863919E+02  0.51100000000E-03 0. -1.
        -11    1    3    3    0    0  0.10141745728E+02 -0.13536719978E+02  0.16617173398E+02  0.23711352686E+02  0.51100000000E-03 0.  1.
        -12    1    3    3    0    0  0.31722413756E+01 -0.14247544475E+01 -0.78067441684E+00  0.35640557131E+01  0.00000000000E+00 0.  1.
</event>
<event>
 7    1  0.5031164E-009  0.4778728E+02  0.7816164E-02  0.1312668E+00
        -11   -1    0    0    0    0  0.00000000000E+00  0.00000000000E+00  0.45593999997E+02  0.45594000000E+02  0.51100000000E-03 0.  1.
         11   -1    0    0    0    0 -0.00000000000E+00 -0.00000000000E+00 -0.45593999997E+02  0.45594000000E+02  0.51100000000E-03 0. -1.
    9900012    2    1    2    0    0  0.42055962986E+02 -0.27404507551E+01  0.10363819783E+02  0.47787275887E+02  0.20000022080E+02 0.  0.
         12    1    1    2    0    0 -0.42055962986E+02  0.27404507551E+01 -0.10363819783E+02  0.43400724113E+02  0.00000000000E+00 0. -1.
         11    1    3    3    0    0  0.85666266157E+01 -0.33771940761E+01  0.46670428586E+01  0.10323459726E+02  0.51100000000E-03 0. -1.
        -11    1    3    3    0    0  0.27276332290E+02 -0.24342452142E+01 -0.15601036128E+01  0.27429141009E+02  0.51100000000E-03 0.  1.
        -12    1    3    3    0    0  0.62130040808E+01  0.30709885352E+01  0.72568805371E+01  0.10034675153E+02  0.00000000000E+00 0.  1.
</event>
<event>
 7    1  0.5287170E-009  0.4778727E+02  0.7816164E-02  0.1312668E+00
        -11   -1    0    0    0    0  0.00000000000E+00  0.00000000000E+00  0.45593999997E+02  0.45594000000E+02  0.51100000000E-03 0. -1.
         11   -1    0    0    0    0 -0.00000000000E+00 -0.00000000000E+00 -0.45593999997E+02  0.45594000000E+02  0.51100000000E-03 0.  1.
    9900012    2    1    2    0    0 -0.20705190138E+00  0.42798363519E+02  0.72028118387E+01  0.47787270872E+02  0.19999999216E+02 0.  0.
         12    1    1    2    0    0  0.20705190138E+00 -0.42798363519E+02 -0.72028118387E+01  0.43400729128E+02  0.00000000000E+00 0. -1.
         11    1    3    3    0    0  0.58938841824E+00 -0.10797662385E+00 -0.93698818715E+00  0.11121981761E+01  0.51100000000E-03 0. -1.
        -11    1    3    3    0    0  0.24813827685E+01  0.37629634084E+02  0.17328815719E+01  0.37751152307E+02  0.51100000000E-03 0.  1.
        -12    1    3    3    0    0 -0.32778230881E+01  0.52767060594E+01  0.64069184539E+01  0.89239203890E+01  0.00000000000E+00 0.  1.
</event>
<event>
 7    1  0.5031164E-009  0.4778727E+02  0.7816164E-02  0.1312668E+00
        -11   -1    0    0    0    0  0.00000000000E+00  0.00000000000E+00  0.45593999997E+02  0.45594000000E+02  0.51100000000E-03 0.  1.
         11   -1    0    0    0    0 -0.00000000000E+00 -0.00000000000E+00 -0.45593999997E+02  0.45594000000E+02  0.51100000000E-03 0. -1.
    9900012    2    1    2    0    0 -0.17261347201E+02  0.26442413541E+02  0.29773615251E+02  0.47787268368E+02  0.19999987799E+02 0.  0.
         12    1    1    2    0    0  0.17261347201E+02 -0.26442413541E+02 -0.29773615251E+02  0.43400731632E+02  0.00000000000E+00 0. -1.
         11    1    3    3    0    0  0.79697532512E+00  0.45497548900E+00 -0.20338815574E+01  0.22313329683E+01  0.51100000000E-03 0. -1.
        -11    1    3    3    0    0 -0.11555702123E+02  0.97628526959E+01  0.14306820063E+02  0.20821446754E+02  0.51100000000E-03 0.  1.
        -12    1    3    3    0    0 -0.65026204024E+01  0.16224585356E+02  0.17500676745E+02  0.24734488646E+02  0.00000000000E+00 0.  1.
</event>
<event>
 7    1  0.5031164E-009  0.4778729E+02  0.7816164E-02  0.1312668E+00
        -11   -1    0    0    0    0  0.00000000000E+00  0.00000000000E+00  0.45593999997E+02  0.45594000000E+02  0.51100000000E-03 0.  1.
         11   -1    0    0    0    0 -0.00000000000E+00 -0.00000000000E+00 -0.45593999997E+02  0.45594000000E+02  0.51100000000E-03 0. -1.
    9900012    2    1    2    0    0 -0.28197518962E+02 -0.28078243996E+02  0.17324374105E+02  0.47787288028E+02  0.20000077436E+02 0.  0.
         12    1    1    2    0    0  0.28197518962E+02  0.28078243996E+02 -0.17324374105E+02  0.43400711972E+02  0.00000000000E+00 0. -1.
         11    1    3    3    0    0 -0.23671226660E+02 -0.18490952916E+02  0.36699330239E+01  0.30260712483E+02  0.51100000000E-03 0. -1.
        -11    1    3    3    0    0 -0.15413192282E+01 -0.61368106098E+01  0.67603058289E+01  0.92594732348E+01  0.51100000000E-03 0.  1.
         12    1    3    3    0    0 -0.29849730742E+01 -0.34504804696E+01  0.68941352525E+01  0.82671023101E+01  0.00000000000E+00 0. -1.
</event>
<event>
 7    1  0.5031164E-009  0.4778726E+02  0.7816164E-02  0.1312668E+00
        -11   -1    0    0    0    0  0.00000000000E+00  0.00000000000E+00  0.45593999997E+02  0.45594000000E+02  0.51100000000E-03 0. -1.
         11   -1    0    0    0    0 -0.00000000000E+00 -0.00000000000E+00 -0.45593999997E+02  0.45594000000E+02  0.51100000000E-03 0.  1.
    9900012    2    1    2    0    0  0.77161485614E+01  0.54895439076E+01 -0.42355051154E+02  0.47787258080E+02  0.19999940892E+02 0.  0.
         12    1    1    2    0    0 -0.77161485614E+01 -0.54895439076E+01  0.42355051154E+02  0.43400741920E+02  0.00000000000E+00 0. -1.
         11    1    3    3    0    0 -0.11530375494E+01 -0.28450715502E+01 -0.50843958085E+00  0.31116617401E+01  0.51100000000E-03 0. -1.
        -11    1    3    3    0    0  0.63544023695E+00  0.54748180518E+01 -0.26119088836E+02  0.26694273148E+02  0.51100000000E-03 0.  1.
         12    1    3    3    0    0  0.82337458738E+01  0.28597974060E+01 -0.15727522737E+02  0.17981323192E+02  0.00000000000E+00 0. -1.
</event>
<event>
 7    1  0.5031164E-009  0.4778727E+02  0.7816164E-02  0.1312668E+00
        -11   -1    0    0    0    0  0.00000000000E+00  0.00000000000E+00  0.45593999997E+02  0.45594000000E+02  0.51100000000E-03 0.  1.
         11   -1    0    0    0    0 -0.00000000000E+00 -0.00000000000E+00 -0.45593999997E+02  0.45594000000E+02  0.51100000000E-03 0. -1.
    9900012    2    1    2    0    0  0.22413731119E+01  0.24865544177E+02  0.35500766696E+02  0.47787268708E+02  0.19999989349E+02 0.  0.
         12    1    1    2    0    0 -0.22413731119E+01 -0.24865544177E+02 -0.35500766696E+02  0.43400731292E+02  0.00000000000E+00 0. -1.
         11    1    3    3    0    0  0.34299533628E+01 -0.79937054070E+00  0.17057551768E+01  0.39132051207E+01  0.51100000000E-03 0. -1.
        -11    1    3    3    0    0 -0.38672337915E+01  0.20362341949E+02  0.31044474074E+02  0.37327467603E+02  0.51100000000E-03 0.  1.
        -12    1    3    3    0    0  0.26786535405E+01  0.53025727682E+01  0.27505374455E+01  0.65465959851E+01  0.00000000000E+00 0.  1.
</event>
<event>
 7    1  0.5031164E-009  0.4778730E+02  0.7816164E-02  0.1312668E+00
        -11   -1    0    0    0    0  0.00000000000E+00  0.00000000000E+00  0.45593999997E+02  0.45594000000E+02  0.51100000000E-03 0. -1.
         11   -1    0    0    0    0 -0.00000000000E+00 -0.00000000000E+00 -0.45593999997E+02  0.45594000000E+02  0.51100000000E-03 0.  1.
    9900012    2    1    2    0    0 -0.15652073932E+02 -0.26693575629E+02 -0.30431660913E+02  0.47787304336E+02  0.20000151789E+02 0.  0.
         12    1    1    2    0    0  0.15652073932E+02  0.26693575629E+02  0.30431660913E+02  0.43400695664E+02  0.00000000000E+00 0. -1.
         11    1    3    3    0    0 -0.12971111701E+02 -0.14173689160E+02 -0.21905382778E+02  0.29137415776E+02  0.51100000000E-03 0. -1.
        -11    1    3    3    0    0  0.10177616502E+01 -0.12728457145E+02 -0.74873731437E+01  0.14802372003E+02  0.51100000000E-03 0.  1.
         12    1    3    3    0    0 -0.36987238810E+01  0.20857067650E+00 -0.10389049910E+01  0.38475165569E+01  0.00000000000E+00 0. -1.
</event>
<event>
 7    1  0.5031164E-009  0.4778727E+02  0.7816164E-02  0.1312668E+00
        -11   -1    0    0    0    0  0.00000000000E+00  0.00000000000E+00  0.45593999997E+02  0.45594000000E+02  0.51100000000E-03 0. -1.
         11   -1    0    0    0    0 -0.00000000000E+00 -0.00000000000E+00 -0.45593999997E+02  0.45594000000E+02  0.51100000000E-03 0.  1.
    9900012    2    1    2    0    0  0.42445735169E+02 -0.88400748901E+01 -0.19586348972E+01  0.47787267186E+02  0.19999982408E+02 0.  0.
         12    1    1    2    0    0 -0.42445735169E+02  0.88400748901E+01  0.19586348972E+01  0.43400732814E+02  0.00000000000E+00 0. -1.
         11    1    3    3    0    0  0.27323270303E+02 -0.38243528099E+01 -0.74185499915E+01  0.28569593254E+02  0.51100000000E-03 0. -1.
        -11    1    3    3    0    0  0.16235981706E+02 -0.50347168132E+01  0.41492688154E+01  0.17497768638E+02  0.51100000000E-03 0.  1.
         12    1    3    3    0    0 -0.11135168395E+01  0.18994733037E-01  0.13106462789E+01  0.17199052939E+01  0.00000000000E+00 0. -1.
</event>
<event>
 7    1  0.5031164E-009  0.4778732E+02  0.7816164E-02  0.1312668E+00
        -11   -1    0    0    0    0  0.00000000000E+00  0.00000000000E+00  0.45593999997E+02  0.45594000000E+02  0.51100000000E-03 0.  1.
         11   -1    0    0    0    0 -0.00000000000E+00 -0.00000000000E+00 -0.45593999997E+02  0.45594000000E+02  0.51100000000E-03 0. -1.
    9900012    2    1    2    0    0  0.11787519636E+02 -0.22383492733E+02  0.35265458771E+02  0.47787320876E+02  0.20000227200E+02 0.  0.
         12    1    1    2    0    0 -0.11787519636E+02  0.22383492733E+02 -0.35265458771E+02  0.43400679124E+02  0.00000000000E+00 0. -1.
         11    1    3    3    0    0 -0.72804814975E+00 -0.35970222003E+01 -0.10960424026E+01  0.38301347271E+01  0.51100000000E-03 0. -1.
        -11    1    3    3    0    0  0.87907617165E+01 -0.16406476759E+02  0.21428105734E+02  0.28383334667E+02  0.51100000000E-03 0.  1.
         12    1    3    3    0    0  0.37248060693E+01 -0.23799937738E+01  0.14933395440E+02  0.15573851482E+02  0.00000000000E+00 0. -1.
</event>
<event>
 7    1  0.5031164E-009  0.4778727E+02  0.7816164E-02  0.1312668E+00
        -11   -1    0    0    0    0  0.00000000000E+00  0.00000000000E+00  0.45593999997E+02  0.45594000000E+02  0.51100000000E-03 0.  1.
         11   -1    0    0    0    0 -0.00000000000E+00 -0.00000000000E+00 -0.45593999997E+02  0.45594000000E+02  0.51100000000E-03 0. -1.
    9900012    2    1    2    0    0 -0.17567967083E+02 -0.15041775729E+02  0.36725126255E+02  0.47787269788E+02  0.19999994270E+02 0.  0.
         12    1    1    2    0    0  0.17567967083E+02  0.15041775729E+02 -0.36725126255E+02  0.43400730212E+02  0.00000000000E+00 0. -1.
         11    1    3    3    0    0 -0.16124128423E+01  0.56534819014E+00  0.10547026402E+02  0.10684533679E+02  0.51100000000E-03 0. -1.
        -11    1    3    3    0    0 -0.12693324524E+02 -0.16791230251E+02  0.16269081876E+02  0.26603551007E+02  0.51100000000E-03 0.  1.
        -12    1    3    3    0    0 -0.32622297173E+01  0.11841063320E+01  0.99090179767E+01  0.10499185102E+02  0.00000000000E+00 0.  1.
</event>
<event>
 7    1  0.5031164E-009  0.4778727E+02  0.7816164E-02  0.1312668E+00
        -11   -1    0    0    0    0  0.00000000000E+00  0.00000000000E+00  0.45593999997E+02  0.45594000000E+02  0.51100000000E-03 0. -1.
         11   -1    0    0    0    0 -0.00000000000E+00 -0.00000000000E+00 -0.45593999997E+02  0.45594000000E+02  0.51100000000E-03 0.  1.
    9900012    2    1    2    0    0 -0.33221979564E+02  0.26510906996E+02  0.87803692954E+01  0.47787274190E+02  0.20000014340E+02 0.  0.
         12    1    1    2    0    0  0.33221979564E+02 -0.26510906996E+02 -0.87803692954E+01  0.43400725810E+02  0.00000000000E+00 0. -1.
         11    1    3    3    0    0 -0.11916279154E+02  0.14683530549E+02  0.72599923441E+01  0.20256141473E+02  0.51100000000E-03 0. -1.
        -11    1    3    3    0    0 -0.11226127021E+02  0.12372412597E+02  0.39100583118E+01  0.17157828465E+02  0.51100000000E-03 0.  1.
         12    1    3    3    0    0 -0.10079573388E+02 -0.54503614980E+00 -0.23896813606E+01  0.10373304252E+02  0.00000000000E+00 0. -1.
</event>
<event>
 7    1  0.5031164E-009  0.4778727E+02  0.7816164E-02  0.1312668E+00
        -11   -1    0    0    0    0  0.00000000000E+00  0.00000000000E+00  0.45593999997E+02  0.45594000000E+02  0.51100000000E-03 0.  1.
         11   -1    0    0    0    0 -0.00000000000E+00 -0.00000000000E+00 -0.45593999997E+02  0.45594000000E+02  0.51100000000E-03 0. -1.
    9900012    2    1    2    0    0 -0.36843864489E+02 -0.87976843631E+01  0.21183801130E+02  0.47787273843E+02  0.20000012759E+02 0.  0.
         12    1    1    2    0    0  0.36843864489E+02  0.87976843631E+01 -0.21183801130E+02  0.43400726157E+02  0.00000000000E+00 0. -1.
         11    1    3    3    0    0 -0.11456917699E+02  0.46559472959E+01  0.86850479186E+01  0.15111878308E+02  0.51100000000E-03 0. -1.
        -11    1    3    3    0    0 -0.52615353255E+01  0.10711259328E+01  0.23529390451E+01  0.58623704383E+01  0.51100000000E-03 0.  1.
        -12    1    3    3    0    0 -0.20125411465E+02 -0.14524757592E+02  0.10145814166E+02  0.26813025096E+02  0.00000000000E+00 0.  1.
</event>
<event>
 7    1  0.5031164E-009  0.4778726E+02  0.7816164E-02  0.1312668E+00
        -11   -1    0    0    0    0  0.00000000000E+00  0.00000000000E+00  0.45593999997E+02  0.45594000000E+02  0.51100000000E-03 0.  1.
         11   -1    0    0    0    0 -0.00000000000E+00 -0.00000000000E+00 -0.45593999997E+02  0.45594000000E+02  0.51100000000E-03 0. -1.
    9900012    2    1    2    0    0  0.19372624332E+02 -0.36351568323E+02  0.13670724485E+02  0.47787264972E+02  0.19999972312E+02 0.  0.
         12    1    1    2    0    0 -0.19372624332E+02  0.36351568323E+02 -0.13670724485E+02  0.43400735028E+02  0.00000000000E+00 0. -1.
         11    1    3    3    0    0  0.12539549292E+02 -0.16939920731E+02 -0.24344793420E+01  0.21216217871E+02  0.51100000000E-03 0. -1.
        -11    1    3    3    0    0  0.63689380430E+01 -0.13464401965E+02  0.13343052152E+02  0.19997263139E+02  0.51100000000E-03 0.  1.
         12    1    3    3    0    0  0.46413699722E+00 -0.59472456261E+01  0.27621516753E+01  0.65737839611E+01  0.00000000000E+00 0. -1.
</event>
<event>
 7    1  0.5031164E-009  0.4778727E+02  0.7816164E-02  0.1312668E+00
        -11   -1    0    0    0    0  0.00000000000E+00  0.00000000000E+00  0.45593999997E+02  0.45594000000E+02  0.51100000000E-03 0.  1.
         11   -1    0    0    0    0 -0.00000000000E+00 -0.00000000000E+00 -0.45593999997E+02  0.45594000000E+02  0.51100000000E-03 0. -1.
    9900012    2    1    2    0    0 -0.85698527528E+01  0.97411465462E+01  0.41416068042E+02  0.47787274150E+02  0.20000014159E+02 0.  0.
         12    1    1    2    0    0  0.85698527528E+01 -0.97411465462E+01 -0.41416068042E+02  0.43400725850E+02  0.00000000000E+00 0. -1.
         11    1    3    3    0    0 -0.16620002943E+01 -0.18175243587E+01  0.24406698156E+01  0.34673490137E+01  0.51100000000E-03 0. -1.
        -11    1    3    3    0    0  0.50897673722E+01  0.36697931525E+01  0.79099833946E+01  0.10096581166E+02  0.51100000000E-03 0.  1.
        -12    1    3    3    0    0 -0.11997619831E+02  0.78888777524E+01  0.31065414832E+02  0.34223343970E+02  0.00000000000E+00 0.  1.
</event>
<event>
 7    1  0.5031164E-009  0.4778727E+02  0.7816164E-02  0.1312668E+00
        -11   -1    0    0    0    0  0.00000000000E+00  0.00000000000E+00  0.45593999997E+02  0.45594000000E+02  0.51100000000E-03 0.  1.
         11   -1    0    0    0    0 -0.00000000000E+00 -0.00000000000E+00 -0.45593999997E+02  0.45594000000E+02  0.51100000000E-03 0. -1.
    9900012    2    1    2    0    0  0.11836502296E+02  0.40494804666E+02  0.10182892539E+02  0.47787270835E+02  0.19999999047E+02 0.  0.
         12    1    1    2    0    0 -0.11836502296E+02 -0.40494804666E+02 -0.10182892539E+02  0.43400729165E+02  0.00000000000E+00 0. -1.
         11    1    3    3    0    0  0.13441079966E+02  0.29274530048E+02  0.45277971207E+01  0.32529397278E+02  0.51100000000E-03 0. -1.
        -11    1    3    3    0    0 -0.42164409841E+01  0.81305217213E+01  0.63608745996E+01  0.11150985785E+02  0.51100000000E-03 0.  1.
         12    1    3    3    0    0  0.26118633132E+01  0.30897528967E+01 -0.70577918182E+00  0.41068877734E+01  0.00000000000E+00 0. -1.
</event>
<event>
 7    1  0.5031164E-009  0.4778727E+02  0.7816164E-02  0.1312668E+00
        -11   -1    0    0    0    0  0.00000000000E+00  0.00000000000E+00  0.45593999997E+02  0.45594000000E+02  0.51100000000E-03 0.  1.
         11   -1    0    0    0    0 -0.00000000000E+00 -0.00000000000E+00 -0.45593999997E+02  0.45594000000E+02  0.51100000000E-03 0. -1.
    9900012    2    1    2    0    0  0.13437153304E+02  0.67514309405E+01  0.40712215852E+02  0.47787269266E+02  0.19999991892E+02 0.  0.
         12    1    1    2    0    0 -0.13437153304E+02 -0.67514309405E+01 -0.40712215852E+02  0.43400730734E+02  0.00000000000E+00 0. -1.
         11    1    3    3    0    0  0.42190354608E+01  0.35330929512E+01  0.25722704829E+02  0.26304762877E+02  0.51100000000E-03 0. -1.
        -11    1    3    3    0    0  0.70318024061E+01  0.19839393399E+01  0.16844528876E+02  0.18360839134E+02  0.51100000000E-03 0.  1.
         12    1    3    3    0    0  0.21863154371E+01  0.12343986493E+01 -0.18550178534E+01  0.31216672553E+01  0.00000000000E+00 0. -1.
</event>
<event>
 7    1  0.5031164E-009  0.4778727E+02  0.7816164E-02  0.1312668E+00
        -11   -1    0    0    0    0  0.00000000000E+00  0.00000000000E+00  0.45593999997E+02  0.45594000000E+02  0.51100000000E-03 0.  1.
         11   -1    0    0    0    0 -0.00000000000E+00 -0.00000000000E+00 -0.45593999997E+02  0.45594000000E+02  0.51100000000E-03 0. -1.
    9900012    2    1    2    0    0 -0.19363500195E+02  0.36734203785E+02  0.12620484214E+02  0.47787268562E+02  0.19999988682E+02 0.  0.
         12    1    1    2    0    0  0.19363500195E+02 -0.36734203785E+02 -0.12620484214E+02  0.43400731438E+02  0.00000000000E+00 0. -1.
         11    1    3    3    0    0 -0.11322858289E+02  0.83942719798E+01 -0.14876881809E+01  0.14173360162E+02  0.51100000000E-03 0. -1.
        -11    1    3    3    0    0 -0.72941255542E+01  0.13224107507E+02  0.92913164378E+01  0.17731605916E+02  0.51100000000E-03 0.  1.
         12    1    3    3    0    0 -0.74651635248E+00  0.15115824298E+02  0.48168559576E+01  0.15882302484E+02  0.00000000000E+00 0. -1.
</event>
<event>
 7    1  0.5031164E-009  0.4778722E+02  0.7816164E-02  0.1312668E+00
        -11   -1    0    0    0    0  0.00000000000E+00  0.00000000000E+00  0.45593999997E+02  0.45594000000E+02  0.51100000000E-03 0.  1.
         11   -1    0    0    0    0 -0.00000000000E+00 -0.00000000000E+00 -0.45593999997E+02  0.45594000000E+02  0.51100000000E-03 0. -1.
    9900012    2    1    2    0    0  0.13001231427E+02 -0.16088720923E+02  0.38154280767E+02  0.47787215441E+02  0.19999746478E+02 0.  0.
         12    1    1    2    0    0 -0.13001231427E+02  0.16088720923E+02 -0.38154280767E+02  0.43400784559E+02  0.00000000000E+00 0. -1.
         11    1    3    3    0    0 -0.12316550902E+01 -0.35679676639E+01  0.37394216391E+01  0.53132515438E+01  0.51100000000E-03 0. -1.
        -11    1    3    3    0    0  0.22841032943E+01 -0.10929402722E+02  0.24283739132E+02  0.26727681497E+02  0.51100000000E-03 0.  1.
        -12    1    3    3    0    0  0.11948783223E+02 -0.15913505370E+01  0.10131119995E+02  0.15746282399E+02  0.00000000000E+00 0.  1.
</event>
<event>
 7    1  0.5031164E-009  0.4778727E+02  0.7816164E-02  0.1312668E+00
        -11   -1    0    0    0    0  0.00000000000E+00  0.00000000000E+00  0.45593999997E+02  0.45594000000E+02  0.51100000000E-03 0. -1.
         11   -1    0    0    0    0 -0.00000000000E+00 -0.00000000000E+00 -0.45593999997E+02  0.45594000000E+02  0.51100000000E-03 0.  1.
    9900012    2    1    2    0    0 -0.40918307129E+02  0.14882815767E+01 -0.14390982423E+02  0.47787271717E+02  0.20000003067E+02 0.  0.
         12    1    1    2    0    0  0.40918307129E+02 -0.14882815767E+01  0.14390982423E+02  0.43400728283E+02  0.00000000000E+00 0. -1.
         11    1    3    3    0    0 -0.63969285178E+01 -0.45133953989E+01 -0.26658904257E+01  0.82703327933E+01  0.51100000000E-03 0. -1.
        -11    1    3    3    0    0 -0.27415801368E+02 -0.10580530344E+01 -0.63992218537E+01  0.28172605159E+02  0.51100000000E-03 0.  1.
        -12    1    3    3    0    0 -0.71055772436E+01  0.70597300100E+01 -0.53258701433E+01  0.11344333765E+02  0.00000000000E+00 0.  1.
</event>
<event>
 7    1  0.5031164E-009  0.4778727E+02  0.7816164E-02  0.1312668E+00
        -11   -1    0    0    0    0  0.00000000000E+00  0.00000000000E+00  0.45593999997E+02  0.45594000000E+02  0.51100000000E-03 0. -1.
         11   -1    0    0    0    0 -0.00000000000E+00 -0.00000000000E+00 -0.45593999997E+02  0.45594000000E+02  0.51100000000E-03 0.  1.
    9900012    2    1    2    0    0 -0.11833228235E+02 -0.82278639806E+01 -0.40937760446E+02  0.47787271130E+02  0.20000000389E+02 0.  0.
         12    1    1    2    0    0  0.11833228235E+02  0.82278639806E+01  0.40937760446E+02  0.43400728870E+02  0.00000000000E+00 0. -1.
         11    1    3    3    0    0 -0.17077312717E+01 -0.48512698869E+01 -0.21612934499E+01  0.55787413679E+01  0.51100000000E-03 0. -1.
        -11    1    3    3    0    0 -0.63927334259E+01 -0.73475406859E+01 -0.32339932117E+02  0.33774614793E+02  0.51100000000E-03 0.  1.
        -12    1    3    3    0    0 -0.37327635371E+01  0.39709465921E+01 -0.64365348789E+01  0.84339149693E+01  0.00000000000E+00 0.  1.
</event>
<event>
 7    1  0.5031164E-009  0.4778726E+02  0.7816164E-02  0.1312668E+00
        -11   -1    0    0    0    0  0.00000000000E+00  0.00000000000E+00  0.45593999997E+02  0.45594000000E+02  0.51100000000E-03 0.  1.
         11   -1    0    0    0    0 -0.00000000000E+00 -0.00000000000E+00 -0.45593999997E+02  0.45594000000E+02  0.51100000000E-03 0. -1.
    9900012    2    1    2    0    0  0.13650044702E+02 -0.12508764986E+02  0.39253423780E+02  0.47787260372E+02  0.19999951339E+02 0.  0.
         12    1    1    2    0    0 -0.13650044702E+02  0.12508764986E+02 -0.39253423780E+02  0.43400739628E+02  0.00000000000E+00 0. -1.
         11    1    3    3    0    0  0.68804022767E+01 -0.12843573679E+02  0.29537119172E+02  0.32935372012E+02  0.51100000000E-03 0.  1.
        -11    1    3    3    0    0  0.67830908861E+01  0.23245372906E+01  0.10498854435E+02  0.12713761847E+02  0.51100000000E-03 0. -1.
        -12    1    3    3    0    0 -0.13448460812E-01 -0.19897285978E+01 -0.78254982718E+00  0.21381265131E+01  0.00000000000E+00 0.  1.
</event>
<event>
 7    1  0.5031164E-009  0.4778727E+02  0.7816164E-02  0.1312668E+00
        -11   -1    0    0    0    0  0.00000000000E+00  0.00000000000E+00  0.45593999997E+02  0.45594000000E+02  0.51100000000E-03 0.  1.
         11   -1    0    0    0    0 -0.00000000000E+00 -0.00000000000E+00 -0.45593999997E+02  0.45594000000E+02  0.51100000000E-03 0. -1.
    9900012    2    1    2    0    0 -0.41323537629E+01  0.29614103022E+02  0.31457142165E+02  0.47787271451E+02  0.20000001854E+02 0.  0.
         12    1    1    2    0    0  0.41323537629E+01 -0.29614103022E+02 -0.31457142165E+02  0.43400728549E+02  0.00000000000E+00 0. -1.
         11    1    3    3    0    0  0.32892827743E+01  0.48115109437E+01 -0.44278894558E+00  0.58451758778E+01  0.51100000000E-03 0. -1.
        -11    1    3    3    0    0 -0.77157759382E+01  0.11355270119E+02  0.17407186900E+02  0.22169472566E+02  0.51100000000E-03 0.  1.
        -12    1    3    3    0    0  0.29413940103E+00  0.13447321959E+02  0.14492744210E+02  0.19772623008E+02  0.00000000000E+00 0.  1.
</event>
<event>
 7    1  0.5031164E-009  0.4778727E+02  0.7816164E-02  0.1312668E+00
        -11   -1    0    0    0    0  0.00000000000E+00  0.00000000000E+00  0.45593999997E+02  0.45594000000E+02  0.51100000000E-03 0. -1.
         11   -1    0    0    0    0 -0.00000000000E+00 -0.00000000000E+00 -0.45593999997E+02  0.45594000000E+02  0.51100000000E-03 0.  1.
    9900012    2    1    2    0    0  0.32644798207E+02  0.24164606160E+02 -0.15297459882E+02  0.47787270517E+02  0.19999997595E+02 0.  0.
         12    1    1    2    0    0 -0.32644798207E+02 -0.24164606160E+02  0.15297459882E+02  0.43400729483E+02  0.00000000000E+00 0. -1.
         11    1    3    3    0    0  0.57546131405E+01  0.32883931751E+01 -0.47567661063E+01  0.81581815450E+01  0.51100000000E-03 0. -1.
        -11    1    3    3    0    0  0.37495902319E+01 -0.29877072335E+01 -0.13107298691E+00  0.47961444734E+01  0.51100000000E-03 0.  1.
        -12    1    3    3    0    0  0.23140594835E+02  0.23863920218E+02 -0.10409620788E+02  0.34832944499E+02  0.00000000000E+00 0.  1.
</event>
<event>
 7    1  0.5031164E-009  0.4778733E+02  0.7816164E-02  0.1312667E+00
        -11   -1    0    0    0    0  0.00000000000E+00  0.00000000000E+00  0.45593999997E+02  0.45594000000E+02  0.51100000000E-03 0. -1.
         11   -1    0    0    0    0 -0.00000000000E+00 -0.00000000000E+00 -0.45593999997E+02  0.45594000000E+02  0.51100000000E-03 0.  1.
    9900012    2    1    2    0    0 -0.69390114340E+00 -0.42854369260E+02 -0.68293250039E+01  0.47787330149E+02  0.20000269479E+02 0.  0.
         12    1    1    2    0    0  0.69390114340E+00  0.42854369260E+02  0.68293250039E+01  0.43400669851E+02  0.00000000000E+00 0. -1.
         11    1    3    3    0    0 -0.31844469547E+01 -0.30122486021E+02  0.27588218971E+00  0.30291599128E+02  0.51100000000E-03 0. -1.
        -11    1    3    3    0    0 -0.25475070151E+01 -0.66976084873E+01 -0.42259463110E+00  0.71781848628E+01  0.51100000000E-03 0.  1.
         12    1    3    3    0    0  0.50380528264E+01 -0.60342747526E+01 -0.66826125625E+01  0.10317546158E+02  0.00000000000E+00 0. -1.
</event>
<event>
 7    1  0.5031164E-009  0.4778727E+02  0.7816164E-02  0.1312668E+00
        -11   -1    0    0    0    0  0.00000000000E+00  0.00000000000E+00  0.45593999997E+02  0.45594000000E+02  0.51100000000E-03 0.  1.
         11   -1    0    0    0    0 -0.00000000000E+00 -0.00000000000E+00 -0.45593999997E+02  0.45594000000E+02  0.51100000000E-03 0. -1.
    9900012    2    1    2    0    0 -0.57447158092E+01  0.52055982191E+01  0.42702734109E+02  0.47787268290E+02  0.19999987441E+02 0.  0.
         12    1    1    2    0    0  0.57447158092E+01 -0.52055982191E+01 -0.42702734109E+02  0.43400731710E+02  0.00000000000E+00 0. -1.
         11    1    3    3    0    0  0.25954425888E+01  0.10517457375E+01  0.31558968201E+02  0.31682975958E+02  0.51100000000E-03 0. -1.
        -11    1    3    3    0    0 -0.70429802777E+00  0.17452819237E+01 -0.52391152659E+00  0.19535936768E+01  0.51100000000E-03 0.  1.
         12    1    3    3    0    0 -0.76358603703E+01  0.24085705579E+01  0.11667677435E+02  0.14150698656E+02  0.00000000000E+00 0. -1.
</event>
<event>
 7    1  0.5031164E-009  0.4778727E+02  0.7816164E-02  0.1312668E+00
        -11   -1    0    0    0    0  0.00000000000E+00  0.00000000000E+00  0.45593999997E+02  0.45594000000E+02  0.51100000000E-03 0.  1.
         11   -1    0    0    0    0 -0.00000000000E+00 -0.00000000000E+00 -0.45593999997E+02  0.45594000000E+02  0.51100000000E-03 0. -1.
    9900012    2    1    2    0    0 -0.23933858498E+02 -0.24344335523E+01  0.36122946052E+02  0.47787270965E+02  0.19999999639E+02 0.  0.
         12    1    1    2    0    0  0.23933858498E+02  0.24344335523E+01 -0.36122946052E+02  0.43400729035E+02  0.00000000000E+00 0. -1.
         11    1    3    3    0    0 -0.27405253234E+01  0.24993718163E+01 -0.83740862194E-01  0.37100338701E+01  0.51100000000E-03 0. -1.
        -11    1    3    3    0    0 -0.17699661534E+02 -0.41414903155E+01  0.36185602209E+02  0.40494786923E+02  0.51100000000E-03 0.  1.
        -12    1    3    3    0    0 -0.34936716400E+01 -0.79231505305E+00  0.21084704857E-01  0.35824501722E+01  0.00000000000E+00 0.  1.
</event>
<event>
 7    1  0.5031164E-009  0.4778727E+02  0.7816164E-02  0.1312668E+00
        -11   -1    0    0    0    0  0.00000000000E+00  0.00000000000E+00  0.45593999997E+02  0.45594000000E+02  0.51100000000E-03 0.  1.
         11   -1    0    0    0    0 -0.00000000000E+00 -0.00000000000E+00 -0.45593999997E+02  0.45594000000E+02  0.51100000000E-03 0. -1.
    9900012    2    1    2    0    0  0.39111489102E+02  0.18809970918E+02  0.31564063642E+00  0.47787271726E+02  0.20000003108E+02 0.  0.
         12    1    1    2    0    0 -0.39111489102E+02 -0.18809970918E+02 -0.31564063642E+00  0.43400728274E+02  0.00000000000E+00 0. -1.
         11    1    3    3    0    0 -0.16744653985E+01  0.76609560873E+00  0.12713942101E+01  0.22376729768E+01  0.51100000000E-03 0. -1.
        -11    1    3    3    0    0  0.35515618198E+02  0.17788614482E+02  0.14557858039E+01  0.39748122644E+02  0.51100000000E-03 0.  1.
         12    1    3    3    0    0  0.52703363028E+01  0.25526082721E+00 -0.24115393776E+01  0.58014761057E+01  0.00000000000E+00 0. -1.
</event>
<event>
 7    1  0.5031164E-009  0.4778727E+02  0.7816164E-02  0.1312668E+00
        -11   -1    0    0    0    0  0.00000000000E+00  0.00000000000E+00  0.45593999997E+02  0.45594000000E+02  0.51100000000E-03 0. -1.
         11   -1    0    0    0    0 -0.00000000000E+00 -0.00000000000E+00 -0.45593999997E+02  0.45594000000E+02  0.51100000000E-03 0.  1.
    9900012    2    1    2    0    0  0.32328267587E+02 -0.17647928822E+02 -0.22957728547E+02  0.47787267553E+02  0.19999984080E+02 0.  0.
         12    1    1    2    0    0 -0.32328267587E+02  0.17647928822E+02  0.22957728547E+02  0.43400732447E+02  0.00000000000E+00 0. -1.
         11    1    3    3    0    0  0.20516239523E+02 -0.13515437432E+02 -0.19309454543E+02  0.31248010627E+02  0.51100000000E-03 0. -1.
        -11    1    3    3    0    0 -0.10883925781E+01  0.15060052660E+01  0.37764318657E+00  0.18961183779E+01  0.51100000000E-03 0.  1.
        -12    1    3    3    0    0  0.12900420643E+02 -0.56384966565E+01 -0.40259171904E+01  0.14643138548E+02  0.00000000000E+00 0.  1.
</event>
<event>
 7    1  0.5031164E-009  0.4778727E+02  0.7816164E-02  0.1312668E+00
        -11   -1    0    0    0    0  0.00000000000E+00  0.00000000000E+00  0.45593999997E+02  0.45594000000E+02  0.51100000000E-03 0.  1.
         11   -1    0    0    0    0 -0.00000000000E+00 -0.00000000000E+00 -0.45593999997E+02  0.45594000000E+02  0.51100000000E-03 0. -1.
    9900012    2    1    2    0    0 -0.35137588636E+02 -0.92152823290E+01  0.23749773890E+02  0.47787270474E+02  0.19999997399E+02 0.  0.
         12    1    1    2    0    0  0.35137588636E+02  0.92152823290E+01 -0.23749773890E+02  0.43400729526E+02  0.00000000000E+00 0. -1.
         11    1    3    3    0    0 -0.82088724194E+00 -0.39307628126E+01 -0.15810362912E+01  0.43156028742E+01  0.51100000000E-03 0. -1.
        -11    1    3    3    0    0 -0.17996166141E+02  0.34735413716E+00  0.14240993404E+02  0.22951874522E+02  0.51100000000E-03 0.  1.
         12    1    3    3    0    0 -0.16320535253E+02 -0.56318736536E+01  0.11089816777E+02  0.20519793077E+02  0.00000000000E+00 0. -1.
</event>
<event>
 7    1  0.5031164E-009  0.4778727E+02  0.7816164E-02  0.1312668E+00
        -11   -1    0    0    0    0  0.00000000000E+00  0.00000000000E+00  0.45593999997E+02  0.45594000000E+02  0.51100000000E-03 0.  1.
         11   -1    0    0    0    0 -0.00000000000E+00 -0.00000000000E+00 -0.45593999997E+02  0.45594000000E+02  0.51100000000E-03 0. -1.
    9900012    2    1    2    0    0 -0.25423475134E+02  0.20151192568E+02  0.28830531846E+02  0.47787271707E+02  0.20000003022E+02 0.  0.
         12    1    1    2    0    0  0.25423475134E+02 -0.20151192568E+02 -0.28830531846E+02  0.43400728293E+02  0.00000000000E+00 0. -1.
         11    1    3    3    0    0 -0.56810566324E+01  0.45865347814E+01 -0.12771176451E+00  0.73025349241E+01  0.51100000000E-03 0. -1.
        -11    1    3    3    0    0 -0.18384550308E+02  0.89397184317E+01  0.26074454228E+02  0.33132875203E+02  0.51100000000E-03 0.  1.
         12    1    3    3    0    0 -0.13578681935E+01  0.66249393547E+01  0.28837893826E+01  0.73518615798E+01  0.00000000000E+00 0. -1.
</event>
<event>
 7    1  0.5031164E-009  0.4778727E+02  0.7816164E-02  0.1312668E+00
        -11   -1    0    0    0    0  0.00000000000E+00  0.00000000000E+00  0.45593999997E+02  0.45594000000E+02  0.51100000000E-03 0.  1.
         11   -1    0    0    0    0 -0.00000000000E+00 -0.00000000000E+00 -0.45593999997E+02  0.45594000000E+02  0.51100000000E-03 0. -1.
    9900012    2    1    2    0    0  0.80886834918E+01 -0.21962344364E+01  0.42583720062E+02  0.47787268893E+02  0.19999990190E+02 0.  0.
         12    1    1    2    0    0 -0.80886834918E+01  0.21962344364E+01 -0.42583720062E+02  0.43400731107E+02  0.00000000000E+00 0. -1.
         11    1    3    3    0    0  0.17166400073E+01 -0.12632478883E+01  0.20161363680E+00  0.21408634851E+01  0.51100000000E-03 0. -1.
        -11    1    3    3    0    0 -0.36314515883E+01 -0.48581336014E+01  0.12574243950E+02  0.13960677416E+02  0.51100000000E-03 0.  1.
        -12    1    3    3    0    0  0.10003495073E+02  0.39251470534E+01  0.29807862475E+02  0.31685727992E+02  0.00000000000E+00 0.  1.
</event>
<event>
 7    1  0.6244646E-009  0.4778727E+02  0.7816164E-02  0.1312668E+00
        -11   -1    0    0    0    0  0.00000000000E+00  0.00000000000E+00  0.45593999997E+02  0.45594000000E+02  0.51100000000E-03 0.  1.
         11   -1    0    0    0    0 -0.00000000000E+00 -0.00000000000E+00 -0.45593999997E+02  0.45594000000E+02  0.51100000000E-03 0. -1.
    9900012    2    1    2    0    0 -0.25331704279E+02 -0.33621889537E+02 -0.10559218043E+02  0.47787265174E+02  0.19999973237E+02 0.  0.
         12    1    1    2    0    0  0.25331704279E+02  0.33621889537E+02  0.10559218043E+02  0.43400734826E+02  0.00000000000E+00 0. -1.
         11    1    3    3    0    0  0.18064214527E+01 -0.53576300260E+01 -0.12753777081E+01  0.57960285127E+01  0.51100000000E-03 0. -1.
        -11    1    3    3    0    0 -0.19422525203E+02 -0.18069459523E+02 -0.59847388014E+00  0.26534845467E+02  0.51100000000E-03 0.  1.
        -12    1    3    3    0    0 -0.77156005291E+01 -0.10194799988E+02 -0.86853664550E+01  0.15456391195E+02  0.00000000000E+00 0.  1.
</event>
<event>
 7    1  0.5031164E-009  0.4778727E+02  0.7816164E-02  0.1312668E+00
        -11   -1    0    0    0    0  0.00000000000E+00  0.00000000000E+00  0.45593999997E+02  0.45594000000E+02  0.51100000000E-03 0. -1.
         11   -1    0    0    0    0 -0.00000000000E+00 -0.00000000000E+00 -0.45593999997E+02  0.45594000000E+02  0.51100000000E-03 0.  1.
    9900012    2    1    2    0    0  0.33119237459E+02 -0.20504140530E+02 -0.19139483267E+02  0.47787268572E+02  0.19999988729E+02 0.  0.
         12    1    1    2    0    0 -0.33119237459E+02  0.20504140530E+02  0.19139483267E+02  0.43400731428E+02  0.00000000000E+00 0. -1.
         11    1    3    3    0    0  0.81206237308E+01 -0.17062185263E+01 -0.12812763111E+02  0.15265078128E+02  0.51100000000E-03 0. -1.
        -11    1    3    3    0    0  0.17277126685E+02 -0.99362086459E+01 -0.21404791055E+01  0.20045173978E+02  0.51100000000E-03 0.  1.
         12    1    3    3    0    0  0.77214870431E+01 -0.88617133576E+01 -0.41862410503E+01  0.12477016467E+02  0.00000000000E+00 0. -1.
</event>
<event>
 7    1  0.5031164E-009  0.4778727E+02  0.7816164E-02  0.1312668E+00
        -11   -1    0    0    0    0  0.00000000000E+00  0.00000000000E+00  0.45593999997E+02  0.45594000000E+02  0.51100000000E-03 0.  1.
         11   -1    0    0    0    0 -0.00000000000E+00 -0.00000000000E+00 -0.45593999997E+02  0.45594000000E+02  0.51100000000E-03 0. -1.
    9900012    2    1    2    0    0 -0.25329975850E+02 -0.25536333543E+02  0.24288090183E+02  0.47787270374E+02  0.19999996942E+02 0.  0.
         12    1    1    2    0    0  0.25329975850E+02  0.25536333543E+02 -0.24288090183E+02  0.43400729626E+02  0.00000000000E+00 0. -1.
         11    1    3    3    0    0 -0.11099086340E+02 -0.17859876319E+02  0.44923270158E+01  0.21502230163E+02  0.51100000000E-03 0. -1.
        -11    1    3    3    0    0 -0.12254907605E+02 -0.45066384571E+01  0.12436832966E+02  0.18032397652E+02  0.51100000000E-03 0.  1.
         12    1    3    3    0    0 -0.19759819051E+01 -0.31698187667E+01  0.73589302003E+01  0.82526425584E+01  0.00000000000E+00 0. -1.
</event>
<event>
 7    1  0.5031164E-009  0.4778726E+02  0.7816164E-02  0.1312668E+00
        -11   -1    0    0    0    0  0.00000000000E+00  0.00000000000E+00  0.45593999997E+02  0.45594000000E+02  0.51100000000E-03 0.  1.
         11   -1    0    0    0    0 -0.00000000000E+00 -0.00000000000E+00 -0.45593999997E+02  0.45594000000E+02  0.51100000000E-03 0. -1.
    9900012    2    1    2    0    0 -0.49787319724E+01 -0.38833295647E+02  0.18729971856E+02  0.47787257281E+02  0.19999937245E+02 0.  0.
         12    1    1    2    0    0  0.49787319724E+01  0.38833295647E+02 -0.18729971856E+02  0.43400742719E+02  0.00000000000E+00 0. -1.
         11    1    3    3    0    0 -0.59516041333E+01 -0.34786093533E+02  0.17582553266E+02  0.39428924341E+02  0.51100000000E-03 0. -1.
        -11    1    3    3    0    0 -0.13485946300E+01 -0.52607173170E+01 -0.15472619593E+00  0.54330281264E+01  0.51100000000E-03 0.  1.
         12    1    3    3    0    0  0.23214667909E+01  0.12135152030E+01  0.13021447862E+01  0.29253048137E+01  0.00000000000E+00 0. -1.
</event>
<event>
 7    1  0.5031164E-009  0.4778727E+02  0.7816164E-02  0.1312668E+00
        -11   -1    0    0    0    0  0.00000000000E+00  0.00000000000E+00  0.45593999997E+02  0.45594000000E+02  0.51100000000E-03 0.  1.
         11   -1    0    0    0    0 -0.00000000000E+00 -0.00000000000E+00 -0.45593999997E+02  0.45594000000E+02  0.51100000000E-03 0. -1.
    9900012    2    1    2    0    0  0.55798762293E+01 -0.29244603474E+02  0.31579127539E+02  0.47787272503E+02  0.20000006651E+02 0.  0.
         12    1    1    2    0    0 -0.55798762293E+01  0.29244603474E+02 -0.31579127539E+02  0.43400727497E+02  0.00000000000E+00 0. -1.
         11    1    3    3    0    0 -0.38765232568E+01 -0.10635771772E+02  0.37183908454E+01  0.11915263509E+02  0.51100000000E-03 0. -1.
        -11    1    3    3    0    0  0.29918930224E+01 -0.14326039140E+02  0.20437415570E+02  0.25137119499E+02  0.51100000000E-03 0.  1.
         12    1    3    3    0    0  0.64645064636E+01 -0.42827925624E+01  0.74233211243E+01  0.10734889495E+02  0.00000000000E+00 0. -1.
</event>
<event>
 7    1  0.5031164E-009  0.4778727E+02  0.7816164E-02  0.1312668E+00
        -11   -1    0    0    0    0  0.00000000000E+00  0.00000000000E+00  0.45593999997E+02  0.45594000000E+02  0.51100000000E-03 0. -1.
         11   -1    0    0    0    0 -0.00000000000E+00 -0.00000000000E+00 -0.45593999997E+02  0.45594000000E+02  0.51100000000E-03 0.  1.
    9900012    2    1    2    0    0  0.29355187987E+01  0.43300831203E+02 -0.20985193028E+00  0.47787270844E+02  0.19999999085E+02 0.  0.
         12    1    1    2    0    0 -0.29355187987E+01 -0.43300831203E+02  0.20985193028E+00  0.43400729156E+02  0.00000000000E+00 0. -1.
         11    1    3    3    0    0  0.53927880361E+00  0.23360769321E+02 -0.89560491280E+01  0.25024531587E+02  0.51100000000E-03 0. -1.
        -11    1    3    3    0    0  0.88437797502E+00  0.10104101274E+02  0.10785576814E+01  0.10199915387E+02  0.51100000000E-03 0.  1.
         12    1    3    3    0    0  0.15118620201E+01  0.98359606079E+01  0.76676395163E+01  0.12562823870E+02  0.00000000000E+00 0. -1.
</event>
<event>
 7    1  0.5031164E-009  0.4778727E+02  0.7816164E-02  0.1312668E+00
        -11   -1    0    0    0    0  0.00000000000E+00  0.00000000000E+00  0.45593999997E+02  0.45594000000E+02  0.51100000000E-03 0.  1.
         11   -1    0    0    0    0 -0.00000000000E+00 -0.00000000000E+00 -0.45593999997E+02  0.45594000000E+02  0.51100000000E-03 0. -1.
    9900012    2    1    2    0    0 -0.16721844620E+02 -0.39752724305E+02  0.48707396901E+01  0.47787270948E+02  0.19999999560E+02 0.  0.
         12    1    1    2    0    0  0.16721844620E+02  0.39752724305E+02 -0.48707396901E+01  0.43400729052E+02  0.00000000000E+00 0. -1.
         11    1    3    3    0    0 -0.14068378281E+02 -0.25821903578E+02  0.99844679375E+00  0.29422557131E+02  0.51100000000E-03 0. -1.
        -11    1    3    3    0    0 -0.13220327073E+01 -0.10635923610E+02 -0.25570587255E+01  0.11018583897E+02  0.51100000000E-03 0.  1.
         12    1    3    3    0    0 -0.13314336315E+01 -0.32948971167E+01  0.64293516219E+01  0.73461299201E+01  0.00000000000E+00 0. -1.
</event>
<event>
 7    1  0.5031164E-009  0.4778725E+02  0.7816164E-02  0.1312668E+00
        -11   -1    0    0    0    0  0.00000000000E+00  0.00000000000E+00  0.45593999997E+02  0.45594000000E+02  0.51100000000E-03 0.  1.
         11   -1    0    0    0    0 -0.00000000000E+00 -0.00000000000E+00 -0.45593999997E+02  0.45594000000E+02  0.51100000000E-03 0. -1.
    9900012    2    1    2    0    0  0.24138900064E+02  0.72001521184E+01  0.35342558103E+02  0.47787250006E+02  0.19999904075E+02 0.  0.
         12    1    1    2    0    0 -0.24138900064E+02 -0.72001521184E+01 -0.35342558103E+02  0.43400749994E+02  0.00000000000E+00 0. -1.
         11    1    3    3    0    0  0.19742734861E+01 -0.78346572290E+00  0.13571066714E+01  0.25205779329E+01  0.51100000000E-03 0. -1.
        -11    1    3    3    0    0  0.23716348586E+02  0.69964864108E+01  0.35233312196E+02  0.43044190095E+02  0.51100000000E-03 0.  1.
        -12    1    3    3    0    0 -0.15517220089E+01  0.98713143056E+00 -0.12478607642E+01  0.22224819777E+01  0.00000000000E+00 0.  1.
</event>
<event>
 7    1  0.5031164E-009  0.4778727E+02  0.7816164E-02  0.1312668E+00
        -11   -1    0    0    0    0  0.00000000000E+00  0.00000000000E+00  0.45593999997E+02  0.45594000000E+02  0.51100000000E-03 0. -1.
         11   -1    0    0    0    0 -0.00000000000E+00 -0.00000000000E+00 -0.45593999997E+02  0.45594000000E+02  0.51100000000E-03 0.  1.
    9900012    2    1    2    0    0  0.26361396897E+02  0.32773569283E+02 -0.10704821801E+02  0.47787270747E+02  0.19999998643E+02 0.  0.
         12    1    1    2    0    0 -0.26361396897E+02 -0.32773569283E+02  0.10704821801E+02  0.43400729253E+02  0.00000000000E+00 0. -1.
         11    1    3    3    0    0  0.27486187356E+02  0.27093393474E+02 -0.67214015212E+01  0.39175498772E+02  0.51100000000E-03 0. -1.
        -11    1    3    3    0    0 -0.10133732581E+01  0.64791555186E+01 -0.41859707176E+01  0.77800213820E+01  0.51100000000E-03 0.  1.
         12    1    3    3    0    0 -0.11141720069E+00 -0.79897970984E+00  0.20255043812E+00  0.83175059322E+00  0.00000000000E+00 0. -1.
</event>
<event>
 7    1  0.5031164E-009  0.4778727E+02  0.7816164E-02  0.1312668E+00
        -11   -1    0    0    0    0  0.00000000000E+00  0.00000000000E+00  0.45593999997E+02  0.45594000000E+02  0.51100000000E-03 0.  1.
         11   -1    0    0    0    0 -0.00000000000E+00 -0.00000000000E+00 -0.45593999997E+02  0.45594000000E+02  0.51100000000E-03 0. -1.
    9900012    2    1    2    0    0  0.66783038479E+01 -0.33719314420E+02  0.26495877943E+02  0.47787268956E+02  0.19999990476E+02 0.  0.
         12    1    1    2    0    0 -0.66783038479E+01  0.33719314420E+02 -0.26495877943E+02  0.43400731044E+02  0.00000000000E+00 0. -1.
         11    1    3    3    0    0 -0.22397899346E+01 -0.96822524450E+00  0.83296221547E+00  0.25783609888E+01  0.51100000000E-03 0. -1.
        -11    1    3    3    0    0  0.15684772752E+01 -0.28719123107E+02  0.18649225766E+02  0.34278882347E+02  0.51100000000E-03 0.  1.
        -12    1    3    3    0    0  0.73496165072E+01 -0.40319660679E+01  0.70136899615E+01  0.10930025620E+02  0.00000000000E+00 0.  1.
</event>
<event>
 7    1  0.5031164E-009  0.4778727E+02  0.7816164E-02  0.1312668E+00
        -11   -1    0    0    0    0  0.00000000000E+00  0.00000000000E+00  0.45593999997E+02  0.45594000000E+02  0.51100000000E-03 0. -1.
         11   -1    0    0    0    0 -0.00000000000E+00 -0.00000000000E+00 -0.45593999997E+02  0.45594000000E+02  0.51100000000E-03 0.  1.
    9900012    2    1    2    0    0 -0.69201175430E+01  0.17490316704E+02 -0.39112967512E+02  0.47787269214E+02  0.19999991653E+02 0.  0.
         12    1    1    2    0    0  0.69201175430E+01 -0.17490316704E+02  0.39112967512E+02  0.43400730786E+02  0.00000000000E+00 0. -1.
         11    1    3    3    0    0  0.56363612422E+01  0.16519633976E+01 -0.36530970346E+01  0.69168395475E+01  0.51100000000E-03 0. -1.
        -11    1    3    3    0    0 -0.73223122829E+01  0.90191740760E+01 -0.18266391742E+02  0.21647697931E+02  0.51100000000E-03 0.  1.
         12    1    3    3    0    0 -0.52341665023E+01  0.68191792304E+01 -0.17193478735E+02  0.19222731735E+02  0.00000000000E+00 0. -1.
</event>
<event>
 7    1  0.5031164E-009  0.4778727E+02  0.7816164E-02  0.1312668E+00
        -11   -1    0    0    0    0  0.00000000000E+00  0.00000000000E+00  0.45593999997E+02  0.45594000000E+02  0.51100000000E-03 0.  1.
         11   -1    0    0    0    0 -0.00000000000E+00 -0.00000000000E+00 -0.45593999997E+02  0.45594000000E+02  0.51100000000E-03 0. -1.
    9900012    2    1    2    0    0  0.18779589619E+02 -0.19574012420E+02  0.33879320137E+02  0.47787270958E+02  0.19999999605E+02 0.  0.
         12    1    1    2    0    0 -0.18779589619E+02  0.19574012420E+02 -0.33879320137E+02  0.43400729042E+02  0.00000000000E+00 0. -1.
         11    1    3    3    0    0  0.13911574563E+02 -0.53768108173E+01  0.89909935289E+01  0.17414935151E+02  0.51100000000E-03 0.  1.
        -11    1    3    3    0    0  0.19351369101E+01  0.10164872075E+00  0.71111296846E+01  0.73704309898E+01  0.51100000000E-03 0. -1.
         12    1    3    3    0    0  0.29328781452E+01 -0.14298850323E+02  0.17777196924E+02  0.23001904817E+02  0.00000000000E+00 0. -1.
</event>
<event>
 7    1  0.5031164E-009  0.4778727E+02  0.7816164E-02  0.1312668E+00
        -11   -1    0    0    0    0  0.00000000000E+00  0.00000000000E+00  0.45593999997E+02  0.45594000000E+02  0.51100000000E-03 0.  1.
         11   -1    0    0    0    0 -0.00000000000E+00 -0.00000000000E+00 -0.45593999997E+02  0.45594000000E+02  0.51100000000E-03 0. -1.
    9900012    2    1    2    0    0 -0.31329792866E+00 -0.35112902093E+02  0.25507042614E+02  0.47787271067E+02  0.20000000104E+02 0.  0.
         12    1    1    2    0    0  0.31329792866E+00  0.35112902093E+02 -0.25507042614E+02  0.43400728933E+02  0.00000000000E+00 0. -1.
         11    1    3    3    0    0 -0.24135417115E+01 -0.17053492419E+02  0.68502167010E+01  0.18535702209E+02  0.51100000000E-03 0. -1.
        -11    1    3    3    0    0  0.43699632918E+01 -0.53118699191E+00  0.63008296984E+01  0.76862991057E+01  0.51100000000E-03 0.  1.
        -12    1    3    3    0    0 -0.22697195090E+01 -0.17528222683E+02  0.12355996214E+02  0.21565269753E+02  0.00000000000E+00 0.  1.
</event>
<event>
 7    1  0.5031164E-009  0.4778727E+02  0.7816164E-02  0.1312668E+00
        -11   -1    0    0    0    0  0.00000000000E+00  0.00000000000E+00  0.45593999997E+02  0.45594000000E+02  0.51100000000E-03 0. -1.
         11   -1    0    0    0    0 -0.00000000000E+00 -0.00000000000E+00 -0.45593999997E+02  0.45594000000E+02  0.51100000000E-03 0.  1.
    9900012    2    1    2    0    0  0.91019602081E+01 -0.42338881129E+02  0.28629931844E+01  0.47787271149E+02  0.20000000475E+02 0.  0.
         12    1    1    2    0    0 -0.91019602081E+01  0.42338881129E+02 -0.28629931844E+01  0.43400728851E+02  0.00000000000E+00 0. -1.
         11    1    3    3    0    0 -0.18672700198E+01 -0.12960592780E+02  0.40552521279E+01  0.13707980618E+02  0.51100000000E-03 0. -1.
        -11    1    3    3    0    0  0.27463629502E+01 -0.61114618584E+01 -0.59346967669E+01  0.89505922417E+01  0.51100000000E-03 0.  1.
        -12    1    3    3    0    0  0.82228672778E+01 -0.23266826490E+02  0.47424378233E+01  0.25128698289E+02  0.00000000000E+00 0.  1.
</event>
<event>
 7    1  0.5031164E-009  0.4778727E+02  0.7816164E-02  0.1312668E+00
        -11   -1    0    0    0    0  0.00000000000E+00  0.00000000000E+00  0.45593999997E+02  0.45594000000E+02  0.51100000000E-03 0. -1.
         11   -1    0    0    0    0 -0.00000000000E+00 -0.00000000000E+00 -0.45593999997E+02  0.45594000000E+02  0.51100000000E-03 0.  1.
    9900012    2    1    2    0    0  0.75685479637E+01 -0.42716904899E+02 -0.12674168865E+01  0.47787271573E+02  0.20000002410E+02 0.  0.
         12    1    1    2    0    0 -0.75685479637E+01  0.42716904899E+02  0.12674168865E+01  0.43400728427E+02  0.00000000000E+00 0. -1.
         11    1    3    3    0    0 -0.74305634753E+00 -0.27891537988E+02 -0.28088587013E+01  0.28042462651E+02  0.51100000000E-03 0. -1.
        -11    1    3    3    0    0  0.87363137146E+00  0.14128970105E+01 -0.57785130421E+00  0.17588127036E+01  0.51100000000E-03 0.  1.
        -12    1    3    3    0    0  0.74379729398E+01 -0.16238263922E+02  0.21192931191E+01  0.17985996219E+02  0.00000000000E+00 0.  1.
</event>
<event>
 7    1  0.5031164E-009  0.4778727E+02  0.7816164E-02  0.1312668E+00
        -11   -1    0    0    0    0  0.00000000000E+00  0.00000000000E+00  0.45593999997E+02  0.45594000000E+02  0.51100000000E-03 0. -1.
         11   -1    0    0    0    0 -0.00000000000E+00 -0.00000000000E+00 -0.45593999997E+02  0.45594000000E+02  0.51100000000E-03 0.  1.
    9900012    2    1    2    0    0  0.18306878227E+02  0.38569459679E+02  0.78024529153E+01  0.47787270953E+02  0.19999999582E+02 0.  0.
         12    1    1    2    0    0 -0.18306878227E+02 -0.38569459679E+02 -0.78024529153E+01  0.43400729047E+02  0.00000000000E+00 0. -1.
         11    1    3    3    0    0  0.15318507623E+02  0.12289257244E+02  0.46462731792E+01  0.20180940863E+02  0.51100000000E-03 0. -1.
        -11    1    3    3    0    0  0.13427606374E+01  0.13576696745E+02 -0.20175662884E+01  0.13791311563E+02  0.51100000000E-03 0.  1.
         12    1    3    3    0    0  0.16456099666E+01  0.12703505690E+02  0.51737460245E+01  0.13815018527E+02  0.00000000000E+00 0. -1.
</event>
<event>
 7    1  0.5031164E-009  0.4778727E+02  0.7816164E-02  0.1312668E+00
        -11   -1    0    0    0    0  0.00000000000E+00  0.00000000000E+00  0.45593999997E+02  0.45594000000E+02  0.51100000000E-03 0. -1.
         11   -1    0    0    0    0 -0.00000000000E+00 -0.00000000000E+00 -0.45593999997E+02  0.45594000000E+02  0.51100000000E-03 0.  1.
    9900012    2    1    2    0    0 -0.66493486870E+01 -0.40718188907E+02 -0.13469920692E+02  0.47787268332E+02  0.19999987633E+02 0.  0.
         12    1    1    2    0    0  0.66493486870E+01  0.40718188907E+02  0.13469920692E+02  0.43400731668E+02  0.00000000000E+00 0. -1.
         11    1    3    3    0    0  0.81853640430E+00  0.88062509400E+00 -0.16804712534E+01  0.20662735289E+01  0.51100000000E-03 0. -1.
        -11    1    3    3    0    0 -0.30260116692E+01 -0.28981417544E+02 -0.13717451550E+02  0.32206331471E+02  0.51100000000E-03 0.  1.
        -12    1    3    3    0    0 -0.44418734221E+01 -0.12617396457E+02  0.19280021110E+01  0.13514663333E+02  0.00000000000E+00 0.  1.
</event>
<event>
 7    1  0.5031164E-009  0.4778727E+02  0.7816164E-02  0.1312668E+00
        -11   -1    0    0    0    0  0.00000000000E+00  0.00000000000E+00  0.45593999997E+02  0.45594000000E+02  0.51100000000E-03 0.  1.
         11   -1    0    0    0    0 -0.00000000000E+00 -0.00000000000E+00 -0.45593999997E+02  0.45594000000E+02  0.51100000000E-03 0. -1.
    9900012    2    1    2    0    0  0.30053594371E+02 -0.29907592967E+02 -0.92704085157E+01  0.47787272752E+02  0.20000007783E+02 0.  0.
         12    1    1    2    0    0 -0.30053594371E+02  0.29907592967E+02  0.92704085157E+01  0.43400727248E+02  0.00000000000E+00 0. -1.
         11    1    3    3    0    0  0.21773335730E+02 -0.30251290891E+02 -0.11185547538E+02  0.38914460337E+02  0.51100000000E-03 0.  1.
        -11    1    3    3    0    0  0.74642531412E+01  0.97638213082E+00  0.21188685787E+01  0.78203581335E+01  0.51100000000E-03 0. -1.
         12    1    3    3    0    0  0.81600549960E+00 -0.63268420650E+00 -0.20372955635E+00  0.10524542806E+01  0.00000000000E+00 0. -1.
</event>
<event>
 7    1  0.5031164E-009  0.4778727E+02  0.7816164E-02  0.1312668E+00
        -11   -1    0    0    0    0  0.00000000000E+00  0.00000000000E+00  0.45593999997E+02  0.45594000000E+02  0.51100000000E-03 0. -1.
         11   -1    0    0    0    0 -0.00000000000E+00 -0.00000000000E+00 -0.45593999997E+02  0.45594000000E+02  0.51100000000E-03 0.  1.
    9900012    2    1    2    0    0 -0.16308811740E+02 -0.88179917672E+01 -0.39241421089E+02  0.47787269035E+02  0.19999990839E+02 0.  0.
         12    1    1    2    0    0  0.16308811740E+02  0.88179917672E+01  0.39241421089E+02  0.43400730965E+02  0.00000000000E+00 0. -1.
         11    1    3    3    0    0  0.16238642879E+01 -0.34650655850E+01 -0.15969792583E+02  0.16421872309E+02  0.51100000000E-03 0. -1.
        -11    1    3    3    0    0 -0.10762629515E+02  0.15609976141E+01 -0.14256532469E+02  0.17930968349E+02  0.51100000000E-03 0.  1.
        -12    1    3    3    0    0 -0.71700465137E+01 -0.69139237963E+01 -0.90150960374E+01  0.13434428378E+02  0.00000000000E+00 0.  1.
</event>
<event>
 7    1  0.5031164E-009  0.4778727E+02  0.7816164E-02  0.1312668E+00
        -11   -1    0    0    0    0  0.00000000000E+00  0.00000000000E+00  0.45593999997E+02  0.45594000000E+02  0.51100000000E-03 0.  1.
         11   -1    0    0    0    0 -0.00000000000E+00 -0.00000000000E+00 -0.45593999997E+02  0.45594000000E+02  0.51100000000E-03 0. -1.
    9900012    2    1    2    0    0  0.79259828111E+01 -0.24952818574E+02  0.34614435041E+02  0.47787268767E+02  0.19999989617E+02 0.  0.
         12    1    1    2    0    0 -0.79259828111E+01  0.24952818574E+02 -0.34614435041E+02  0.43400731233E+02  0.00000000000E+00 0. -1.
         11    1    3    3    0    0 -0.19857754865E+01  0.30440292602E+00  0.80879479868E+01  0.83337187571E+01  0.51100000000E-03 0. -1.
        -11    1    3    3    0    0  0.29504055929E+00  0.28738277484E+00  0.41180454227E+01  0.41385910833E+01  0.51100000000E-03 0.  1.
         12    1    3    3    0    0  0.96167177382E+01 -0.25544604275E+02  0.22408441632E+02  0.35314958927E+02  0.00000000000E+00 0. -1.
</event>
<event>
 7    1  0.5031164E-009  0.4778728E+02  0.7816164E-02  0.1312668E+00
        -11   -1    0    0    0    0  0.00000000000E+00  0.00000000000E+00  0.45593999997E+02  0.45594000000E+02  0.51100000000E-03 0.  1.
         11   -1    0    0    0    0 -0.00000000000E+00 -0.00000000000E+00 -0.45593999997E+02  0.45594000000E+02  0.51100000000E-03 0. -1.
    9900012    2    1    2    0    0  0.13813522236E+02  0.17763983490E+02  0.37111323524E+02  0.47787276047E+02  0.20000022807E+02 0.  0.
         12    1    1    2    0    0 -0.13813522236E+02 -0.17763983490E+02 -0.37111323524E+02  0.43400723953E+02  0.00000000000E+00 0. -1.
         11    1    3    3    0    0 -0.20868621296E+01  0.63358816586E+01  0.11910141278E+02  0.13651001995E+02  0.51100000000E-03 0. -1.
        -11    1    3    3    0    0  0.14419342341E+02  0.36129683146E+01  0.14173310022E+02  0.20539077166E+02  0.51100000000E-03 0.  1.
        -12    1    3    3    0    0  0.14810420247E+01  0.78151335165E+01  0.11027872223E+02  0.13597196885E+02  0.00000000000E+00 0.  1.
</event>
<event>
 7    1  0.5031164E-009  0.4778727E+02  0.7816164E-02  0.1312668E+00
        -11   -1    0    0    0    0  0.00000000000E+00  0.00000000000E+00  0.45593999997E+02  0.45594000000E+02  0.51100000000E-03 0.  1.
         11   -1    0    0    0    0 -0.00000000000E+00 -0.00000000000E+00 -0.45593999997E+02  0.45594000000E+02  0.51100000000E-03 0. -1.
    9900012    2    1    2    0    0  0.35256203079E+02 -0.24466534394E+02  0.64816849245E+01  0.47787269588E+02  0.19999993360E+02 0.  0.
         12    1    1    2    0    0 -0.35256203079E+02  0.24466534394E+02 -0.64816849245E+01  0.43400730412E+02  0.00000000000E+00 0. -1.
         11    1    3    3    0    0  0.54720101044E+01  0.17995357347E+01  0.17801030030E+01  0.60290953223E+01  0.51100000000E-03 0. -1.
        -11    1    3    3    0    0  0.13281249456E+02 -0.19240217004E+02  0.45697409680E+01  0.23821420408E+02  0.51100000000E-03 0.  1.
        -12    1    3    3    0    0  0.16502943519E+02 -0.70258531244E+01  0.13184095342E+00  0.17936753858E+02  0.00000000000E+00 0.  1.
</event>
<event>
 7    1  0.5031164E-009  0.4778726E+02  0.7816164E-02  0.1312668E+00
        -11   -1    0    0    0    0  0.00000000000E+00  0.00000000000E+00  0.45593999997E+02  0.45594000000E+02  0.51100000000E-03 0.  1.
         11   -1    0    0    0    0 -0.00000000000E+00 -0.00000000000E+00 -0.45593999997E+02  0.45594000000E+02  0.51100000000E-03 0. -1.
    9900012    2    1    2    0    0 -0.19350354033E+02 -0.24479652565E+02  0.30165117738E+02  0.47787263612E+02  0.19999966111E+02 0.  0.
         12    1    1    2    0    0  0.19350354033E+02  0.24479652565E+02 -0.30165117738E+02  0.43400736388E+02  0.00000000000E+00 0. -1.
         11    1    3    3    0    0 -0.14154975402E+02 -0.70432910827E+01  0.75290704063E+01  0.17511658384E+02  0.51100000000E-03 0. -1.
        -11    1    3    3    0    0 -0.63891841282E+01 -0.77203309056E+01  0.14029968808E+02  0.17241380691E+02  0.51100000000E-03 0.  1.
         12    1    3    3    0    0  0.11938054971E+01 -0.97160305762E+01  0.86060785239E+01  0.13034224537E+02  0.00000000000E+00 0. -1.
</event>
<event>
 7    1  0.5031164E-009  0.4778727E+02  0.7816164E-02  0.1312668E+00
        -11   -1    0    0    0    0  0.00000000000E+00  0.00000000000E+00  0.45593999997E+02  0.45594000000E+02  0.51100000000E-03 0.  1.
         11   -1    0    0    0    0 -0.00000000000E+00 -0.00000000000E+00 -0.45593999997E+02  0.45594000000E+02  0.51100000000E-03 0. -1.
    9900012    2    1    2    0    0  0.13648890750E+02 -0.11552695678E+01  0.41182474046E+02  0.47787273796E+02  0.20000012546E+02 0.  0.
         12    1    1    2    0    0 -0.13648890750E+02  0.11552695678E+01 -0.41182474046E+02  0.43400726204E+02  0.00000000000E+00 0. -1.
         11    1    3    3    0    0  0.26974594085E+01 -0.19082131520E+01  0.10240362076E+01  0.34592217491E+01  0.51100000000E-03 0. -1.
        -11    1    3    3    0    0  0.10668874686E+02 -0.55556319666E+01  0.30522763509E+02  0.32807453819E+02  0.51100000000E-03 0.  1.
        -12    1    3    3    0    0  0.28255665516E+00  0.63085755507E+01  0.96356743296E+01  0.11520598228E+02  0.00000000000E+00 0.  1.
</event>
<event>
 7    1  0.5031164E-009  0.4778727E+02  0.7816164E-02  0.1312668E+00
        -11   -1    0    0    0    0  0.00000000000E+00  0.00000000000E+00  0.45593999997E+02  0.45594000000E+02  0.51100000000E-03 0. -1.
         11   -1    0    0    0    0 -0.00000000000E+00 -0.00000000000E+00 -0.45593999997E+02  0.45594000000E+02  0.51100000000E-03 0.  1.
    9900012    2    1    2    0    0 -0.12339737368E+02  0.13520233148E+02 -0.39351712754E+02  0.47787272825E+02  0.20000008116E+02 0.  0.
         12    1    1    2    0    0  0.12339737368E+02 -0.13520233148E+02  0.39351712754E+02  0.43400727175E+02  0.00000000000E+00 0. -1.
         11    1    3    3    0    0  0.16178089392E+01  0.38201573974E+01  0.27903329555E+00  0.41579764484E+01  0.51100000000E-03 0. -1.
        -11    1    3    3    0    0 -0.43924989092E+01  0.67684808264E+01 -0.14753417790E+02  0.16815757971E+02  0.51100000000E-03 0.  1.
         12    1    3    3    0    0 -0.95650473977E+01  0.29315949247E+01 -0.24877328259E+02  0.26813538406E+02  0.00000000000E+00 0. -1.
</event>
<event>
 7    1  0.5031164E-009  0.4778727E+02  0.7816164E-02  0.1312668E+00
        -11   -1    0    0    0    0  0.00000000000E+00  0.00000000000E+00  0.45593999997E+02  0.45594000000E+02  0.51100000000E-03 0. -1.
         11   -1    0    0    0    0 -0.00000000000E+00 -0.00000000000E+00 -0.45593999997E+02  0.45594000000E+02  0.51100000000E-03 0.  1.
    9900012    2    1    2    0    0 -0.19892245823E+02 -0.34783117849E+02 -0.16675023464E+02  0.47787272602E+02  0.20000007100E+02 0.  0.
         12    1    1    2    0    0  0.19892245823E+02  0.34783117849E+02  0.16675023464E+02  0.43400727398E+02  0.00000000000E+00 0. -1.
         11    1    3    3    0    0  0.12420954111E+01 -0.12469728579E+01  0.95424339561E-01  0.17626254237E+01  0.51100000000E-03 0. -1.
        -11    1    3    3    0    0 -0.48680639236E+01 -0.22455044273E+02 -0.11250473864E+02  0.25583201951E+02  0.51100000000E-03 0.  1.
        -12    1    3    3    0    0 -0.16266277310E+02 -0.11081100718E+02 -0.55199739399E+01  0.20441445227E+02  0.00000000000E+00 0.  1.
</event>
<event>
 7    1  0.5031164E-009  0.4778727E+02  0.7816164E-02  0.1312668E+00
        -11   -1    0    0    0    0  0.00000000000E+00  0.00000000000E+00  0.45593999997E+02  0.45594000000E+02  0.51100000000E-03 0.  1.
         11   -1    0    0    0    0 -0.00000000000E+00 -0.00000000000E+00 -0.45593999997E+02  0.45594000000E+02  0.51100000000E-03 0. -1.
    9900012    2    1    2    0    0  0.26173869880E+02  0.32099760430E+02  0.12967542820E+02  0.47787271308E+02  0.20000001203E+02 0.  0.
         12    1    1    2    0    0 -0.26173869880E+02 -0.32099760430E+02 -0.12967542820E+02  0.43400728692E+02  0.00000000000E+00 0. -1.
         11    1    3    3    0    0 -0.11220716148E+00 -0.18176509349E+00  0.21027017018E+01  0.21135240013E+01  0.51100000000E-03 0. -1.
        -11    1    3    3    0    0  0.14121705019E+02  0.27510926273E+02  0.10304518506E+02  0.32595348118E+02  0.51100000000E-03 0.  1.
        -12    1    3    3    0    0  0.12164372022E+02  0.47705992510E+01  0.56032261202E+00  0.13078399189E+02  0.00000000000E+00 0.  1.
</event>
<event>
 7    1  0.5031164E-009  0.4778726E+02  0.7816164E-02  0.1312668E+00
        -11   -1    0    0    0    0  0.00000000000E+00  0.00000000000E+00  0.45593999997E+02  0.45594000000E+02  0.51100000000E-03 0.  1.
         11   -1    0    0    0    0 -0.00000000000E+00 -0.00000000000E+00 -0.45593999997E+02  0.45594000000E+02  0.51100000000E-03 0. -1.
    9900012    2    1    2    0    0  0.31139948708E+02 -0.28126051435E+02  0.11083920005E+02  0.47787257408E+02  0.19999937827E+02 0.  0.
         12    1    1    2    0    0 -0.31139948708E+02  0.28126051435E+02 -0.11083920005E+02  0.43400742592E+02  0.00000000000E+00 0. -1.
         11    1    3    3    0    0  0.21581103427E+01 -0.11473521118E+02  0.16686959366E+01  0.11793374135E+02  0.51100000000E-03 0. -1.
        -11    1    3    3    0    0  0.26861089654E+02 -0.17801463765E+02  0.94507535216E+01  0.33581646654E+02  0.51100000000E-03 0.  1.
         12    1    3    3    0    0  0.21207487111E+01  0.11489334488E+01 -0.35529453402E-01  0.24122366193E+01  0.00000000000E+00 0. -1.
</event>
<event>
 7    1  0.5031164E-009  0.4778727E+02  0.7816164E-02  0.1312668E+00
        -11   -1    0    0    0    0  0.00000000000E+00  0.00000000000E+00  0.45593999997E+02  0.45594000000E+02  0.51100000000E-03 0.  1.
         11   -1    0    0    0    0 -0.00000000000E+00 -0.00000000000E+00 -0.45593999997E+02  0.45594000000E+02  0.51100000000E-03 0. -1.
    9900012    2    1    2    0    0  0.17576083995E+02 -0.31071209353E+02  0.24683691517E+02  0.47787269520E+02  0.19999993051E+02 0.  0.
         12    1    1    2    0    0 -0.17576083995E+02  0.31071209353E+02 -0.24683691517E+02  0.43400730480E+02  0.00000000000E+00 0. -1.
         11    1    3    3    0    0  0.26144015204E+01 -0.52111554884E+01 -0.33753855500E+01  0.67367992924E+01  0.51100000000E-03 0. -1.
        -11    1    3    3    0    0  0.11559473435E+02 -0.19013079635E+02  0.19656101443E+02  0.29689744820E+02  0.51100000000E-03 0.  1.
         12    1    3    3    0    0  0.34022090398E+01 -0.68469742300E+01  0.84029756235E+01  0.11360725408E+02  0.00000000000E+00 0. -1.
</event>
<event>
 7    1  0.5031164E-009  0.4778725E+02  0.7816164E-02  0.1312668E+00
        -11   -1    0    0    0    0  0.00000000000E+00  0.00000000000E+00  0.45593999997E+02  0.45594000000E+02  0.51100000000E-03 0. -1.
         11   -1    0    0    0    0 -0.00000000000E+00 -0.00000000000E+00 -0.45593999997E+02  0.45594000000E+02  0.51100000000E-03 0.  1.
    9900012    2    1    2    0    0  0.40345840322E+02 -0.52293455792E+01 -0.15115972494E+02  0.47787245272E+02  0.19999882495E+02 0.  0.
         12    1    1    2    0    0 -0.40345840322E+02  0.52293455792E+01  0.15115972494E+02  0.43400754728E+02  0.00000000000E+00 0. -1.
         11    1    3    3    0    0  0.99939478305E+01  0.29580188792E+01 -0.16259309666E+00  0.10423785575E+02  0.51100000000E-03 0. -1.
        -11    1    3    3    0    0  0.22572066893E+02 -0.32164079647E+01 -0.16308339611E+02  0.28032221196E+02  0.51100000000E-03 0.  1.
        -12    1    3    3    0    0  0.77798255985E+01 -0.49709564938E+01  0.13549602139E+01  0.93312385023E+01  0.00000000000E+00 0.  1.
</event>
<event>
 7    1  0.6561307E-009  0.4778727E+02  0.7816164E-02  0.1312668E+00
        -11   -1    0    0    0    0  0.00000000000E+00  0.00000000000E+00  0.45593999997E+02  0.45594000000E+02  0.51100000000E-03 0.  1.
         11   -1    0    0    0    0 -0.00000000000E+00 -0.00000000000E+00 -0.45593999997E+02  0.45594000000E+02  0.51100000000E-03 0. -1.
    9900012    2    1    2    0    0  0.39138104407E+02 -0.36639773283E+01  0.18395862146E+02  0.47787266244E+02  0.19999978113E+02 0.  0.
         12    1    1    2    0    0 -0.39138104407E+02  0.36639773283E+01 -0.18395862146E+02  0.43400733756E+02  0.00000000000E+00 0. -1.
         11    1    3    3    0    0  0.13382361475E+02 -0.26291409896E-01 -0.13187399928E+01  0.13447206599E+02  0.51100000000E-03 0. -1.
        -11    1    3    3    0    0  0.42388485857E+01 -0.33834037134E+01  0.84783255716E+01  0.10064654131E+02  0.51100000000E-03 0.  1.
        -12    1    3    3    0    0  0.21516894347E+02 -0.25428220492E+00  0.11236276567E+02  0.24275405514E+02  0.00000000000E+00 0.  1.
</event>
<event>
 7    1  0.5031164E-009  0.4778728E+02  0.7816164E-02  0.1312668E+00
        -11   -1    0    0    0    0  0.00000000000E+00  0.00000000000E+00  0.45593999997E+02  0.45594000000E+02  0.51100000000E-03 0. -1.
         11   -1    0    0    0    0 -0.00000000000E+00 -0.00000000000E+00 -0.45593999997E+02  0.45594000000E+02  0.51100000000E-03 0.  1.
    9900012    2    1    2    0    0 -0.29907312295E+02 -0.30633968269E+02 -0.71228383242E+01  0.47787283803E+02  0.20000058173E+02 0.  0.
         12    1    1    2    0    0  0.29907312295E+02  0.30633968269E+02  0.71228383242E+01  0.43400716197E+02  0.00000000000E+00 0. -1.
         11    1    3    3    0    0 -0.44263424237E+01 -0.13797509042E+02  0.38600992676E+01  0.14995470304E+02  0.51100000000E-03 0. -1.
        -11    1    3    3    0    0 -0.11101818265E+02 -0.80050948122E+01 -0.25314208586E+01  0.13919051820E+02  0.51100000000E-03 0.  1.
         12    1    3    3    0    0 -0.14379151605E+02 -0.88313644150E+01 -0.84515167331E+01  0.18872761680E+02  0.00000000000E+00 0. -1.
</event>
<event>
 7    1  0.5031164E-009  0.4778727E+02  0.7816164E-02  0.1312668E+00
        -11   -1    0    0    0    0  0.00000000000E+00  0.00000000000E+00  0.45593999997E+02  0.45594000000E+02  0.51100000000E-03 0.  1.
         11   -1    0    0    0    0 -0.00000000000E+00 -0.00000000000E+00 -0.45593999997E+02  0.45594000000E+02  0.51100000000E-03 0. -1.
    9900012    2    1    2    0    0 -0.36784762474E+02  0.22623503560E+02 -0.43222559866E+01  0.47787267743E+02  0.19999984948E+02 0.  0.
         12    1    1    2    0    0  0.36784762474E+02 -0.22623503560E+02  0.43222559866E+01  0.43400732257E+02  0.00000000000E+00 0. -1.
         11    1    3    3    0    0 -0.61443374257E+01  0.56558827279E+01 -0.76343783590E+01  0.11314840919E+02  0.51100000000E-03 0. -1.
        -11    1    3    3    0    0 -0.31136051450E+02  0.16357270998E+02  0.23780687635E+01  0.35251513808E+02  0.51100000000E-03 0.  1.
         12    1    3    3    0    0  0.49562640174E+00  0.61034983380E+00  0.93405360894E+00  0.12209130166E+01  0.00000000000E+00 0. -1.
</event>
<event>
 7    1  0.5031164E-009  0.4778729E+02  0.7816164E-02  0.1312668E+00
        -11   -1    0    0    0    0  0.00000000000E+00  0.00000000000E+00  0.45593999997E+02  0.45594000000E+02  0.51100000000E-03 0. -1.
         11   -1    0    0    0    0 -0.00000000000E+00 -0.00000000000E+00 -0.45593999997E+02  0.45594000000E+02  0.51100000000E-03 0.  1.
    9900012    2    1    2    0    0 -0.41048779841E+02  0.16948372609E+01 -0.13990950242E+02  0.47787291614E+02  0.20000093783E+02 0.  0.
         12    1    1    2    0    0  0.41048779841E+02 -0.16948372609E+01  0.13990950242E+02  0.43400708386E+02  0.00000000000E+00 0. -1.
         11    1    3    3    0    0 -0.13459372558E+01  0.16253797496E+01 -0.22211744867E+01  0.30638248626E+01  0.51100000000E-03 0. -1.
        -11    1    3    3    0    0 -0.20284186513E+02 -0.19556004118E+00 -0.14742988444E+02  0.25076725759E+02  0.51100000000E-03 0.  1.
        -12    1    3    3    0    0 -0.19418656072E+02  0.26501755250E+00  0.29732126893E+01  0.19646740992E+02  0.00000000000E+00 0.  1.
</event>
