<event>
 7    1  0.2578619E-015  0.9000767E+02  0.7816164E-02  0.1186339E+00
        -11   -1    0    0    0    0  0.00000000000E+00  0.00000000000E+00  0.45593999997E+02  0.45594000000E+02  0.51100000000E-03 0.  1.
         11   -1    0    0    0    0 -0.00000000000E+00 -0.00000000000E+00 -0.45593999997E+02  0.45594000000E+02  0.51100000000E-03 0. -1.
    9900012    2    1    2    0    0  0.47748956155E+00  0.67413546067E+00 -0.84303837892E+00  0.90007674363E+02  0.89999934865E+02 0.  0.
        -12    1    1    2    0    0 -0.47748956155E+00 -0.67413546067E+00  0.84303837892E+00  0.11803256369E+01  0.00000000000E+00 0.  1.
         11    1    3    3    0    0  0.30292630493E+01  0.88491371387E+01  0.25940344306E+00  0.93568666299E+01  0.51100000000E-03 0. -1.
        -11    1    3    3    0    0 -0.58427666726E+01  0.35099966747E+02  0.76036278882E+01  0.36386271385E+02  0.51100000000E-03 0.  1.
         12    1    3    3    0    0  0.32909931849E+01 -0.43274968425E+02 -0.87060697102E+01  0.44264536348E+02  0.00000000000E+00 0. -1.
</event>
<event>
 7    1  0.2578619E-015  0.9000770E+02  0.7816164E-02  0.1186339E+00
        -11   -1    0    0    0    0  0.00000000000E+00  0.00000000000E+00  0.45593999997E+02  0.45594000000E+02  0.51100000000E-03 0. -1.
         11   -1    0    0    0    0 -0.00000000000E+00 -0.00000000000E+00 -0.45593999997E+02  0.45594000000E+02  0.51100000000E-03 0.  1.
    9900012    2    1    2    0    0  0.78433629241E+00 -0.86048935402E+00 -0.19359532907E+00  0.90007701521E+02  0.89999962381E+02 0.  0.
        -12    1    1    2    0    0 -0.78433629241E+00  0.86048935402E+00  0.19359532907E+00  0.11802984789E+01  0.00000000000E+00 0.  1.
         11    1    3    3    0    0  0.31835224718E+02 -0.12428040423E+02  0.18219717774E+02  0.38728488708E+02  0.51100000000E-03 0. -1.
        -11    1    3    3    0    0  0.18387128782E+01  0.51806699380E+01  0.72338734231E+01  0.90856552333E+01  0.51100000000E-03 0.  1.
        -12    1    3    3    0    0 -0.32889601304E+02  0.63868811313E+01 -0.25647186526E+02  0.42193557579E+02  0.00000000000E+00 0.  1.
</event>
<event>
 7    1  0.2578619E-015  0.9000774E+02  0.7816164E-02  0.1186339E+00
        -11   -1    0    0    0    0  0.00000000000E+00  0.00000000000E+00  0.45593999997E+02  0.45594000000E+02  0.51100000000E-03 0.  1.
         11   -1    0    0    0    0 -0.00000000000E+00 -0.00000000000E+00 -0.45593999997E+02  0.45594000000E+02  0.51100000000E-03 0. -1.
    9900012    2    1    2    0    0  0.74269443937E+00 -0.72944427540E+00 -0.55617037399E+00  0.90007741780E+02  0.90000003171E+02 0.  0.
        -12    1    1    2    0    0 -0.74269443937E+00  0.72944427540E+00  0.55617037399E+00  0.11802582201E+01  0.00000000000E+00 0.  1.
         11    1    3    3    0    0 -0.85045473366E+01 -0.11796028917E+01 -0.52115766434E+01  0.10043869760E+02  0.51100000000E-03 0. -1.
        -11    1    3    3    0    0 -0.25388704308E+02 -0.52798099494E+01  0.27719811032E+02  0.37958538216E+02  0.51100000000E-03 0.  1.
         12    1    3    3    0    0  0.34635946084E+02  0.57299685657E+01 -0.23064404763E+02  0.42005333804E+02  0.00000000000E+00 0. -1.
</event>
<event>
 7    1  0.2578619E-015  0.9000769E+02  0.7816164E-02  0.1186339E+00
        -11   -1    0    0    0    0  0.00000000000E+00  0.00000000000E+00  0.45593999997E+02  0.45594000000E+02  0.51100000000E-03 0.  1.
         11   -1    0    0    0    0 -0.00000000000E+00 -0.00000000000E+00 -0.45593999997E+02  0.45594000000E+02  0.51100000000E-03 0. -1.
    9900012    2    1    2    0    0  0.57011316942E+00  0.10039730090E+01 -0.24525863260E+00  0.90007685370E+02  0.89999946017E+02 0.  0.
        -12    1    1    2    0    0 -0.57011316942E+00 -0.10039730090E+01  0.24525863260E+00  0.11803146299E+01  0.00000000000E+00 0.  1.
         11    1    3    3    0    0  0.21105976821E+02  0.15997359701E+02 -0.31015968648E+02  0.40784409845E+02  0.51100000000E-03 0. -1.
        -11    1    3    3    0    0 -0.63057594696E-01  0.74662839801E+01  0.97090676721E+01  0.12248076096E+02  0.51100000000E-03 0.  1.
        -12    1    3    3    0    0 -0.20472806057E+02 -0.22459670673E+02  0.21061642344E+02  0.36975199429E+02  0.00000000000E+00 0.  1.
</event>
<event>
 7    1  0.2578619E-015  0.9000769E+02  0.7816164E-02  0.1186339E+00
        -11   -1    0    0    0    0  0.00000000000E+00  0.00000000000E+00  0.45593999997E+02  0.45594000000E+02  0.51100000000E-03 0.  1.
         11   -1    0    0    0    0 -0.00000000000E+00 -0.00000000000E+00 -0.45593999997E+02  0.45594000000E+02  0.51100000000E-03 0. -1.
    9900012    2    1    2    0    0 -0.91512540848E+00 -0.62688068387E+00 -0.40335648510E+00  0.90007690566E+02  0.89999951282E+02 0.  0.
        -12    1    1    2    0    0  0.91512540848E+00  0.62688068387E+00  0.40335648510E+00  0.11803094336E+01  0.00000000000E+00 0.  1.
         11    1    3    3    0    0 -0.36481603205E+00  0.41406132412E+01 -0.37610191396E+02  0.37839189551E+02  0.51100000000E-03 0. -1.
        -11    1    3    3    0    0  0.73878552897E+01  0.65683592845E+00 -0.49579232782E+01  0.89214820917E+01  0.51100000000E-03 0.  1.
        -12    1    3    3    0    0 -0.79381646661E+01 -0.54243298535E+01  0.42164758189E+02  0.43247018924E+02  0.00000000000E+00 0.  1.
</event>
<event>
 7    1  0.2578619E-015  0.9000780E+02  0.7816164E-02  0.1186339E+00
        -11   -1    0    0    0    0  0.00000000000E+00  0.00000000000E+00  0.45593999997E+02  0.45594000000E+02  0.51100000000E-03 0.  1.
         11   -1    0    0    0    0 -0.00000000000E+00 -0.00000000000E+00 -0.45593999997E+02  0.45594000000E+02  0.51100000000E-03 0. -1.
    9900012    2    1    2    0    0  0.69270739639E+00 -0.24877493189E-01 -0.95520282912E+00  0.90007798800E+02  0.90000060945E+02 0.  0.
        -12    1    1    2    0    0 -0.69270739639E+00  0.24877493189E-01  0.95520282912E+00  0.11802011996E+01  0.00000000000E+00 0.  1.
         11    1    3    3    0    0  0.23028220687E+02  0.96892989619E+01  0.10871592848E+02  0.27246522598E+02  0.51100000000E-03 0. -1.
        -11    1    3    3    0    0 -0.22518318563E+00 -0.27961404865E+02  0.65371246275E+01  0.28716282283E+02  0.51100000000E-03 0.  1.
         12    1    3    3    0    0 -0.22110330105E+02  0.18247228410E+02 -0.18363920305E+02  0.34044993919E+02  0.00000000000E+00 0. -1.
</event>
<event>
 7    1  0.2637397E-015  0.9000772E+02  0.7816164E-02  0.1186339E+00
        -11   -1    0    0    0    0  0.00000000000E+00  0.00000000000E+00  0.45593999997E+02  0.45594000000E+02  0.51100000000E-03 0.  1.
         11   -1    0    0    0    0 -0.00000000000E+00 -0.00000000000E+00 -0.45593999997E+02  0.45594000000E+02  0.51100000000E-03 0. -1.
    9900012    2    1    2    0    0 -0.71179746802E+00 -0.35140720839E+00 -0.87345136017E+00  0.90007720397E+02  0.89999981507E+02 0.  0.
        -12    1    1    2    0    0  0.71179746802E+00  0.35140720839E+00  0.87345136017E+00  0.11802796025E+01  0.00000000000E+00 0.  1.
         11    1    3    3    0    0 -0.80411429344E+01 -0.20002539382E+01  0.57407353686E+01  0.10080527682E+02  0.51100000000E-03 0. -1.
        -11    1    3    3    0    0 -0.42134942308E+01  0.14843456761E+02  0.33097818307E+02  0.36517767171E+02  0.51100000000E-03 0.  1.
         12    1    3    3    0    0  0.11542839697E+02 -0.13194610031E+02 -0.39712005036E+02  0.43409425544E+02  0.00000000000E+00 0. -1.
</event>
<event>
 7    1  0.2578619E-015  0.9000766E+02  0.7816164E-02  0.1186339E+00
        -11   -1    0    0    0    0  0.00000000000E+00  0.00000000000E+00  0.45593999997E+02  0.45594000000E+02  0.51100000000E-03 0.  1.
         11   -1    0    0    0    0 -0.00000000000E+00 -0.00000000000E+00 -0.45593999997E+02  0.45594000000E+02  0.51100000000E-03 0. -1.
    9900012    2    1    2    0    0  0.10712027500E+01  0.28905857959E+00 -0.40270388858E+00  0.90007660805E+02  0.89999921127E+02 0.  0.
        -12    1    1    2    0    0 -0.10712027500E+01 -0.28905857959E+00  0.40270388858E+00  0.11803391953E+01  0.00000000000E+00 0.  1.
         11    1    3    3    0    0  0.11596957794E+02 -0.94864988440E+01 -0.36450836111E+02  0.39409980257E+02  0.51100000000E-03 0. -1.
        -11    1    3    3    0    0  0.83514194337E+01  0.47641451029E+01  0.18453643680E-01  0.96147608352E+01  0.51100000000E-03 0.  1.
        -12    1    3    3    0    0 -0.18877174478E+02  0.50114123207E+01  0.36029678578E+02  0.40982919713E+02  0.00000000000E+00 0.  1.
</event>
<event>
 7    1  0.2578619E-015  0.9000784E+02  0.7816164E-02  0.1186339E+00
        -11   -1    0    0    0    0  0.00000000000E+00  0.00000000000E+00  0.45593999997E+02  0.45594000000E+02  0.51100000000E-03 0. -1.
         11   -1    0    0    0    0 -0.00000000000E+00 -0.00000000000E+00 -0.45593999997E+02  0.45594000000E+02  0.51100000000E-03 0.  1.
    9900012    2    1    2    0    0 -0.38917807682E+00  0.56303949113E+00  0.96141234395E+00  0.90007836139E+02  0.90000098776E+02 0.  0.
        -12    1    1    2    0    0  0.38917807682E+00 -0.56303949113E+00 -0.96141234395E+00  0.11801638611E+01  0.00000000000E+00 0.  1.
         11    1    3    3    0    0  0.11397693976E+02  0.30844692940E+02  0.23827636679E+02  0.40608604759E+02  0.51100000000E-03 0. -1.
        -11    1    3    3    0    0 -0.30360461174E+01  0.12630995104E+01  0.52843738740E+01  0.62239540408E+01  0.51100000000E-03 0.  1.
        -12    1    3    3    0    0 -0.87508259354E+01 -0.31544752959E+02 -0.28150598209E+02  0.43175277339E+02  0.00000000000E+00 0.  1.
</event>
<event>
 7    1  0.2578619E-015  0.9000761E+02  0.7816164E-02  0.1186339E+00
        -11   -1    0    0    0    0  0.00000000000E+00  0.00000000000E+00  0.45593999997E+02  0.45594000000E+02  0.51100000000E-03 0.  1.
         11   -1    0    0    0    0 -0.00000000000E+00 -0.00000000000E+00 -0.45593999997E+02  0.45594000000E+02  0.51100000000E-03 0. -1.
    9900012    2    1    2    0    0 -0.55893652081E+00 -0.90212963278E+00 -0.51678568349E+00  0.90007612203E+02  0.89999871884E+02 0.  0.
        -12    1    1    2    0    0  0.55893652081E+00  0.90212963278E+00  0.51678568349E+00  0.11803877970E+01  0.00000000000E+00 0.  1.
         11    1    3    3    0    0 -0.23583885116E+02 -0.30707863505E+02 -0.17183925593E+02  0.42361064874E+02  0.51100000000E-03 0. -1.
        -11    1    3    3    0    0  0.49735007242E+01 -0.16600008802E+01  0.92311373295E+01  0.10616270957E+02  0.51100000000E-03 0.  1.
        -12    1    3    3    0    0  0.18051447871E+02  0.31465734753E+02  0.74360025804E+01  0.37030276372E+02  0.00000000000E+00 0.  1.
</event>
<event>
 7    1  0.2578619E-015  0.9000773E+02  0.7816164E-02  0.1186339E+00
        -11   -1    0    0    0    0  0.00000000000E+00  0.00000000000E+00  0.45593999997E+02  0.45594000000E+02  0.51100000000E-03 0.  1.
         11   -1    0    0    0    0 -0.00000000000E+00 -0.00000000000E+00 -0.45593999997E+02  0.45594000000E+02  0.51100000000E-03 0. -1.
    9900012    2    1    2    0    0 -0.56534808912E+00  0.25178358666E+00 -0.10049961733E+01  0.90007732766E+02  0.89999994038E+02 0.  0.
        -12    1    1    2    0    0  0.56534808912E+00 -0.25178358666E+00  0.10049961733E+01  0.11802672344E+01  0.00000000000E+00 0.  1.
         11    1    3    3    0    0 -0.30829772100E+00  0.21449792863E+01  0.77125717870E+01  0.80112263389E+01  0.51100000000E-03 0. -1.
        -11    1    3    3    0    0 -0.11150573374E+02  0.14233998973E+02  0.32063050395E+02  0.36810069468E+02  0.51100000000E-03 0.  1.
         12    1    3    3    0    0  0.10893523006E+02 -0.16127194673E+02 -0.40780618356E+02  0.45186436958E+02  0.00000000000E+00 0. -1.
</event>
<event>
 7    1  0.2578619E-015  0.9000784E+02  0.7816164E-02  0.1186339E+00
        -11   -1    0    0    0    0  0.00000000000E+00  0.00000000000E+00  0.45593999997E+02  0.45594000000E+02  0.51100000000E-03 0.  1.
         11   -1    0    0    0    0 -0.00000000000E+00 -0.00000000000E+00 -0.45593999997E+02  0.45594000000E+02  0.51100000000E-03 0. -1.
    9900012    2    1    2    0    0 -0.10203969123E+00  0.89316890904E+00 -0.76460581406E+00  0.90007836939E+02  0.90000099587E+02 0.  0.
        -12    1    1    2    0    0  0.10203969123E+00 -0.89316890904E+00  0.76460581406E+00  0.11801630606E+01  0.00000000000E+00 0.  1.
         11    1    3    3    0    0  0.91533719406E+01 -0.25905718599E+01  0.11804009673E+01  0.95858555773E+01  0.51100000000E-03 0. -1.
        -11    1    3    3    0    0 -0.90747182295E+00 -0.30425720008E+02 -0.24307345686E+02  0.38953754603E+02  0.51100000000E-03 0.  1.
         12    1    3    3    0    0 -0.83479398089E+01  0.33909460777E+02  0.22362338905E+02  0.41468226759E+02  0.00000000000E+00 0. -1.
</event>
<event>
 7    1  0.2578619E-015  0.9000771E+02  0.7816164E-02  0.1186339E+00
        -11   -1    0    0    0    0  0.00000000000E+00  0.00000000000E+00  0.45593999997E+02  0.45594000000E+02  0.51100000000E-03 0.  1.
         11   -1    0    0    0    0 -0.00000000000E+00 -0.00000000000E+00 -0.45593999997E+02  0.45594000000E+02  0.51100000000E-03 0. -1.
    9900012    2    1    2    0    0  0.45033596858E+00  0.41126504029E+00 -0.10105186831E+01  0.90007707906E+02  0.89999968850E+02 0.  0.
        -12    1    1    2    0    0 -0.45033596858E+00 -0.41126504029E+00  0.10105186831E+01  0.11802920939E+01  0.00000000000E+00 0.  1.
         11    1    3    3    0    0 -0.12128750129E+02 -0.85951360307E+01  0.33950405271E+00  0.14869371417E+02  0.51100000000E-03 0. -1.
        -11    1    3    3    0    0 -0.24949898080E+02  0.22319126952E+02  0.75927717081E+01  0.34326243963E+02  0.51100000000E-03 0.  1.
         12    1    3    3    0    0  0.37528984178E+02 -0.13312725881E+02 -0.89427944439E+01  0.40812092526E+02  0.00000000000E+00 0. -1.
</event>
<event>
 7    1  0.2578619E-015  0.9000774E+02  0.7816164E-02  0.1186339E+00
        -11   -1    0    0    0    0  0.00000000000E+00  0.00000000000E+00  0.45593999997E+02  0.45594000000E+02  0.51100000000E-03 0. -1.
         11   -1    0    0    0    0 -0.00000000000E+00 -0.00000000000E+00 -0.45593999997E+02  0.45594000000E+02  0.51100000000E-03 0.  1.
    9900012    2    1    2    0    0 -0.51153941359E+00  0.44022489110E+00  0.96826741640E+00  0.90007740573E+02  0.90000001948E+02 0.  0.
        -12    1    1    2    0    0  0.51153941359E+00 -0.44022489110E+00 -0.96826741640E+00  0.11802594274E+01  0.00000000000E+00 0.  1.
         11    1    3    3    0    0  0.12817761574E+02 -0.36173636309E+02  0.39261556560E+01  0.38577735472E+02  0.51100000000E-03 0. -1.
        -11    1    3    3    0    0  0.67870252251E+01 -0.28186894119E+00 -0.63123092115E+01  0.92729935484E+01  0.51100000000E-03 0.  1.
        -12    1    3    3    0    0 -0.20116326213E+02  0.36895730142E+02  0.33544209719E+01  0.42157011553E+02  0.00000000000E+00 0.  1.
</event>
<event>
 7    1  0.2578619E-015  0.9000776E+02  0.7816164E-02  0.1186339E+00
        -11   -1    0    0    0    0  0.00000000000E+00  0.00000000000E+00  0.45593999997E+02  0.45594000000E+02  0.51100000000E-03 0.  1.
         11   -1    0    0    0    0 -0.00000000000E+00 -0.00000000000E+00 -0.45593999997E+02  0.45594000000E+02  0.51100000000E-03 0. -1.
    9900012    2    1    2    0    0 -0.83384522070E-01  0.29257439127E+00 -0.11403568462E+01  0.90007759986E+02  0.90000021618E+02 0.  0.
        -12    1    1    2    0    0  0.83384522070E-01 -0.29257439127E+00  0.11403568462E+01  0.11802400135E+01  0.00000000000E+00 0.  1.
         11    1    3    3    0    0 -0.31530426086E+02 -0.23024438952E+01 -0.19275668111E+02  0.37027292615E+02  0.51100000000E-03 0. -1.
        -11    1    3    3    0    0 -0.83305591796E+01 -0.35043285789E+01  0.52325370655E+00  0.90527526055E+01  0.51100000000E-03 0.  1.
        -12    1    3    3    0    0  0.39777600743E+02  0.60993468654E+01  0.17612057558E+02  0.43927714765E+02  0.00000000000E+00 0.  1.
</event>
<event>
 7    1  0.2578619E-015  0.9000771E+02  0.7816164E-02  0.1186339E+00
        -11   -1    0    0    0    0  0.00000000000E+00  0.00000000000E+00  0.45593999997E+02  0.45594000000E+02  0.51100000000E-03 0. -1.
         11   -1    0    0    0    0 -0.00000000000E+00 -0.00000000000E+00 -0.45593999997E+02  0.45594000000E+02  0.51100000000E-03 0.  1.
    9900012    2    1    2    0    0  0.68057392411E+00 -0.36074345803E+00  0.89430227429E+00  0.90007706280E+02  0.89999967202E+02 0.  0.
        -12    1    1    2    0    0 -0.68057392411E+00  0.36074345803E+00 -0.89430227429E+00  0.11802937204E+01  0.00000000000E+00 0.  1.
         11    1    3    3    0    0  0.21058936269E+02 -0.25849924998E+02  0.18342358477E+02  0.38054428572E+02  0.51100000000E-03 0. -1.
        -11    1    3    3    0    0  0.26940140363E+01  0.35989583417E+01  0.93432519614E+01  0.10368537517E+02  0.51100000000E-03 0.  1.
        -12    1    3    3    0    0 -0.23072376381E+02  0.21890223199E+02 -0.26791308164E+02  0.41584740190E+02  0.00000000000E+00 0.  1.
</event>
<event>
 8    1  0.2578619E-015  0.9000775E+02  0.7816164E-02  0.1186339E+00
        -11   -1    0    0    0    0  0.00000000000E+00  0.00000000000E+00  0.45593999997E+02  0.45594000000E+02  0.51100000000E-03 0.  1.
         11   -1    0    0    0    0 -0.00000000000E+00 -0.00000000000E+00 -0.45593999997E+02  0.45594000000E+02  0.51100000000E-03 0. -1.
    9900012    2    1    2    0    0 -0.68409372396E+00 -0.35956039436E+00 -0.89202982001E+00  0.90007752102E+02  0.90000013630E+02 0.  0.
         23    2    3    3    0    0  0.33186718573E+01 -0.18772614606E+02 -0.17392492852E+02  0.64961235818E+02  0.59615758901E+02 0.  0.
        -12    1    1    2    0    0  0.68409372396E+00  0.35956039436E+00  0.89202982001E+00  0.11802478977E+01  0.00000000000E+00 0.  1.
         11    1    4    4    0    0  0.48924996374E+01 -0.16596788998E+02 -0.39273443454E+02  0.42916119568E+02  0.51100000000E-03 0. -1.
        -11    1    4    4    0    0 -0.15738277801E+01 -0.21758256082E+01  0.21880950602E+02  0.22045116250E+02  0.51100000000E-03 0.  1.
        -12    1    3    3    0    0 -0.40027655813E+01  0.18413054212E+02  0.16500463032E+02  0.25046516284E+02  0.00000000000E+00 0.  1.
</event>
<event>
 7    1  0.2578619E-015  0.9000804E+02  0.7816164E-02  0.1186338E+00
        -11   -1    0    0    0    0  0.00000000000E+00  0.00000000000E+00  0.45593999997E+02  0.45594000000E+02  0.51100000000E-03 0.  1.
         11   -1    0    0    0    0 -0.00000000000E+00 -0.00000000000E+00 -0.45593999997E+02  0.45594000000E+02  0.51100000000E-03 0. -1.
    9900012    2    1    2    0    0 -0.73167215358E+00 -0.44163987906E+00 -0.81358693594E+00  0.90008036600E+02  0.90000301883E+02 0.  0.
        -12    1    1    2    0    0  0.73167215358E+00  0.44163987906E+00  0.81358693594E+00  0.11799634000E+01  0.00000000000E+00 0.  1.
         11    1    3    3    0    0  0.51050221961E+01 -0.52655766546E+01  0.82294686155E+00  0.73800264854E+01  0.51100000000E-03 0. -1.
        -11    1    3    3    0    0 -0.18557255891E+02  0.16306857856E+02  0.34617218977E+02  0.42528075542E+02  0.51100000000E-03 0.  1.
         12    1    3    3    0    0  0.12720561542E+02 -0.11482921081E+02 -0.36253752774E+02  0.40099934572E+02  0.00000000000E+00 0. -1.
</event>
<event>
 7    1  0.2578619E-015  0.9000769E+02  0.7816164E-02  0.1186339E+00
        -11   -1    0    0    0    0  0.00000000000E+00  0.00000000000E+00  0.45593999997E+02  0.45594000000E+02  0.51100000000E-03 0. -1.
         11   -1    0    0    0    0 -0.00000000000E+00 -0.00000000000E+00 -0.45593999997E+02  0.45594000000E+02  0.51100000000E-03 0.  1.
    9900012    2    1    2    0    0 -0.11567095094E+01  0.18178847217E+00  0.14871027990E+00  0.90007687039E+02  0.89999947708E+02 0.  0.
        -12    1    1    2    0    0  0.11567095094E+01 -0.18178847217E+00 -0.14871027990E+00  0.11803129607E+01  0.00000000000E+00 0.  1.
         11    1    3    3    0    0  0.34887241107E+02  0.12810030100E+01  0.15137795230E+02  0.38051457337E+02  0.51100000000E-03 0. -1.
        -11    1    3    3    0    0  0.15753665727E+01  0.10224746234E+02 -0.17084629846E+01  0.10485516746E+02  0.51100000000E-03 0.  1.
        -12    1    3    3    0    0 -0.37619317189E+02 -0.11323960772E+02 -0.13280621965E+02  0.41470712957E+02  0.00000000000E+00 0.  1.
</event>
<event>
 7    1  0.2578619E-015  0.9000767E+02  0.7816164E-02  0.1186339E+00
        -11   -1    0    0    0    0  0.00000000000E+00  0.00000000000E+00  0.45593999997E+02  0.45594000000E+02  0.51100000000E-03 0.  1.
         11   -1    0    0    0    0 -0.00000000000E+00 -0.00000000000E+00 -0.45593999997E+02  0.45594000000E+02  0.51100000000E-03 0. -1.
    9900012    2    1    2    0    0  0.65902318520E+00 -0.21964681269E+00 -0.95425960032E+00  0.90007674763E+02  0.89999935270E+02 0.  0.
        -12    1    1    2    0    0 -0.65902318520E+00  0.21964681269E+00  0.95425960032E+00  0.11803252373E+01  0.00000000000E+00 0.  1.
         11    1    3    3    0    0  0.42105305780E+02 -0.45328752911E+01 -0.96924873867E+01  0.43443619154E+02  0.51100000000E-03 0. -1.
        -11    1    3    3    0    0 -0.46003614816E+01  0.74328985679E+01  0.11634831419E+01  0.88184465846E+01  0.51100000000E-03 0.  1.
        -12    1    3    3    0    0 -0.36845921113E+02 -0.31196700896E+01  0.75747446445E+01  0.37745609024E+02  0.00000000000E+00 0.  1.
</event>
<event>
 7    1  0.2578619E-015  0.9000756E+02  0.7816164E-02  0.1186339E+00
        -11   -1    0    0    0    0  0.00000000000E+00  0.00000000000E+00  0.45593999997E+02  0.45594000000E+02  0.51100000000E-03 0.  1.
         11   -1    0    0    0    0 -0.00000000000E+00 -0.00000000000E+00 -0.45593999997E+02  0.45594000000E+02  0.51100000000E-03 0. -1.
    9900012    2    1    2    0    0 -0.63884024824E+00 -0.98143340374E+00  0.14870234449E+00  0.90007559076E+02  0.89999818055E+02 0.  0.
        -12    1    1    2    0    0  0.63884024824E+00  0.98143340374E+00 -0.14870234449E+00  0.11804409244E+01  0.00000000000E+00 0.  1.
         11    1    3    3    0    0  0.67037425234E+01  0.50625088327E+01  0.10687743736E+01  0.84682606492E+01  0.51100000000E-03 0. -1.
        -11    1    3    3    0    0  0.17662817016E+02 -0.36793450931E+02  0.61688639892E+01  0.41276967180E+02  0.51100000000E-03 0.  1.
         12    1    3    3    0    0 -0.25005399788E+02  0.30749508695E+02 -0.70889360183E+01  0.40262331246E+02  0.00000000000E+00 0. -1.
</event>
<event>
 7    1  0.2578619E-015  0.9000781E+02  0.7816164E-02  0.1186339E+00
        -11   -1    0    0    0    0  0.00000000000E+00  0.00000000000E+00  0.45593999997E+02  0.45594000000E+02  0.51100000000E-03 0.  1.
         11   -1    0    0    0    0 -0.00000000000E+00 -0.00000000000E+00 -0.45593999997E+02  0.45594000000E+02  0.51100000000E-03 0. -1.
    9900012    2    1    2    0    0  0.81522393425E+00  0.74424987186E+00  0.41756508269E+00  0.90007805722E+02  0.90000067958E+02 0.  0.
        -12    1    1    2    0    0 -0.81522393425E+00 -0.74424987186E+00 -0.41756508269E+00  0.11801942777E+01  0.00000000000E+00 0.  1.
         11    1    3    3    0    0  0.14927076662E+01 -0.74774901627E+01 -0.84706420027E+01  0.11397052755E+02  0.51100000000E-03 0. -1.
        -11    1    3    3    0    0 -0.15334537070E+02 -0.64754140812E+01  0.38790088027E+02  0.42210779951E+02  0.51100000000E-03 0.  1.
         12    1    3    3    0    0  0.14657053338E+02  0.14697154116E+02 -0.29901880942E+02  0.36399973015E+02  0.00000000000E+00 0. -1.
</event>
<event>
 7    1  0.2578619E-015  0.9000772E+02  0.7816164E-02  0.1186339E+00
        -11   -1    0    0    0    0  0.00000000000E+00  0.00000000000E+00  0.45593999997E+02  0.45594000000E+02  0.51100000000E-03 0.  1.
         11   -1    0    0    0    0 -0.00000000000E+00 -0.00000000000E+00 -0.45593999997E+02  0.45594000000E+02  0.51100000000E-03 0. -1.
    9900012    2    1    2    0    0  0.11150660460E+01  0.28510253153E+00 -0.26155673163E+00  0.90007717125E+02  0.89999978191E+02 0.  0.
        -12    1    1    2    0    0 -0.11150660460E+01 -0.28510253153E+00  0.26155673163E+00  0.11802828747E+01  0.00000000000E+00 0.  1.
         11    1    3    3    0    0 -0.15811098037E+02 -0.32508572122E+02 -0.14094204070E+02  0.38800060196E+02  0.51100000000E-03 0. -1.
        -11    1    3    3    0    0  0.61250120985E+01 -0.52025027564E+01  0.78891285424E+01  0.11261445625E+02  0.51100000000E-03 0.  1.
        -12    1    3    3    0    0  0.10801151984E+02  0.37996177410E+02  0.59435187964E+01  0.39946211305E+02  0.00000000000E+00 0.  1.
</event>
<event>
 7    1  0.2578619E-015  0.9000770E+02  0.7816164E-02  0.1186339E+00
        -11   -1    0    0    0    0  0.00000000000E+00  0.00000000000E+00  0.45593999997E+02  0.45594000000E+02  0.51100000000E-03 0.  1.
         11   -1    0    0    0    0 -0.00000000000E+00 -0.00000000000E+00 -0.45593999997E+02  0.45594000000E+02  0.51100000000E-03 0. -1.
    9900012    2    1    2    0    0 -0.33153196356E+00 -0.53708565022E+00 -0.99736344672E+00  0.90007699918E+02  0.89999960757E+02 0.  0.
        -12    1    1    2    0    0  0.33153196356E+00  0.53708565022E+00  0.99736344672E+00  0.11803000819E+01  0.00000000000E+00 0.  1.
         11    1    3    3    0    0 -0.16280403339E+02 -0.98002770942E+01 -0.29021409688E+02  0.34689179647E+02  0.51100000000E-03 0. -1.
        -11    1    3    3    0    0 -0.67469095826E+01 -0.10215445948E+02 -0.25969130533E+01  0.12514794545E+02  0.51100000000E-03 0.  1.
        -12    1    3    3    0    0  0.22695780958E+02  0.19478637392E+02  0.30620959295E+02  0.42803725727E+02  0.00000000000E+00 0.  1.
</event>
<event>
 7    1  0.2578619E-015  0.9000773E+02  0.7816164E-02  0.1186339E+00
        -11   -1    0    0    0    0  0.00000000000E+00  0.00000000000E+00  0.45593999997E+02  0.45594000000E+02  0.51100000000E-03 0. -1.
         11   -1    0    0    0    0 -0.00000000000E+00 -0.00000000000E+00 -0.45593999997E+02  0.45594000000E+02  0.51100000000E-03 0.  1.
    9900012    2    1    2    0    0 -0.35359462355E+00  0.23179067931E+00  0.11019411875E+01  0.90007732887E+02  0.89999994161E+02 0.  0.
        -12    1    1    2    0    0  0.35359462355E+00 -0.23179067931E+00 -0.11019411875E+01  0.11802671127E+01  0.00000000000E+00 0.  1.
         11    1    3    3    0    0 -0.53239068430E+01  0.82635966545E+01 -0.32356383578E+01  0.10348930843E+02  0.51100000000E-03 0. -1.
        -11    1    3    3    0    0 -0.29908338668E+02  0.17848705690E+02 -0.51353849010E+01  0.35205925567E+02  0.51100000000E-03 0.  1.
         12    1    3    3    0    0  0.34878650887E+02 -0.25880511665E+02  0.94729644462E+01  0.44452876478E+02  0.00000000000E+00 0. -1.
</event>
<event>
 7    1  0.2578619E-015  0.9000768E+02  0.7816164E-02  0.1186339E+00
        -11   -1    0    0    0    0  0.00000000000E+00  0.00000000000E+00  0.45593999997E+02  0.45594000000E+02  0.51100000000E-03 0. -1.
         11   -1    0    0    0    0 -0.00000000000E+00 -0.00000000000E+00 -0.45593999997E+02  0.45594000000E+02  0.51100000000E-03 0.  1.
    9900012    2    1    2    0    0 -0.34053568203E+00 -0.61319197537E+00  0.94930738742E+00  0.90007680778E+02  0.89999941365E+02 0.  0.
        -12    1    1    2    0    0  0.34053568203E+00  0.61319197537E+00 -0.94930738742E+00  0.11803192217E+01  0.00000000000E+00 0.  1.
         11    1    3    3    0    0  0.28083278946E+02  0.18802742479E+02  0.48151513669E+01  0.34137946101E+02  0.51100000000E-03 0. -1.
        -11    1    3    3    0    0  0.66224908660E+01  0.73981965338E+01  0.45907411024E+01  0.10939177362E+02  0.51100000000E-03 0.  1.
        -12    1    3    3    0    0 -0.35046305494E+02 -0.26814130988E+02 -0.84565850819E+01  0.44930557315E+02  0.00000000000E+00 0.  1.
</event>
<event>
 7    1  0.2578619E-015  0.9000772E+02  0.7816164E-02  0.1186339E+00
        -11   -1    0    0    0    0  0.00000000000E+00  0.00000000000E+00  0.45593999997E+02  0.45594000000E+02  0.51100000000E-03 0.  1.
         11   -1    0    0    0    0 -0.00000000000E+00 -0.00000000000E+00 -0.45593999997E+02  0.45594000000E+02  0.51100000000E-03 0. -1.
    9900012    2    1    2    0    0  0.30996079122E-01  0.11462956641E+01 -0.27948861748E+00  0.90007716816E+02  0.89999977878E+02 0.  0.
        -12    1    1    2    0    0 -0.30996079122E-01 -0.11462956641E+01  0.27948861748E+00  0.11802831837E+01  0.00000000000E+00 0.  1.
         11    1    3    3    0    0 -0.26973948455E+02 -0.15121152890E+01 -0.32174028343E+02  0.42012480146E+02  0.51100000000E-03 0. -1.
        -11    1    3    3    0    0  0.91433222295E+01  0.28455584896E+00 -0.22210799147E+01  0.94135280141E+01  0.51100000000E-03 0.  1.
        -12    1    3    3    0    0  0.17861622304E+02  0.23738551041E+01  0.34115619641E+02  0.38581708657E+02  0.00000000000E+00 0.  1.
</event>
<event>
 7    1  0.2578619E-015  0.9000774E+02  0.7816164E-02  0.1186339E+00
        -11   -1    0    0    0    0  0.00000000000E+00  0.00000000000E+00  0.45593999997E+02  0.45594000000E+02  0.51100000000E-03 0.  1.
         11   -1    0    0    0    0 -0.00000000000E+00 -0.00000000000E+00 -0.45593999997E+02  0.45594000000E+02  0.51100000000E-03 0. -1.
    9900012    2    1    2    0    0 -0.10132817020E+01 -0.53952537278E+00  0.27420117154E+00  0.90007739979E+02  0.90000001346E+02 0.  0.
        -12    1    1    2    0    0  0.10132817020E+01  0.53952537278E+00 -0.27420117154E+00  0.11802600213E+01  0.00000000000E+00 0.  1.
         11    1    3    3    0    0 -0.51365515165E+01 -0.38598513931E+01  0.64646912409E+01  0.91145404359E+01  0.51100000000E-03 0. -1.
        -11    1    3    3    0    0  0.35337813300E+02 -0.61081631176E+01  0.18159203791E+02  0.40197355486E+02  0.51100000000E-03 0.  1.
         12    1    3    3    0    0 -0.31214543485E+02  0.94284891379E+01 -0.24349693860E+02  0.40695844057E+02  0.00000000000E+00 0. -1.
</event>
<event>
 7    1  0.2578619E-015  0.9000782E+02  0.7816164E-02  0.1186339E+00
        -11   -1    0    0    0    0  0.00000000000E+00  0.00000000000E+00  0.45593999997E+02  0.45594000000E+02  0.51100000000E-03 0. -1.
         11   -1    0    0    0    0 -0.00000000000E+00 -0.00000000000E+00 -0.45593999997E+02  0.45594000000E+02  0.51100000000E-03 0.  1.
    9900012    2    1    2    0    0 -0.40692508876E+00 -0.18956576726E+00  0.10914721603E+01  0.90007815826E+02  0.90000078195E+02 0.  0.
        -12    1    1    2    0    0  0.40692508876E+00  0.18956576726E+00 -0.10914721603E+01  0.11801841740E+01  0.00000000000E+00 0.  1.
         11    1    3    3    0    0  0.41511176324E+01 -0.69801771613E+01  0.39531756309E+01  0.90322892243E+01  0.51100000000E-03 0. -1.
        -11    1    3    3    0    0 -0.32254075462E+02 -0.17230099072E+02 -0.18661620890E+02  0.41054327329E+02  0.51100000000E-03 0.  1.
         12    1    3    3    0    0  0.27696032741E+02  0.24020710466E+02  0.15799917420E+02  0.39921199272E+02  0.00000000000E+00 0. -1.
</event>
<event>
 7    1  0.2578619E-015  0.9000773E+02  0.7816164E-02  0.1186339E+00
        -11   -1    0    0    0    0  0.00000000000E+00  0.00000000000E+00  0.45593999997E+02  0.45594000000E+02  0.51100000000E-03 0.  1.
         11   -1    0    0    0    0 -0.00000000000E+00 -0.00000000000E+00 -0.45593999997E+02  0.45594000000E+02  0.51100000000E-03 0. -1.
    9900012    2    1    2    0    0 -0.12433784272E+00 -0.81977574398E+00 -0.83997325428E+00  0.90007725779E+02  0.89999986959E+02 0.  0.
        -12    1    1    2    0    0  0.12433784272E+00  0.81977574398E+00  0.83997325428E+00  0.11802742213E+01  0.00000000000E+00 0.  1.
         11    1    3    3    0    0 -0.89801777472E+01 -0.21479816005E+01 -0.35428867454E+02  0.36612321241E+02  0.51100000000E-03 0. -1.
        -11    1    3    3    0    0 -0.29883644806E+01 -0.45268775905E+01 -0.75144323791E+01  0.92676662234E+01  0.51100000000E-03 0.  1.
        -12    1    3    3    0    0  0.11844204385E+02  0.58550834470E+01  0.42103326579E+02  0.44127738314E+02  0.00000000000E+00 0.  1.
</event>
<event>
 7    1  0.2578619E-015  0.9000786E+02  0.7816164E-02  0.1186339E+00
        -11   -1    0    0    0    0  0.00000000000E+00  0.00000000000E+00  0.45593999997E+02  0.45594000000E+02  0.51100000000E-03 0.  1.
         11   -1    0    0    0    0 -0.00000000000E+00 -0.00000000000E+00 -0.45593999997E+02  0.45594000000E+02  0.51100000000E-03 0. -1.
    9900012    2    1    2    0    0 -0.52041589344E+00 -0.83752684330E+00 -0.64842019410E+00  0.90007859049E+02  0.90000121989E+02 0.  0.
        -12    1    1    2    0    0  0.52041589344E+00  0.83752684330E+00  0.64842019410E+00  0.11801409507E+01  0.00000000000E+00 0.  1.
         11    1    3    3    0    0  0.14982704376E+01  0.20443939016E+02 -0.28001857620E+02  0.34703076049E+02  0.51100000000E-03 0. -1.
        -11    1    3    3    0    0 -0.20561364530E+01  0.53870297171E+01 -0.87138043311E+01  0.10448835938E+02  0.51100000000E-03 0.  1.
        -12    1    3    3    0    0  0.37450121923E-01 -0.26668495577E+02  0.36067241757E+02  0.44855947062E+02  0.00000000000E+00 0.  1.
</event>
<event>
 7    1  0.2578619E-015  0.9000769E+02  0.7816164E-02  0.1186339E+00
        -11   -1    0    0    0    0  0.00000000000E+00  0.00000000000E+00  0.45593999997E+02  0.45594000000E+02  0.51100000000E-03 0.  1.
         11   -1    0    0    0    0 -0.00000000000E+00 -0.00000000000E+00 -0.45593999997E+02  0.45594000000E+02  0.51100000000E-03 0. -1.
    9900012    2    1    2    0    0 -0.97673967016E-01 -0.96773834175E+00 -0.66864465564E+00  0.90007685052E+02  0.89999945694E+02 0.  0.
        -12    1    1    2    0    0  0.97673967016E-01  0.96773834175E+00  0.66864465564E+00  0.11803149484E+01  0.00000000000E+00 0.  1.
         11    1    3    3    0    0  0.34019509357E+01  0.78877404924E+01 -0.39702552056E+01  0.94632260304E+01  0.51100000000E-03 0. -1.
        -11    1    3    3    0    0  0.33914292670E+02 -0.10699750018E+02  0.18539328451E+02  0.40104495975E+02  0.51100000000E-03 0.  1.
         12    1    3    3    0    0 -0.37413917573E+02  0.18442711838E+01 -0.15237717901E+02  0.40439963046E+02  0.00000000000E+00 0. -1.
</event>
<event>
 7    1  0.2578619E-015  0.9000657E+02  0.7816164E-02  0.1186341E+00
        -11   -1    0    0    0    0  0.00000000000E+00  0.00000000000E+00  0.45593999997E+02  0.45594000000E+02  0.51100000000E-03 0.  1.
         11   -1    0    0    0    0 -0.00000000000E+00 -0.00000000000E+00 -0.45593999997E+02  0.45594000000E+02  0.51100000000E-03 0. -1.
    9900012    2    1    2    0    0  0.28438287374E+00  0.52459794175E+00 -0.10196609271E+01  0.90006566538E+02  0.89998812408E+02 0.  0.
        -12    1    1    2    0    0 -0.28438287374E+00 -0.52459794175E+00  0.10196609271E+01  0.11814334622E+01  0.00000000000E+00 0.  1.
         11    1    3    3    0    0  0.47167535046E+01  0.34551462198E+02 -0.23845835486E+02  0.42245416011E+02  0.51100000000E-03 0. -1.
        -11    1    3    3    0    0 -0.79330379756E+01 -0.47421759771E+01 -0.17062841058E+01  0.93985493685E+01  0.51100000000E-03 0.  1.
        -12    1    3    3    0    0  0.35006673448E+01 -0.29284688280E+02  0.24532458665E+02  0.38362601158E+02  0.00000000000E+00 0.  1.
</event>
<event>
 7    1  0.2578619E-015  0.9000772E+02  0.7816164E-02  0.1186339E+00
        -11   -1    0    0    0    0  0.00000000000E+00  0.00000000000E+00  0.45593999997E+02  0.45594000000E+02  0.51100000000E-03 0. -1.
         11   -1    0    0    0    0 -0.00000000000E+00 -0.00000000000E+00 -0.45593999997E+02  0.45594000000E+02  0.51100000000E-03 0.  1.
    9900012    2    1    2    0    0 -0.77570996375E+00  0.64396021895E+00 -0.61372087715E+00  0.90007718666E+02  0.89999979753E+02 0.  0.
        -12    1    1    2    0    0  0.77570996375E+00 -0.64396021895E+00  0.61372087715E+00  0.11802813336E+01  0.00000000000E+00 0.  1.
         11    1    3    3    0    0  0.12087873547E+02  0.51424026834E+01 -0.33026565346E+00  0.13140398316E+02  0.51100000000E-03 0. -1.
        -11    1    3    3    0    0  0.23403859732E+02  0.21598344916E+02 -0.36735765923E+01  0.32058139664E+02  0.51100000000E-03 0.  1.
         12    1    3    3    0    0 -0.36267443242E+02 -0.26096787380E+02  0.33901213686E+01  0.44809180687E+02  0.00000000000E+00 0. -1.
</event>
<event>
 7    1  0.2578619E-015  0.9000777E+02  0.7816164E-02  0.1186339E+00
        -11   -1    0    0    0    0  0.00000000000E+00  0.00000000000E+00  0.45593999997E+02  0.45594000000E+02  0.51100000000E-03 0. -1.
         11   -1    0    0    0    0 -0.00000000000E+00 -0.00000000000E+00 -0.45593999997E+02  0.45594000000E+02  0.51100000000E-03 0.  1.
    9900012    2    1    2    0    0  0.63512808932E+00 -0.95978485445E+00  0.26146165807E+00  0.90007772541E+02  0.90000034338E+02 0.  0.
        -12    1    1    2    0    0 -0.63512808932E+00  0.95978485445E+00 -0.26146165807E+00  0.11802274591E+01  0.00000000000E+00 0.  1.
         11    1    3    3    0    0 -0.34859039467E+02  0.81272462985E+01  0.46508442075E+01  0.36094807342E+02  0.51100000000E-03 0. -1.
        -11    1    3    3    0    0 -0.77595569154E+01 -0.51958105809E+01  0.31081067149E+01  0.98421287701E+01  0.51100000000E-03 0.  1.
        -12    1    3    3    0    0  0.43253724472E+02 -0.38912205720E+01 -0.74974892643E+01  0.44070836428E+02  0.00000000000E+00 0.  1.
</event>
<event>
 7    1  0.2578619E-015  0.9000777E+02  0.7816164E-02  0.1186339E+00
        -11   -1    0    0    0    0  0.00000000000E+00  0.00000000000E+00  0.45593999997E+02  0.45594000000E+02  0.51100000000E-03 0. -1.
         11   -1    0    0    0    0 -0.00000000000E+00 -0.00000000000E+00 -0.45593999997E+02  0.45594000000E+02  0.51100000000E-03 0.  1.
    9900012    2    1    2    0    0 -0.15680250682E+00 -0.11510713424E+01 -0.20832717019E+00  0.90007765925E+02  0.90000027635E+02 0.  0.
        -12    1    1    2    0    0  0.15680250682E+00  0.11510713424E+01  0.20832717019E+00  0.11802340747E+01  0.00000000000E+00 0.  1.
         11    1    3    3    0    0 -0.69659276163E+01  0.45649579087E+01  0.71652186753E+00  0.83592100172E+01  0.51100000000E-03 0. -1.
        -11    1    3    3    0    0 -0.16029244561E+02  0.32954569584E+02 -0.22801380619E+01  0.36717017410E+02  0.51100000000E-03 0.  1.
         12    1    3    3    0    0  0.22838369670E+02 -0.38670598835E+02  0.13552890242E+01  0.44931538498E+02  0.00000000000E+00 0. -1.
</event>
<event>
 7    1  0.2578619E-015  0.9000771E+02  0.7816164E-02  0.1186339E+00
        -11   -1    0    0    0    0  0.00000000000E+00  0.00000000000E+00  0.45593999997E+02  0.45594000000E+02  0.51100000000E-03 0. -1.
         11   -1    0    0    0    0 -0.00000000000E+00 -0.00000000000E+00 -0.45593999997E+02  0.45594000000E+02  0.51100000000E-03 0.  1.
    9900012    2    1    2    0    0 -0.26718178303E+00  0.78355576933E+00  0.84127540139E+00  0.90007707642E+02  0.89999968583E+02 0.  0.
        -12    1    1    2    0    0  0.26718178303E+00 -0.78355576933E+00 -0.84127540139E+00  0.11802923578E+01  0.00000000000E+00 0.  1.
         11    1    3    3    0    0  0.13309377685E+01 -0.10232411394E+02  0.93459872218E+00  0.10360845203E+02  0.51100000000E-03 0. -1.
        -11    1    3    3    0    0 -0.34410289573E+02 -0.13268759916E+02  0.86930255426E+01  0.37890588693E+02  0.51100000000E-03 0.  1.
         12    1    3    3    0    0  0.32812170021E+02  0.24284727080E+02 -0.87863488634E+01  0.41756273746E+02  0.00000000000E+00 0. -1.
</event>
<event>
 7    1  0.2578619E-015  0.9000780E+02  0.7816164E-02  0.1186339E+00
        -11   -1    0    0    0    0  0.00000000000E+00  0.00000000000E+00  0.45593999997E+02  0.45594000000E+02  0.51100000000E-03 0.  1.
         11   -1    0    0    0    0 -0.00000000000E+00 -0.00000000000E+00 -0.45593999997E+02  0.45594000000E+02  0.51100000000E-03 0. -1.
    9900012    2    1    2    0    0  0.85571309640E-01 -0.88711949750E+00 -0.77367468359E+00  0.90007798336E+02  0.90000060474E+02 0.  0.
        -12    1    1    2    0    0 -0.85571309640E-01  0.88711949750E+00  0.77367468359E+00  0.11802016641E+01  0.00000000000E+00 0.  1.
         11    1    3    3    0    0 -0.30564572115E+01 -0.60564081301E+01 -0.63834615375E+01  0.93150733537E+01  0.51100000000E-03 0. -1.
        -11    1    3    3    0    0 -0.24017722377E+02  0.52895885795E+01  0.33634356161E+02  0.41666541134E+02  0.51100000000E-03 0.  1.
         12    1    3    3    0    0  0.27159750898E+02 -0.12029994688E+00 -0.28024569307E+02  0.39026183848E+02  0.00000000000E+00 0. -1.
</event>
<event>
 7    1  0.2578619E-015  0.9000779E+02  0.7816164E-02  0.1186339E+00
        -11   -1    0    0    0    0  0.00000000000E+00  0.00000000000E+00  0.45593999997E+02  0.45594000000E+02  0.51100000000E-03 0.  1.
         11   -1    0    0    0    0 -0.00000000000E+00 -0.00000000000E+00 -0.45593999997E+02  0.45594000000E+02  0.51100000000E-03 0. -1.
    9900012    2    1    2    0    0  0.86864328237E+00  0.17413129803E+00 -0.77976419518E+00  0.90007790247E+02  0.90000052278E+02 0.  0.
        -12    1    1    2    0    0 -0.86864328237E+00 -0.17413129803E+00  0.77976419518E+00  0.11802097530E+01  0.00000000000E+00 0.  1.
         11    1    3    3    0    0 -0.16293059777E+02 -0.32190867089E+02 -0.16798887964E+02  0.39798471804E+02  0.51100000000E-03 0. -1.
        -11    1    3    3    0    0 -0.78649949844E+01  0.70028088586E+01 -0.12665115288E+01  0.10606673830E+02  0.51100000000E-03 0.  1.
        -12    1    3    3    0    0  0.25026698044E+02  0.25362189529E+02  0.17285635298E+02  0.39602644613E+02  0.00000000000E+00 0.  1.
</event>
<event>
 7    1  0.2578619E-015  0.9000780E+02  0.7816164E-02  0.1186339E+00
        -11   -1    0    0    0    0  0.00000000000E+00  0.00000000000E+00  0.45593999997E+02  0.45594000000E+02  0.51100000000E-03 0. -1.
         11   -1    0    0    0    0 -0.00000000000E+00 -0.00000000000E+00 -0.45593999997E+02  0.45594000000E+02  0.51100000000E-03 0.  1.
    9900012    2    1    2    0    0 -0.80185704975E+00 -0.77029540912E+00  0.39565869216E+00  0.90007798515E+02  0.90000060655E+02 0.  0.
        -12    1    1    2    0    0  0.80185704975E+00  0.77029540912E+00 -0.39565869216E+00  0.11802014854E+01  0.00000000000E+00 0.  1.
         11    1    3    3    0    0 -0.30839536435E+01 -0.88536613676E+01  0.39646827653E+02  0.40740263044E+02  0.51100000000E-03 0. -1.
        -11    1    3    3    0    0 -0.84215969637E+01  0.10414248363E+01 -0.55327210000E+00  0.85037621902E+01  0.51100000000E-03 0.  1.
        -12    1    3    3    0    0  0.10703693557E+02  0.70419411221E+01 -0.38697896861E+02  0.40763773280E+02  0.00000000000E+00 0.  1.
</event>
<event>
 7    1  0.2578619E-015  0.9000807E+02  0.7816164E-02  0.1186338E+00
        -11   -1    0    0    0    0  0.00000000000E+00  0.00000000000E+00  0.45593999997E+02  0.45594000000E+02  0.51100000000E-03 0. -1.
         11   -1    0    0    0    0 -0.00000000000E+00 -0.00000000000E+00 -0.45593999997E+02  0.45594000000E+02  0.51100000000E-03 0.  1.
    9900012    2    1    2    0    0  0.81743664562E+00  0.76606862090E+00  0.37035355392E+00  0.90008073919E+02  0.90000339694E+02 0.  0.
        -12    1    1    2    0    0 -0.81743664562E+00 -0.76606862090E+00 -0.37035355392E+00  0.11799260809E+01  0.00000000000E+00 0.  1.
         11    1    3    3    0    0 -0.13042075420E+02 -0.47887077459E+01  0.27804245069E+02  0.31082205476E+02  0.51100000000E-03 0. -1.
        -11    1    3    3    0    0  0.81361429490E+01  0.18344353890E+02  0.73928511740E+01  0.21386126121E+02  0.51100000000E-03 0.  1.
        -12    1    3    3    0    0  0.57233691166E+01 -0.12789577523E+02 -0.34826742689E+02  0.37539742322E+02  0.00000000000E+00 0.  1.
</event>
<event>
 7    1  0.2578619E-015  0.9000760E+02  0.7816164E-02  0.1186339E+00
        -11   -1    0    0    0    0  0.00000000000E+00  0.00000000000E+00  0.45593999997E+02  0.45594000000E+02  0.51100000000E-03 0.  1.
         11   -1    0    0    0    0 -0.00000000000E+00 -0.00000000000E+00 -0.45593999997E+02  0.45594000000E+02  0.51100000000E-03 0. -1.
    9900012    2    1    2    0    0  0.23944612514E+00  0.10848299141E+01 -0.39892735278E+00  0.90007604548E+02  0.89999864128E+02 0.  0.
        -12    1    1    2    0    0 -0.23944612514E+00 -0.10848299141E+01  0.39892735278E+00  0.11803954516E+01  0.00000000000E+00 0.  1.
         11    1    3    3    0    0  0.17995108697E+02 -0.32722315978E+02  0.29505995381E+01  0.37460378240E+02  0.51100000000E-03 0. -1.
        -11    1    3    3    0    0  0.58441640505E+01 -0.20976132278E+01 -0.70826691093E+01  0.94190464845E+01  0.51100000000E-03 0.  1.
        -12    1    3    3    0    0 -0.23599826623E+02  0.35904759120E+02  0.37331422185E+01  0.43128179824E+02  0.00000000000E+00 0.  1.
</event>
<event>
 7    1  0.2578619E-015  0.9000768E+02  0.7816164E-02  0.1186339E+00
        -11   -1    0    0    0    0  0.00000000000E+00  0.00000000000E+00  0.45593999997E+02  0.45594000000E+02  0.51100000000E-03 0. -1.
         11   -1    0    0    0    0 -0.00000000000E+00 -0.00000000000E+00 -0.45593999997E+02  0.45594000000E+02  0.51100000000E-03 0.  1.
    9900012    2    1    2    0    0  0.89979864662E-01  0.46472873978E-01  0.11759720997E+01  0.90007675264E+02  0.89999935777E+02 0.  0.
        -12    1    1    2    0    0 -0.89979864662E-01 -0.46472873978E-01 -0.11759720997E+01  0.11803247364E+01  0.00000000000E+00 0.  1.
         11    1    3    3    0    0  0.60258061141E+01  0.53591691223E+01  0.48504913768E+01  0.94105419538E+01  0.51100000000E-03 0. -1.
        -11    1    3    3    0    0 -0.40356721656E+02  0.56958137309E+01 -0.13863170779E+02  0.43049910350E+02  0.51100000000E-03 0.  1.
         12    1    3    3    0    0  0.34420895406E+02 -0.11008509979E+02  0.10188651502E+02  0.37547222959E+02  0.00000000000E+00 0. -1.
</event>
<event>
 7    1  0.2578619E-015  0.9000776E+02  0.7816164E-02  0.1186339E+00
        -11   -1    0    0    0    0  0.00000000000E+00  0.00000000000E+00  0.45593999997E+02  0.45594000000E+02  0.51100000000E-03 0.  1.
         11   -1    0    0    0    0 -0.00000000000E+00 -0.00000000000E+00 -0.45593999997E+02  0.45594000000E+02  0.51100000000E-03 0. -1.
    9900012    2    1    2    0    0  0.57694865460E+00 -0.10292907378E+01  0.25743550772E-01  0.90007757693E+02  0.90000019294E+02 0.  0.
        -12    1    1    2    0    0 -0.57694865460E+00  0.10292907378E+01 -0.25743550772E-01  0.11802423071E+01  0.00000000000E+00 0.  1.
         11    1    3    3    0    0  0.83314339700E+01 -0.19521293451E+02 -0.27206741404E+02  0.34506527906E+02  0.51100000000E-03 0. -1.
        -11    1    3    3    0    0  0.11243643549E+02 -0.84402384493E+01  0.24643983573E+01  0.14273416019E+02  0.51100000000E-03 0.  1.
        -12    1    3    3    0    0 -0.18998128864E+02  0.26932241163E+02  0.24768086598E+02  0.41227813768E+02  0.00000000000E+00 0.  1.
</event>
<event>
 7    1  0.2578619E-015  0.9000773E+02  0.7816164E-02  0.1186339E+00
        -11   -1    0    0    0    0  0.00000000000E+00  0.00000000000E+00  0.45593999997E+02  0.45594000000E+02  0.51100000000E-03 0. -1.
         11   -1    0    0    0    0 -0.00000000000E+00 -0.00000000000E+00 -0.45593999997E+02  0.45594000000E+02  0.51100000000E-03 0.  1.
    9900012    2    1    2    0    0  0.75909693165E+00  0.64703188692E+00  0.63100410906E+00  0.90007726896E+02  0.89999988091E+02 0.  0.
        -12    1    1    2    0    0 -0.75909693165E+00 -0.64703188692E+00 -0.63100410906E+00  0.11802731040E+01  0.00000000000E+00 0.  1.
         11    1    3    3    0    0 -0.33985852531E+02 -0.97663791835E+01 -0.29632749573E+01  0.35485226973E+02  0.51100000000E-03 0. -1.
        -11    1    3    3    0    0 -0.83429633064E+01 -0.35670767186E+01 -0.86543183260E-01  0.90739496930E+01  0.51100000000E-03 0.  1.
        -12    1    3    3    0    0  0.43087912769E+02  0.13980487789E+02  0.36808222497E+01  0.45448550230E+02  0.00000000000E+00 0.  1.
</event>
<event>
 7    1  0.2578619E-015  0.9000746E+02  0.7816164E-02  0.1186340E+00
        -11   -1    0    0    0    0  0.00000000000E+00  0.00000000000E+00  0.45593999997E+02  0.45594000000E+02  0.51100000000E-03 0.  1.
         11   -1    0    0    0    0 -0.00000000000E+00 -0.00000000000E+00 -0.45593999997E+02  0.45594000000E+02  0.51100000000E-03 0. -1.
    9900012    2    1    2    0    0 -0.11259954415E+01 -0.12053372114E+00 -0.33358003174E+00  0.90007462093E+02  0.89999719792E+02 0.  0.
        -12    1    1    2    0    0  0.11259954415E+01  0.12053372114E+00  0.33358003174E+00  0.11805379070E+01  0.00000000000E+00 0.  1.
         11    1    3    3    0    0  0.23928599070E+02  0.25566740134E+02  0.68315977204E+01  0.35677819191E+02  0.51100000000E-03 0. -1.
        -11    1    3    3    0    0  0.95540954918E+01 -0.28973382896E+00  0.33574081530E+01  0.10130985940E+02  0.51100000000E-03 0.  1.
        -12    1    3    3    0    0 -0.34608690003E+02 -0.25397540026E+02 -0.10522585905E+02  0.44198656962E+02  0.00000000000E+00 0.  1.
</event>
<event>
 7    1  0.2578619E-015  0.9000785E+02  0.7816164E-02  0.1186339E+00
        -11   -1    0    0    0    0  0.00000000000E+00  0.00000000000E+00  0.45593999997E+02  0.45594000000E+02  0.51100000000E-03 0.  1.
         11   -1    0    0    0    0 -0.00000000000E+00 -0.00000000000E+00 -0.45593999997E+02  0.45594000000E+02  0.51100000000E-03 0. -1.
    9900012    2    1    2    0    0 -0.87800963290E+00  0.78394011505E+00 -0.85417831525E-01  0.90007847796E+02  0.90000110587E+02 0.  0.
        -12    1    1    2    0    0  0.87800963290E+00 -0.78394011505E+00  0.85417831525E-01  0.11801522043E+01  0.00000000000E+00 0.  1.
         11    1    3    3    0    0  0.40957407315E+01  0.39510711170E+02 -0.12252901110E+02  0.41569279223E+02  0.51100000000E-03 0. -1.
        -11    1    3    3    0    0 -0.18281779144E+01 -0.48566001364E+01 -0.75195882238E+01  0.91363563136E+01  0.51100000000E-03 0.  1.
        -12    1    3    3    0    0 -0.31455724500E+01 -0.33870170918E+02  0.19687071502E+02  0.39302212259E+02  0.00000000000E+00 0.  1.
</event>
<event>
 7    1  0.2578619E-015  0.9000761E+02  0.7816164E-02  0.1186339E+00
        -11   -1    0    0    0    0  0.00000000000E+00  0.00000000000E+00  0.45593999997E+02  0.45594000000E+02  0.51100000000E-03 0.  1.
         11   -1    0    0    0    0 -0.00000000000E+00 -0.00000000000E+00 -0.45593999997E+02  0.45594000000E+02  0.51100000000E-03 0. -1.
    9900012    2    1    2    0    0 -0.10256076148E+01  0.17901654733E+00 -0.55624661423E+00  0.90007606761E+02  0.89999866370E+02 0.  0.
        -12    1    1    2    0    0  0.10256076148E+01 -0.17901654733E+00  0.55624661423E+00  0.11803932394E+01  0.00000000000E+00 0.  1.
         11    1    3    3    0    0 -0.97293645287E+01  0.46502466807E+01 -0.31896522807E+01  0.11245408408E+02  0.51100000000E-03 0. -1.
        -11    1    3    3    0    0 -0.94086445783E-01 -0.27334468543E+02 -0.28271884589E+02  0.39325328749E+02  0.51100000000E-03 0.  1.
         12    1    3    3    0    0  0.87978433597E+01  0.22863238410E+02  0.30905290255E+02  0.39436869603E+02  0.00000000000E+00 0. -1.
</event>
<event>
 7    1  0.2578619E-015  0.9000768E+02  0.7816164E-02  0.1186339E+00
        -11   -1    0    0    0    0  0.00000000000E+00  0.00000000000E+00  0.45593999997E+02  0.45594000000E+02  0.51100000000E-03 0.  1.
         11   -1    0    0    0    0 -0.00000000000E+00 -0.00000000000E+00 -0.45593999997E+02  0.45594000000E+02  0.51100000000E-03 0. -1.
    9900012    2    1    2    0    0  0.99400463723E+00  0.58887646336E+00 -0.24150816517E+00  0.90007683559E+02  0.89999944182E+02 0.  0.
        -12    1    1    2    0    0 -0.99400463723E+00 -0.58887646336E+00  0.24150816517E+00  0.11803164414E+01  0.00000000000E+00 0.  1.
         11    1    3    3    0    0 -0.30411050991E+02  0.18595736317E+01 -0.21229871840E+02  0.37134855528E+02  0.51100000000E-03 0. -1.
        -11    1    3    3    0    0 -0.38981105150E+01  0.88336492849E+01 -0.15615437396E+01  0.97809531431E+01  0.51100000000E-03 0.  1.
        -12    1    3    3    0    0  0.35303166143E+02 -0.10104346453E+02  0.22549907414E+02  0.43091874888E+02  0.00000000000E+00 0.  1.
</event>
<event>
 7    1  0.2578619E-015  0.9000768E+02  0.7816164E-02  0.1186339E+00
        -11   -1    0    0    0    0  0.00000000000E+00  0.00000000000E+00  0.45593999997E+02  0.45594000000E+02  0.51100000000E-03 0. -1.
         11   -1    0    0    0    0 -0.00000000000E+00 -0.00000000000E+00 -0.45593999997E+02  0.45594000000E+02  0.51100000000E-03 0.  1.
    9900012    2    1    2    0    0 -0.41856750965E+00  0.24543785212E+00  0.10759762585E+01  0.90007676566E+02  0.89999937097E+02 0.  0.
        -12    1    1    2    0    0  0.41856750965E+00 -0.24543785212E+00 -0.10759762585E+01  0.11803234337E+01  0.00000000000E+00 0.  1.
         11    1    3    3    0    0  0.44303198526E+01  0.99610726714E+01 -0.30109586854E+01  0.11310021009E+02  0.51100000000E-03 0. -1.
        -11    1    3    3    0    0 -0.73283847020E+01  0.33398833967E+02  0.86529213049E+01  0.35271240126E+02  0.51100000000E-03 0.  1.
         12    1    3    3    0    0  0.24794973397E+01 -0.43114468786E+02 -0.45659863610E+01  0.43426415431E+02  0.00000000000E+00 0. -1.
</event>
<event>
 7    1  0.2578619E-015  0.9000769E+02  0.7816164E-02  0.1186339E+00
        -11   -1    0    0    0    0  0.00000000000E+00  0.00000000000E+00  0.45593999997E+02  0.45594000000E+02  0.51100000000E-03 0. -1.
         11   -1    0    0    0    0 -0.00000000000E+00 -0.00000000000E+00 -0.45593999997E+02  0.45594000000E+02  0.51100000000E-03 0.  1.
    9900012    2    1    2    0    0  0.34409013842E+00 -0.12906604888E+00  0.11216437081E+01  0.90007686196E+02  0.89999946854E+02 0.  0.
        -12    1    1    2    0    0 -0.34409013842E+00  0.12906604888E+00 -0.11216437081E+01  0.11803138042E+01  0.00000000000E+00 0.  1.
         11    1    3    3    0    0  0.12696345787E+02 -0.29659382091E+01  0.40196095486E+01  0.13643725554E+02  0.51100000000E-03 0. -1.
        -11    1    3    3    0    0 -0.20240701975E+02 -0.62559738470E+01 -0.35649984717E+02  0.41469803904E+02  0.51100000000E-03 0.  1.
         12    1    3    3    0    0  0.78884463265E+01  0.90928460072E+01  0.32752018877E+02  0.34894156738E+02  0.00000000000E+00 0. -1.
</event>
<event>
 7    1  0.2578619E-015  0.9000783E+02  0.7816164E-02  0.1186339E+00
        -11   -1    0    0    0    0  0.00000000000E+00  0.00000000000E+00  0.45593999997E+02  0.45594000000E+02  0.51100000000E-03 0. -1.
         11   -1    0    0    0    0 -0.00000000000E+00 -0.00000000000E+00 -0.45593999997E+02  0.45594000000E+02  0.51100000000E-03 0.  1.
    9900012    2    1    2    0    0  0.75718050930E+00 -0.53745706469E+00 -0.72844001219E+00  0.90007827440E+02  0.90000089962E+02 0.  0.
        -12    1    1    2    0    0 -0.75718050930E+00  0.53745706469E+00  0.72844001219E+00  0.11801725600E+01  0.00000000000E+00 0.  1.
         11    1    3    3    0    0  0.43254854105E+01 -0.10253003558E+02 -0.32178540333E+01  0.11583975606E+02  0.51100000000E-03 0. -1.
        -11    1    3    3    0    0  0.17847743417E+02  0.17580096140E+02 -0.29772496026E+02  0.38910194618E+02  0.51100000000E-03 0.  1.
         12    1    3    3    0    0 -0.21416048318E+02 -0.78645496460E+01  0.32261910047E+02  0.39513657216E+02  0.00000000000E+00 0. -1.
</event>
<event>
 7    1  0.2578619E-015  0.9000779E+02  0.7816164E-02  0.1186339E+00
        -11   -1    0    0    0    0  0.00000000000E+00  0.00000000000E+00  0.45593999997E+02  0.45594000000E+02  0.51100000000E-03 0.  1.
         11   -1    0    0    0    0 -0.00000000000E+00 -0.00000000000E+00 -0.45593999997E+02  0.45594000000E+02  0.51100000000E-03 0. -1.
    9900012    2    1    2    0    0  0.98050596001E+00  0.24800678932E+00 -0.60827417111E+00  0.90007789522E+02  0.90000051544E+02 0.  0.
        -12    1    1    2    0    0 -0.98050596001E+00 -0.24800678932E+00  0.60827417111E+00  0.11802104780E+01  0.00000000000E+00 0.  1.
         11    1    3    3    0    0  0.62091720274E+01 -0.87174853312E+01  0.15111241637E+01  0.10808878955E+02  0.51100000000E-03 0. -1.
        -11    1    3    3    0    0 -0.10076650585E+02 -0.33311990750E+02 -0.93445364355E+01  0.36035371181E+02  0.51100000000E-03 0.  1.
         12    1    3    3    0    0  0.48479845177E+01  0.42277482870E+02  0.72251381007E+01  0.43163539386E+02  0.00000000000E+00 0. -1.
</event>
<event>
 7    1  0.2919154E-015  0.9000777E+02  0.7816164E-02  0.1186339E+00
        -11   -1    0    0    0    0  0.00000000000E+00  0.00000000000E+00  0.45593999997E+02  0.45594000000E+02  0.51100000000E-03 0.  1.
         11   -1    0    0    0    0 -0.00000000000E+00 -0.00000000000E+00 -0.45593999997E+02  0.45594000000E+02  0.51100000000E-03 0. -1.
    9900012    2    1    2    0    0  0.56405119540E+00 -0.98441010855E+00 -0.32515900603E+00  0.90007768924E+02  0.90000030674E+02 0.  0.
        -12    1    1    2    0    0 -0.56405119540E+00  0.98441010855E+00  0.32515900603E+00  0.11802310757E+01  0.00000000000E+00 0.  1.
         11    1    3    3    0    0  0.34702881224E+01 -0.85169188461E+01 -0.11104134665E+01  0.92635751528E+01  0.51100000000E-03 0. -1.
        -11    1    3    3    0    0  0.94480580264E+01 -0.23536374372E+02  0.27894006626E+02  0.37700163460E+02  0.51100000000E-03 0.  1.
         12    1    3    3    0    0 -0.12354294953E+02  0.31068883109E+02 -0.27108752166E+02  0.43044030311E+02  0.00000000000E+00 0. -1.
</event>
<event>
 7    1  0.2578619E-015  0.9000770E+02  0.7816164E-02  0.1186339E+00
        -11   -1    0    0    0    0  0.00000000000E+00  0.00000000000E+00  0.45593999997E+02  0.45594000000E+02  0.51100000000E-03 0.  1.
         11   -1    0    0    0    0 -0.00000000000E+00 -0.00000000000E+00 -0.45593999997E+02  0.45594000000E+02  0.51100000000E-03 0. -1.
    9900012    2    1    2    0    0 -0.67911173000E+00 -0.87419369816E+00 -0.40951297087E+00  0.90007699938E+02  0.89999960777E+02 0.  0.
        -12    1    1    2    0    0  0.67911173000E+00  0.87419369816E+00  0.40951297087E+00  0.11803000623E+01  0.00000000000E+00 0.  1.
         11    1    3    3    0    0  0.44984623731E+01  0.28749259974E+02 -0.27726266564E+02  0.40193307535E+02  0.51100000000E-03 0. -1.
        -11    1    3    3    0    0  0.87967160721E+01 -0.12096855048E+01  0.15998957964E+01  0.90224841089E+01  0.51100000000E-03 0.  1.
        -12    1    3    3    0    0 -0.13974290175E+02 -0.28413768167E+02  0.25716857797E+02  0.40791908294E+02  0.00000000000E+00 0.  1.
</event>
<event>
 7    1  0.2578619E-015  0.9000774E+02  0.7816164E-02  0.1186339E+00
        -11   -1    0    0    0    0  0.00000000000E+00  0.00000000000E+00  0.45593999997E+02  0.45594000000E+02  0.51100000000E-03 0. -1.
         11   -1    0    0    0    0 -0.00000000000E+00 -0.00000000000E+00 -0.45593999997E+02  0.45594000000E+02  0.51100000000E-03 0.  1.
    9900012    2    1    2    0    0 -0.85659063408E-01 -0.94770305867E+00  0.69823201299E+00  0.90007743034E+02  0.90000004442E+02 0.  0.
        -12    1    1    2    0    0  0.85659063408E-01  0.94770305867E+00 -0.69823201299E+00  0.11802569663E+01  0.00000000000E+00 0.  1.
         11    1    3    3    0    0 -0.24779529972E+02  0.27386098202E+02  0.15380624291E+02  0.40007337879E+02  0.51100000000E-03 0. -1.
        -11    1    3    3    0    0 -0.61754289127E+01 -0.10210188520E+02 -0.25320754419E+01  0.12198167000E+02  0.51100000000E-03 0.  1.
        -12    1    3    3    0    0  0.30869299821E+02 -0.18123612741E+02 -0.12150316836E+02  0.37802238154E+02  0.00000000000E+00 0.  1.
</event>
<event>
 7    1  0.2578619E-015  0.9000772E+02  0.7816164E-02  0.1186339E+00
        -11   -1    0    0    0    0  0.00000000000E+00  0.00000000000E+00  0.45593999997E+02  0.45594000000E+02  0.51100000000E-03 0.  1.
         11   -1    0    0    0    0 -0.00000000000E+00 -0.00000000000E+00 -0.45593999997E+02  0.45594000000E+02  0.51100000000E-03 0. -1.
    9900012    2    1    2    0    0 -0.85416896392E+00 -0.75659739862E+00 -0.30167576015E+00  0.90007723546E+02  0.89999984697E+02 0.  0.
        -12    1    1    2    0    0  0.85416896392E+00  0.75659739862E+00  0.30167576015E+00  0.11802764535E+01  0.00000000000E+00 0.  1.
         11    1    3    3    0    0 -0.69610082657E+01 -0.41011913984E+01  0.53209588717E+01  0.96740896490E+01  0.51100000000E-03 0. -1.
        -11    1    3    3    0    0 -0.17600894325E+02 -0.20903238878E+02  0.23185593248E+02  0.35837251724E+02  0.51100000000E-03 0.  1.
         12    1    3    3    0    0  0.23707733626E+02  0.24247832878E+02 -0.28808227880E+02  0.44496382173E+02  0.00000000000E+00 0. -1.
</event>
<event>
 7    1  0.2578619E-015  0.9000776E+02  0.7816164E-02  0.1186339E+00
        -11   -1    0    0    0    0  0.00000000000E+00  0.00000000000E+00  0.45593999997E+02  0.45594000000E+02  0.51100000000E-03 0. -1.
         11   -1    0    0    0    0 -0.00000000000E+00 -0.00000000000E+00 -0.45593999997E+02  0.45594000000E+02  0.51100000000E-03 0.  1.
    9900012    2    1    2    0    0  0.47748726082E+00 -0.47156893920E-01  0.10783118474E+01  0.90007756679E+02  0.90000018267E+02 0.  0.
        -12    1    1    2    0    0 -0.47748726082E+00  0.47156893920E-01 -0.10783118474E+01  0.11802433211E+01  0.00000000000E+00 0.  1.
         11    1    3    3    0    0 -0.79784113871E+01 -0.59646059883E+01 -0.16856898409E+01  0.10103124435E+02  0.51100000000E-03 0. -1.
        -11    1    3    3    0    0 -0.21193685782E+01 -0.23793902987E+02 -0.27339994404E+02  0.36305878819E+02  0.51100000000E-03 0.  1.
         12    1    3    3    0    0  0.10575267226E+02  0.29711352081E+02  0.30103996093E+02  0.43598753424E+02  0.00000000000E+00 0. -1.
</event>
<event>
 7    1  0.2578619E-015  0.9000766E+02  0.7816164E-02  0.1186339E+00
        -11   -1    0    0    0    0  0.00000000000E+00  0.00000000000E+00  0.45593999997E+02  0.45594000000E+02  0.51100000000E-03 0.  1.
         11   -1    0    0    0    0 -0.00000000000E+00 -0.00000000000E+00 -0.45593999997E+02  0.45594000000E+02  0.51100000000E-03 0. -1.
    9900012    2    1    2    0    0  0.22929149532E+00  0.17604256969E+00 -0.11443945817E+01  0.90007659145E+02  0.89999919445E+02 0.  0.
        -12    1    1    2    0    0 -0.22929149532E+00 -0.17604256969E+00  0.11443945817E+01  0.11803408553E+01  0.00000000000E+00 0.  1.
         11    1    3    3    0    0  0.18774708156E+01 -0.10139353842E+02  0.20602496025E+01  0.10515513382E+02  0.51100000000E-03 0. -1.
        -11    1    3    3    0    0  0.26508339658E+02  0.23324169029E+02  0.20161264037E+02  0.40659383912E+02  0.51100000000E-03 0.  1.
         12    1    3    3    0    0 -0.28156518978E+02 -0.13008772617E+02 -0.23365908221E+02  0.38832761851E+02  0.00000000000E+00 0. -1.
</event>
<event>
 7    1  0.2578619E-015  0.9000754E+02  0.7816164E-02  0.1186339E+00
        -11   -1    0    0    0    0  0.00000000000E+00  0.00000000000E+00  0.45593999997E+02  0.45594000000E+02  0.51100000000E-03 0.  1.
         11   -1    0    0    0    0 -0.00000000000E+00 -0.00000000000E+00 -0.45593999997E+02  0.45594000000E+02  0.51100000000E-03 0. -1.
    9900012    2    1    2    0    0  0.11136765148E+01  0.38880076684E+00 -0.45253078459E-01  0.90007538541E+02  0.89999797249E+02 0.  0.
        -12    1    1    2    0    0 -0.11136765148E+01 -0.38880076684E+00  0.45253078459E-01  0.11804614593E+01  0.00000000000E+00 0.  1.
         11    1    3    3    0    0  0.81565105682E+01 -0.42381362466E+01 -0.24663212714E+01  0.95169955537E+01  0.51100000000E-03 0. -1.
        -11    1    3    3    0    0  0.29336296058E+02 -0.17041654034E+02 -0.11648289106E+02  0.35870863915E+02  0.51100000000E-03 0.  1.
         12    1    3    3    0    0 -0.36379130112E+02  0.21668591048E+02  0.14069357299E+02  0.44619679072E+02  0.00000000000E+00 0. -1.
</event>
<event>
 7    1  0.2578619E-015  0.9000779E+02  0.7816164E-02  0.1186339E+00
        -11   -1    0    0    0    0  0.00000000000E+00  0.00000000000E+00  0.45593999997E+02  0.45594000000E+02  0.51100000000E-03 0.  1.
         11   -1    0    0    0    0 -0.00000000000E+00 -0.00000000000E+00 -0.45593999997E+02  0.45594000000E+02  0.51100000000E-03 0. -1.
    9900012    2    1    2    0    0 -0.22489856569E-01 -0.68400989841E-01 -0.11780099703E+01  0.90007791553E+02  0.90000053601E+02 0.  0.
        -12    1    1    2    0    0  0.22489856569E-01  0.68400989841E-01  0.11780099703E+01  0.11802084473E+01  0.00000000000E+00 0.  1.
         11    1    3    3    0    0 -0.10384374692E+02  0.11942835849E+01  0.10086940972E+02  0.14526111987E+02  0.51100000000E-03 0. -1.
        -11    1    3    3    0    0 -0.29773209169E+02 -0.95281760312E+01  0.44869181784E+01  0.31581047445E+02  0.51100000000E-03 0.  1.
         12    1    3    3    0    0  0.40135094005E+02  0.82654914565E+01 -0.15751869120E+02  0.43900632121E+02  0.00000000000E+00 0. -1.
</event>
<event>
 7    1  0.2578619E-015  0.9000772E+02  0.7816164E-02  0.1186339E+00
        -11   -1    0    0    0    0  0.00000000000E+00  0.00000000000E+00  0.45593999997E+02  0.45594000000E+02  0.51100000000E-03 0.  1.
         11   -1    0    0    0    0 -0.00000000000E+00 -0.00000000000E+00 -0.45593999997E+02  0.45594000000E+02  0.51100000000E-03 0. -1.
    9900012    2    1    2    0    0  0.62844180483E+00  0.96997513929E+00 -0.23931332834E+00  0.90007719634E+02  0.89999980733E+02 0.  0.
        -12    1    1    2    0    0 -0.62844180483E+00 -0.96997513929E+00  0.23931332834E+00  0.11802803659E+01  0.00000000000E+00 0.  1.
         11    1    3    3    0    0  0.10404007355E+01  0.80634715896E+01  0.47114508486E+01  0.93967961097E+01  0.51100000000E-03 0. -1.
        -11    1    3    3    0    0  0.98044431698E+01  0.24331205524E+02  0.24835386132E+02  0.36123829707E+02  0.51100000000E-03 0.  1.
         12    1    3    3    0    0 -0.10216402100E+02 -0.31424701974E+02 -0.29786150309E+02  0.44487093817E+02  0.00000000000E+00 0. -1.
</event>
<event>
 7    1  0.2578619E-015  0.9000772E+02  0.7816164E-02  0.1186339E+00
        -11   -1    0    0    0    0  0.00000000000E+00  0.00000000000E+00  0.45593999997E+02  0.45594000000E+02  0.51100000000E-03 0.  1.
         11   -1    0    0    0    0 -0.00000000000E+00 -0.00000000000E+00 -0.45593999997E+02  0.45594000000E+02  0.51100000000E-03 0. -1.
    9900012    2    1    2    0    0  0.53272526743E+00 -0.12812264704E+00 -0.10453989209E+01  0.90007715913E+02  0.89999976963E+02 0.  0.
        -12    1    1    2    0    0 -0.53272526743E+00  0.12812264704E+00  0.10453989209E+01  0.11802840874E+01  0.00000000000E+00 0.  1.
         11    1    3    3    0    0 -0.14881169828E+01  0.36513521534E+02  0.16676851858E+02  0.40169256094E+02  0.51100000000E-03 0. -1.
        -11    1    3    3    0    0  0.11351777818E+02 -0.67664840286E+01  0.11914954694E+01  0.13269055258E+02  0.51100000000E-03 0.  1.
        -12    1    3    3    0    0 -0.93309355676E+01 -0.29875160153E+02 -0.18913746249E+02  0.36569404560E+02  0.00000000000E+00 0.  1.
</event>
<event>
 7    1  0.2578619E-015  0.9000800E+02  0.7816164E-02  0.1186339E+00
        -11   -1    0    0    0    0  0.00000000000E+00  0.00000000000E+00  0.45593999997E+02  0.45594000000E+02  0.51100000000E-03 0. -1.
         11   -1    0    0    0    0 -0.00000000000E+00 -0.00000000000E+00 -0.45593999997E+02  0.45594000000E+02  0.51100000000E-03 0.  1.
    9900012    2    1    2    0    0  0.54487593970E+00  0.23903810860E+00  0.10190039326E+01  0.90008000838E+02  0.90000265649E+02 0.  0.
        -12    1    1    2    0    0 -0.54487593970E+00 -0.23903810860E+00 -0.10190039326E+01  0.11799991617E+01  0.00000000000E+00 0.  1.
         11    1    3    3    0    0 -0.15195968258E+02  0.26159235490E+02 -0.18990166689E+02  0.35719035315E+02  0.51100000000E-03 0. -1.
        -11    1    3    3    0    0 -0.65560996707E+01  0.69078074126E+01 -0.65665598174E+00  0.95462790386E+01  0.51100000000E-03 0.  1.
        -12    1    3    3    0    0  0.22296943868E+02 -0.32828004794E+02  0.20665826604E+02  0.44742686484E+02  0.00000000000E+00 0.  1.
</event>
<event>
 7    1  0.2578619E-015  0.9000777E+02  0.7816164E-02  0.1186339E+00
        -11   -1    0    0    0    0  0.00000000000E+00  0.00000000000E+00  0.45593999997E+02  0.45594000000E+02  0.51100000000E-03 0.  1.
         11   -1    0    0    0    0 -0.00000000000E+00 -0.00000000000E+00 -0.45593999997E+02  0.45594000000E+02  0.51100000000E-03 0. -1.
    9900012    2    1    2    0    0  0.96728340460E+00  0.53925336332E+00 -0.40804535366E+00  0.90007774435E+02  0.90000036257E+02 0.  0.
        -12    1    1    2    0    0 -0.96728340460E+00 -0.53925336332E+00  0.40804535366E+00  0.11802255654E+01  0.00000000000E+00 0.  1.
         11    1    3    3    0    0  0.44769069322E+01 -0.34686623341E+01  0.83130857534E+01  0.10058911923E+02  0.51100000000E-03 0. -1.
        -11    1    3    3    0    0  0.33031368033E+02  0.19390907512E+02 -0.12073909336E+02  0.40160401581E+02  0.51100000000E-03 0.  1.
         12    1    3    3    0    0 -0.36540991560E+02 -0.15382991815E+02  0.33527782284E+01  0.39788460931E+02  0.00000000000E+00 0. -1.
</event>
<event>
 7    1  0.2578619E-015  0.9000773E+02  0.7816164E-02  0.1186339E+00
        -11   -1    0    0    0    0  0.00000000000E+00  0.00000000000E+00  0.45593999997E+02  0.45594000000E+02  0.51100000000E-03 0.  1.
         11   -1    0    0    0    0 -0.00000000000E+00 -0.00000000000E+00 -0.45593999997E+02  0.45594000000E+02  0.51100000000E-03 0. -1.
    9900012    2    1    2    0    0  0.55388800141E+00  0.52053250250E+00 -0.90292915706E+00  0.90007734324E+02  0.89999995617E+02 0.  0.
        -12    1    1    2    0    0 -0.55388800141E+00 -0.52053250250E+00  0.90292915706E+00  0.11802656764E+01  0.00000000000E+00 0.  1.
         11    1    3    3    0    0 -0.66208887549E+01  0.38365859598E+02  0.81548936001E+01  0.39777853643E+02  0.51100000000E-03 0. -1.
        -11    1    3    3    0    0 -0.13488635974E+01  0.27761847354E+01 -0.81488324633E+01  0.87137882385E+01  0.51100000000E-03 0.  1.
        -12    1    3    3    0    0  0.85236403538E+01 -0.40621511831E+02 -0.90899029389E+00  0.41516092442E+02  0.00000000000E+00 0.  1.
</event>
<event>
 7    1  0.2578619E-015  0.9000771E+02  0.7816164E-02  0.1186339E+00
        -11   -1    0    0    0    0  0.00000000000E+00  0.00000000000E+00  0.45593999997E+02  0.45594000000E+02  0.51100000000E-03 0.  1.
         11   -1    0    0    0    0 -0.00000000000E+00 -0.00000000000E+00 -0.45593999997E+02  0.45594000000E+02  0.51100000000E-03 0. -1.
    9900012    2    1    2    0    0 -0.57290156971E+00  0.64543423445E+00 -0.80516461136E+00  0.90007706981E+02  0.89999967913E+02 0.  0.
        -12    1    1    2    0    0  0.57290156971E+00 -0.64543423445E+00  0.80516461136E+00  0.11802930191E+01  0.00000000000E+00 0.  1.
         11    1    3    3    0    0  0.21740412935E+02  0.47956132688E+01  0.35716023727E+02  0.42086551443E+02  0.51100000000E-03 0. -1.
        -11    1    3    3    0    0 -0.98269813001E+01 -0.32366233135E+01 -0.11624389568E+01  0.10411366699E+02  0.51100000000E-03 0.  1.
        -12    1    3    3    0    0 -0.12486333204E+02 -0.91355572085E+00 -0.35358749382E+02  0.37509788840E+02  0.00000000000E+00 0.  1.
</event>
<event>
 7    1  0.2578619E-015  0.9000779E+02  0.7816164E-02  0.1186339E+00
        -11   -1    0    0    0    0  0.00000000000E+00  0.00000000000E+00  0.45593999997E+02  0.45594000000E+02  0.51100000000E-03 0.  1.
         11   -1    0    0    0    0 -0.00000000000E+00 -0.00000000000E+00 -0.45593999997E+02  0.45594000000E+02  0.51100000000E-03 0. -1.
    9900012    2    1    2    0    0 -0.61380766127E+00  0.91337036972E+00 -0.42649027851E+00  0.90007788479E+02  0.90000050487E+02 0.  0.
        -12    1    1    2    0    0  0.61380766127E+00 -0.91337036972E+00  0.42649027851E+00  0.11802115213E+01  0.00000000000E+00 0.  1.
         11    1    3    3    0    0 -0.33109979564E+02 -0.21106922962E+02 -0.82431411814E+01  0.40121344948E+02  0.51100000000E-03 0. -1.
        -11    1    3    3    0    0  0.32792398980E+01  0.10290647550E+01 -0.93960423996E+01  0.10004898881E+02  0.51100000000E-03 0.  1.
        -12    1    3    3    0    0  0.29216932005E+02  0.20991228577E+02  0.17212693303E+02  0.39881544650E+02  0.00000000000E+00 0.  1.
</event>
<event>
 7    1  0.2578619E-015  0.9000772E+02  0.7816164E-02  0.1186339E+00
        -11   -1    0    0    0    0  0.00000000000E+00  0.00000000000E+00  0.45593999997E+02  0.45594000000E+02  0.51100000000E-03 0. -1.
         11   -1    0    0    0    0 -0.00000000000E+00 -0.00000000000E+00 -0.45593999997E+02  0.45594000000E+02  0.51100000000E-03 0.  1.
    9900012    2    1    2    0    0 -0.10998374268E+01 -0.37958133141E+00  0.19830569426E+00  0.90007724820E+02  0.89999985987E+02 0.  0.
        -12    1    1    2    0    0  0.10998374268E+01  0.37958133141E+00 -0.19830569426E+00  0.11802751802E+01  0.00000000000E+00 0.  1.
         11    1    3    3    0    0  0.87030966060E+01  0.28477277527E+01 -0.22060574934E+01  0.94191365747E+01  0.51100000000E-03 0. -1.
        -11    1    3    3    0    0  0.28459555068E+02  0.46708386416E+01  0.22570134742E+02  0.36622042417E+02  0.51100000000E-03 0.  1.
         12    1    3    3    0    0 -0.38262489101E+02 -0.78981477257E+01 -0.20165771554E+02  0.43966545828E+02  0.00000000000E+00 0. -1.
</event>
<event>
 7    1  0.2578619E-015  0.9000800E+02  0.7816164E-02  0.1186339E+00
        -11   -1    0    0    0    0  0.00000000000E+00  0.00000000000E+00  0.45593999997E+02  0.45594000000E+02  0.51100000000E-03 0.  1.
         11   -1    0    0    0    0 -0.00000000000E+00 -0.00000000000E+00 -0.45593999997E+02  0.45594000000E+02  0.51100000000E-03 0. -1.
    9900012    2    1    2    0    0  0.55986142540E+00 -0.88539648704E+00 -0.54315539069E+00  0.90008004435E+02  0.90000269293E+02 0.  0.
        -12    1    1    2    0    0 -0.55986142540E+00  0.88539648704E+00  0.54315539069E+00  0.11799955650E+01  0.00000000000E+00 0.  1.
         11    1    3    3    0    0  0.80337665443E+01  0.29332032920E+01 -0.81959637373E+01  0.11845628235E+02  0.51100000000E-03 0. -1.
        -11    1    3    3    0    0  0.33551451039E+02 -0.66963763666E+01 -0.61907575764E+01  0.34768761883E+02  0.51100000000E-03 0.  1.
         12    1    3    3    0    0 -0.41025356158E+02  0.28777765876E+01  0.13843565923E+02  0.43393614317E+02  0.00000000000E+00 0. -1.
</event>
<event>
 7    1  0.2578619E-015  0.9000777E+02  0.7816164E-02  0.1186339E+00
        -11   -1    0    0    0    0  0.00000000000E+00  0.00000000000E+00  0.45593999997E+02  0.45594000000E+02  0.51100000000E-03 0.  1.
         11   -1    0    0    0    0 -0.00000000000E+00 -0.00000000000E+00 -0.45593999997E+02  0.45594000000E+02  0.51100000000E-03 0. -1.
    9900012    2    1    2    0    0  0.92561527085E+00 -0.72747419754E+00 -0.83436165576E-01  0.90007769543E+02  0.90000031301E+02 0.  0.
        -12    1    1    2    0    0 -0.92561527085E+00  0.72747419754E+00  0.83436165576E-01  0.11802304569E+01  0.00000000000E+00 0.  1.
         11    1    3    3    0    0  0.82723315211E+01 -0.51955513324E+01 -0.66093193194E+01  0.11794419213E+02  0.51100000000E-03 0. -1.
        -11    1    3    3    0    0  0.29725063063E+02 -0.15449482604E+02 -0.65716803752E+01  0.34138729767E+02  0.51100000000E-03 0.  1.
         12    1    3    3    0    0 -0.37071779314E+02  0.19917559739E+02  0.13097563529E+02  0.44074620564E+02  0.00000000000E+00 0. -1.
</event>
<event>
 7    1  0.2578619E-015  0.9000782E+02  0.7816164E-02  0.1186339E+00
        -11   -1    0    0    0    0  0.00000000000E+00  0.00000000000E+00  0.45593999997E+02  0.45594000000E+02  0.51100000000E-03 0.  1.
         11   -1    0    0    0    0 -0.00000000000E+00 -0.00000000000E+00 -0.45593999997E+02  0.45594000000E+02  0.51100000000E-03 0. -1.
    9900012    2    1    2    0    0  0.10378100439E+01 -0.53913176819E+00  0.15846537352E+00  0.90007820342E+02  0.90000082770E+02 0.  0.
        -12    1    1    2    0    0 -0.10378100439E+01  0.53913176819E+00 -0.15846537352E+00  0.11801796581E+01  0.00000000000E+00 0.  1.
         11    1    3    3    0    0  0.62150258512E+01  0.17377042113E+01  0.74967951214E+01  0.98918198331E+01  0.51100000000E-03 0. -1.
        -11    1    3    3    0    0  0.24913904874E+02 -0.22118799716E+02  0.16221450815E+02  0.37055086341E+02  0.51100000000E-03 0.  1.
         12    1    3    3    0    0 -0.30091120681E+02  0.19841963736E+02 -0.23559780563E+02  0.43060914168E+02  0.00000000000E+00 0. -1.
</event>
<event>
 7    1  0.2578619E-015  0.9000763E+02  0.7816164E-02  0.1186339E+00
        -11   -1    0    0    0    0  0.00000000000E+00  0.00000000000E+00  0.45593999997E+02  0.45594000000E+02  0.51100000000E-03 0. -1.
         11   -1    0    0    0    0 -0.00000000000E+00 -0.00000000000E+00 -0.45593999997E+02  0.45594000000E+02  0.51100000000E-03 0.  1.
    9900012    2    1    2    0    0  0.38040422454E-01  0.11547027178E+01  0.24183778914E+00  0.90007631008E+02  0.89999890938E+02 0.  0.
        -12    1    1    2    0    0 -0.38040422454E-01 -0.11547027178E+01 -0.24183778914E+00  0.11803689917E+01  0.00000000000E+00 0.  1.
         11    1    3    3    0    0  0.97200112347E+00 -0.72497328803E+01 -0.41701941246E+01  0.84198534618E+01  0.51100000000E-03 0. -1.
        -11    1    3    3    0    0 -0.39827035356E+02 -0.51656550082E+01  0.87026712673E-02  0.40160637606E+02  0.51100000000E-03 0.  1.
         12    1    3    3    0    0  0.38893074655E+02  0.13570090606E+02  0.44033292425E+01  0.41427139940E+02  0.00000000000E+00 0. -1.
</event>
<event>
 7    1  0.2578619E-015  0.9000773E+02  0.7816164E-02  0.1186339E+00
        -11   -1    0    0    0    0  0.00000000000E+00  0.00000000000E+00  0.45593999997E+02  0.45594000000E+02  0.51100000000E-03 0.  1.
         11   -1    0    0    0    0 -0.00000000000E+00 -0.00000000000E+00 -0.45593999997E+02  0.45594000000E+02  0.51100000000E-03 0. -1.
    9900012    2    1    2    0    0  0.81757965739E-02 -0.10668372413E+01 -0.50481280830E+00  0.90007726932E+02  0.89999988128E+02 0.  0.
        -12    1    1    2    0    0 -0.81757965739E-02  0.10668372413E+01  0.50481280830E+00  0.11802730677E+01  0.00000000000E+00 0.  1.
         11    1    3    3    0    0 -0.86042282551E+01  0.78460254754E+00 -0.28667829127E+01  0.91031197703E+01  0.51100000000E-03 0. -1.
        -11    1    3    3    0    0 -0.16084155350E+01 -0.26990492534E+02  0.31213475056E+02  0.41295940637E+02  0.51100000000E-03 0.  1.
         12    1    3    3    0    0  0.10220819587E+02  0.25139052745E+02 -0.28851504951E+02  0.39608666525E+02  0.00000000000E+00 0. -1.
</event>
<event>
 7    1  0.2578619E-015  0.9000785E+02  0.7816164E-02  0.1186339E+00
        -11   -1    0    0    0    0  0.00000000000E+00  0.00000000000E+00  0.45593999997E+02  0.45594000000E+02  0.51100000000E-03 0.  1.
         11   -1    0    0    0    0 -0.00000000000E+00 -0.00000000000E+00 -0.45593999997E+02  0.45594000000E+02  0.51100000000E-03 0. -1.
    9900012    2    1    2    0    0  0.64226360826E+00 -0.51216793307E+00  0.84730873273E+00  0.90007851440E+02  0.90000114279E+02 0.  0.
        -12    1    1    2    0    0 -0.64226360826E+00  0.51216793307E+00 -0.84730873273E+00  0.11801485596E+01  0.00000000000E+00 0.  1.
         11    1    3    3    0    0 -0.24905492113E+02  0.30910773811E+01 -0.28019282586E+02  0.37615402346E+02  0.51100000000E-03 0. -1.
        -11    1    3    3    0    0 -0.83397208635E+01 -0.43249303069E+01  0.33787491678E+01  0.99835821447E+01  0.51100000000E-03 0.  1.
        -12    1    3    3    0    0  0.33887476584E+02  0.72168499275E+00  0.25487842151E+02  0.42408866950E+02  0.00000000000E+00 0.  1.
</event>
<event>
 7    1  0.2578619E-015  0.9000774E+02  0.7816164E-02  0.1186339E+00
        -11   -1    0    0    0    0  0.00000000000E+00  0.00000000000E+00  0.45593999997E+02  0.45594000000E+02  0.51100000000E-03 0. -1.
         11   -1    0    0    0    0 -0.00000000000E+00 -0.00000000000E+00 -0.45593999997E+02  0.45594000000E+02  0.51100000000E-03 0.  1.
    9900012    2    1    2    0    0 -0.61789369718E+00  0.71451154983E+00  0.70759410327E+00  0.90007742066E+02  0.90000003461E+02 0.  0.
        -12    1    1    2    0    0  0.61789369718E+00 -0.71451154983E+00 -0.70759410327E+00  0.11802579340E+01  0.00000000000E+00 0.  1.
         11    1    3    3    0    0  0.13532825850E+01  0.26242270200E+01 -0.53336759076E+01  0.60963956692E+01  0.51100000000E-03 0. -1.
        -11    1    3    3    0    0  0.37479180639E+02  0.56904549293E+01 -0.12151137286E+02  0.39808546774E+02  0.51100000000E-03 0.  1.
         12    1    3    3    0    0 -0.39450356921E+02 -0.76001703994E+01  0.18192407296E+02  0.44102799623E+02  0.00000000000E+00 0. -1.
</event>
<event>
 7    1  0.2578619E-015  0.9000767E+02  0.7816164E-02  0.1186339E+00
        -11   -1    0    0    0    0  0.00000000000E+00  0.00000000000E+00  0.45593999997E+02  0.45594000000E+02  0.51100000000E-03 0. -1.
         11   -1    0    0    0    0 -0.00000000000E+00 -0.00000000000E+00 -0.45593999997E+02  0.45594000000E+02  0.51100000000E-03 0.  1.
    9900012    2    1    2    0    0 -0.50478512700E+00  0.56654606848E+00  0.90410331778E+00  0.90007667301E+02  0.89999927709E+02 0.  0.
        -12    1    1    2    0    0  0.50478512700E+00 -0.56654606848E+00 -0.90410331778E+00  0.11803326994E+01  0.00000000000E+00 0.  1.
         11    1    3    3    0    0 -0.10297029122E+01  0.80737688958E+01  0.13539024096E+01  0.82510050458E+01  0.51100000000E-03 0. -1.
        -11    1    3    3    0    0  0.20178681627E+02 -0.22763327424E+02 -0.30274194522E+02  0.42917072615E+02  0.51100000000E-03 0.  1.
         12    1    3    3    0    0 -0.19653763842E+02  0.15256104597E+02  0.29824395430E+02  0.38839589640E+02  0.00000000000E+00 0. -1.
</event>
<event>
 7    1  0.2578619E-015  0.9000777E+02  0.7816164E-02  0.1186339E+00
        -11   -1    0    0    0    0  0.00000000000E+00  0.00000000000E+00  0.45593999997E+02  0.45594000000E+02  0.51100000000E-03 0.  1.
         11   -1    0    0    0    0 -0.00000000000E+00 -0.00000000000E+00 -0.45593999997E+02  0.45594000000E+02  0.51100000000E-03 0. -1.
    9900012    2    1    2    0    0 -0.16025872708E+00  0.36635841405E+00 -0.11104218339E+01  0.90007772057E+02  0.90000033849E+02 0.  0.
        -12    1    1    2    0    0  0.16025872708E+00 -0.36635841405E+00  0.11104218339E+01  0.11802279425E+01  0.00000000000E+00 0.  1.
         11    1    3    3    0    0 -0.75514428597E+01  0.47851879820E+01 -0.29330990959E+00  0.89447383557E+01  0.51100000000E-03 0. -1.
        -11    1    3    3    0    0 -0.12271726078E+02  0.24245361856E+02 -0.26413077510E+02  0.37895692318E+02  0.51100000000E-03 0.  1.
         12    1    3    3    0    0  0.19662910211E+02 -0.28664191424E+02  0.25595965585E+02  0.43167341384E+02  0.00000000000E+00 0. -1.
</event>
<event>
 7    1  0.2578619E-015  0.9000775E+02  0.7816164E-02  0.1186339E+00
        -11   -1    0    0    0    0  0.00000000000E+00  0.00000000000E+00  0.45593999997E+02  0.45594000000E+02  0.51100000000E-03 0. -1.
         11   -1    0    0    0    0 -0.00000000000E+00 -0.00000000000E+00 -0.45593999997E+02  0.45594000000E+02  0.51100000000E-03 0.  1.
    9900012    2    1    2    0    0  0.50406244633E+00  0.10464350720E+01  0.20947641416E+00  0.90007751858E+02  0.90000013382E+02 0.  0.
        -12    1    1    2    0    0 -0.50406244633E+00 -0.10464350720E+01 -0.20947641416E+00  0.11802481425E+01  0.00000000000E+00 0.  1.
         11    1    3    3    0    0  0.16116391199E+02 -0.32097576644E+02  0.96376058734E+01  0.37187039933E+02  0.51100000000E-03 0. -1.
        -11    1    3    3    0    0  0.76853717122E+01 -0.18986138106E+01 -0.71682363279E+01  0.10679573263E+02  0.51100000000E-03 0.  1.
        -12    1    3    3    0    0 -0.23297700465E+02  0.35042625527E+02 -0.22598931314E+01  0.42141138662E+02  0.00000000000E+00 0.  1.
</event>
<event>
 7    1  0.2578619E-015  0.9000771E+02  0.7816164E-02  0.1186339E+00
        -11   -1    0    0    0    0  0.00000000000E+00  0.00000000000E+00  0.45593999997E+02  0.45594000000E+02  0.51100000000E-03 0. -1.
         11   -1    0    0    0    0 -0.00000000000E+00 -0.00000000000E+00 -0.45593999997E+02  0.45594000000E+02  0.51100000000E-03 0.  1.
    9900012    2    1    2    0    0 -0.47155503434E+00 -0.98555282901E+00 -0.44655589314E+00  0.90007707369E+02  0.89999968306E+02 0.  0.
        -12    1    1    2    0    0  0.47155503434E+00  0.98555282901E+00  0.44655589314E+00  0.11802926310E+01  0.00000000000E+00 0.  1.
         11    1    3    3    0    0 -0.32585735686E+01 -0.95534405872E+01 -0.98191368914E+00  0.10141532602E+02  0.51100000000E-03 0. -1.
        -11    1    3    3    0    0 -0.26024076474E+02 -0.15724864670E+02 -0.20534353026E+02  0.36690374483E+02  0.51100000000E-03 0.  1.
         12    1    3    3    0    0  0.28811095008E+02  0.24292752428E+02  0.21069710822E+02  0.43175800285E+02  0.00000000000E+00 0. -1.
</event>
<event>
 7    1  0.2911097E-015  0.9000778E+02  0.7816164E-02  0.1186339E+00
        -11   -1    0    0    0    0  0.00000000000E+00  0.00000000000E+00  0.45593999997E+02  0.45594000000E+02  0.51100000000E-03 0.  1.
         11   -1    0    0    0    0 -0.00000000000E+00 -0.00000000000E+00 -0.45593999997E+02  0.45594000000E+02  0.51100000000E-03 0. -1.
    9900012    2    1    2    0    0  0.26253229431E+00  0.91707717128E+00 -0.69496364216E+00  0.90007776204E+02  0.90000038050E+02 0.  0.
        -12    1    1    2    0    0 -0.26253229431E+00 -0.91707717128E+00  0.69496364216E+00  0.11802237955E+01  0.00000000000E+00 0.  1.
         11    1    3    3    0    0 -0.29234454431E-01 -0.73065364302E+01  0.57865435953E+01  0.93204300491E+01  0.51100000000E-03 0. -1.
        -11    1    3    3    0    0  0.13851399858E+02 -0.11040599731E+00  0.34256238311E+02  0.36950823144E+02  0.51100000000E-03 0.  1.
         12    1    3    3    0    0 -0.13559633109E+02  0.83340195988E+01 -0.40737745549E+02  0.43736523011E+02  0.00000000000E+00 0. -1.
</event>
<event>
 7    1  0.2578619E-015  0.9000794E+02  0.7816164E-02  0.1186339E+00
        -11   -1    0    0    0    0  0.00000000000E+00  0.00000000000E+00  0.45593999997E+02  0.45594000000E+02  0.51100000000E-03 0.  1.
         11   -1    0    0    0    0 -0.00000000000E+00 -0.00000000000E+00 -0.45593999997E+02  0.45594000000E+02  0.51100000000E-03 0. -1.
    9900012    2    1    2    0    0  0.10022607948E+01  0.54362519671E+00 -0.30409949845E+00  0.90007944255E+02  0.90000208319E+02 0.  0.
        -12    1    1    2    0    0 -0.10022607948E+01 -0.54362519671E+00  0.30409949845E+00  0.11800557446E+01  0.00000000000E+00 0.  1.
         11    1    3    3    0    0 -0.34203298467E+01  0.93976839454E+01 -0.23739958170E+01  0.10278666071E+02  0.51100000000E-03 0. -1.
        -11    1    3    3    0    0  0.13204884045E+02  0.25260764973E+02  0.24819164971E+02  0.37795054700E+02  0.51100000000E-03 0.  1.
         12    1    3    3    0    0 -0.87822934033E+01 -0.34114823722E+02 -0.22749268652E+02  0.41934223484E+02  0.00000000000E+00 0. -1.
</event>
<event>
 7    1  0.2578619E-015  0.9000773E+02  0.7816164E-02  0.1186339E+00
        -11   -1    0    0    0    0  0.00000000000E+00  0.00000000000E+00  0.45593999997E+02  0.45594000000E+02  0.51100000000E-03 0.  1.
         11   -1    0    0    0    0 -0.00000000000E+00 -0.00000000000E+00 -0.45593999997E+02  0.45594000000E+02  0.51100000000E-03 0. -1.
    9900012    2    1    2    0    0  0.61388419042E+00  0.34467171637E+00 -0.94730628032E+00  0.90007728175E+02  0.89999989387E+02 0.  0.
        -12    1    1    2    0    0 -0.61388419042E+00 -0.34467171637E+00  0.94730628032E+00  0.11802718246E+01  0.00000000000E+00 0.  1.
         11    1    3    3    0    0  0.22883923616E+01  0.40573063119E+02  0.41126596902E+01  0.40845124072E+02  0.51100000000E-03 0. -1.
        -11    1    3    3    0    0  0.36431054190E+01 -0.32803116520E+01  0.81958007462E+01  0.95500686783E+01  0.51100000000E-03 0.  1.
        -12    1    3    3    0    0 -0.53176135901E+01 -0.36948079751E+02 -0.13255766717E+02  0.39612535425E+02  0.00000000000E+00 0.  1.
</event>
<event>
 7    1  0.2578619E-015  0.9000754E+02  0.7816164E-02  0.1186339E+00
        -11   -1    0    0    0    0  0.00000000000E+00  0.00000000000E+00  0.45593999997E+02  0.45594000000E+02  0.51100000000E-03 0.  1.
         11   -1    0    0    0    0 -0.00000000000E+00 -0.00000000000E+00 -0.45593999997E+02  0.45594000000E+02  0.51100000000E-03 0. -1.
    9900012    2    1    2    0    0 -0.60010479683E+00  0.31432021567E+00 -0.96673293857E+00  0.90007535880E+02  0.89999794553E+02 0.  0.
        -12    1    1    2    0    0  0.60010479683E+00 -0.31432021567E+00  0.96673293857E+00  0.11804641204E+01  0.00000000000E+00 0.  1.
         11    1    3    3    0    0 -0.29584430982E+02  0.64962388554E+01 -0.27563647232E+02  0.40953563029E+02  0.51100000000E-03 0. -1.
        -11    1    3    3    0    0  0.69032862487E+01  0.22538088410E+01 -0.55586563399E+01  0.91451449354E+01  0.51100000000E-03 0.  1.
        -12    1    3    3    0    0  0.22081039936E+02 -0.84357274808E+01  0.32155570633E+02  0.39908827915E+02  0.00000000000E+00 0.  1.
</event>
<event>
 7    1  0.2578619E-015  0.9000777E+02  0.7816164E-02  0.1186339E+00
        -11   -1    0    0    0    0  0.00000000000E+00  0.00000000000E+00  0.45593999997E+02  0.45594000000E+02  0.51100000000E-03 0.  1.
         11   -1    0    0    0    0 -0.00000000000E+00 -0.00000000000E+00 -0.45593999997E+02  0.45594000000E+02  0.51100000000E-03 0. -1.
    9900012    2    1    2    0    0 -0.58674475115E+00 -0.90896103310E+00  0.47166976185E+00  0.90007766156E+02  0.90000027869E+02 0.  0.
        -12    1    1    2    0    0  0.58674475115E+00  0.90896103310E+00 -0.47166976185E+00  0.11802338442E+01  0.00000000000E+00 0.  1.
         11    1    3    3    0    0  0.33483631254E+02 -0.10967802280E+01  0.13547910523E+02  0.36137271184E+02  0.51100000000E-03 0. -1.
        -11    1    3    3    0    0  0.33022591245E+00 -0.14087580336E+02  0.82562672821E+00  0.14115616481E+02  0.51100000000E-03 0.  1.
        -12    1    3    3    0    0 -0.34400601918E+02  0.14275399531E+02 -0.13901867489E+02  0.39754878490E+02  0.00000000000E+00 0.  1.
</event>
<event>
 7    1  0.2578619E-015  0.9000772E+02  0.7816164E-02  0.1186339E+00
        -11   -1    0    0    0    0  0.00000000000E+00  0.00000000000E+00  0.45593999997E+02  0.45594000000E+02  0.51100000000E-03 0.  1.
         11   -1    0    0    0    0 -0.00000000000E+00 -0.00000000000E+00 -0.45593999997E+02  0.45594000000E+02  0.51100000000E-03 0. -1.
    9900012    2    1    2    0    0  0.44431286868E+00 -0.77544973410E+00 -0.77092116324E+00  0.90007722213E+02  0.89999983346E+02 0.  0.
        -12    1    1    2    0    0 -0.44431286868E+00  0.77544973410E+00  0.77092116324E+00  0.11802777874E+01  0.00000000000E+00 0.  1.
         11    1    3    3    0    0 -0.47562196980E-01 -0.42596791358E+01  0.87369779450E+01  0.97201806760E+01  0.51100000000E-03 0. -1.
        -11    1    3    3    0    0  0.29719649951E+01  0.39707629239E+02  0.69546989571E+01  0.40421482327E+02  0.51100000000E-03 0.  1.
         12    1    3    3    0    0 -0.24800899294E+01 -0.36223399837E+02 -0.16462598065E+02  0.39866059209E+02  0.00000000000E+00 0. -1.
</event>
<event>
 7    1  0.2578619E-015  0.9000776E+02  0.7816164E-02  0.1186339E+00
        -11   -1    0    0    0    0  0.00000000000E+00  0.00000000000E+00  0.45593999997E+02  0.45594000000E+02  0.51100000000E-03 0. -1.
         11   -1    0    0    0    0 -0.00000000000E+00 -0.00000000000E+00 -0.45593999997E+02  0.45594000000E+02  0.51100000000E-03 0.  1.
    9900012    2    1    2    0    0  0.25955394566E+00  0.76210983555E-01  0.11488238515E+01  0.90007757395E+02  0.90000018993E+02 0.  0.
        -12    1    1    2    0    0 -0.25955394566E+00 -0.76210983555E-01 -0.11488238515E+01  0.11802426049E+01  0.00000000000E+00 0.  1.
         11    1    3    3    0    0 -0.14700567143E+02  0.26763076927E+02  0.24441134939E+02  0.39111865697E+02  0.51100000000E-03 0. -1.
        -11    1    3    3    0    0 -0.40763980091E+01  0.60075100863E+01 -0.22265677757E+01  0.75937344230E+01  0.51100000000E-03 0.  1.
        -12    1    3    3    0    0  0.19036519098E+02 -0.32694376030E+02 -0.21065743312E+02  0.43302157275E+02  0.00000000000E+00 0.  1.
</event>
<event>
 7    1  0.2578619E-015  0.9000773E+02  0.7816164E-02  0.1186339E+00
        -11   -1    0    0    0    0  0.00000000000E+00  0.00000000000E+00  0.45593999997E+02  0.45594000000E+02  0.51100000000E-03 0.  1.
         11   -1    0    0    0    0 -0.00000000000E+00 -0.00000000000E+00 -0.45593999997E+02  0.45594000000E+02  0.51100000000E-03 0. -1.
    9900012    2    1    2    0    0  0.14021646883E+00  0.10929597215E+01 -0.42286944965E+00  0.90007728767E+02  0.89999989987E+02 0.  0.
        -12    1    1    2    0    0 -0.14021646883E+00 -0.10929597215E+01  0.42286944965E+00  0.11802712326E+01  0.00000000000E+00 0.  1.
         11    1    3    3    0    0  0.24618351588E+02  0.30385217674E+02 -0.11756692689E+02  0.40835578988E+02  0.51100000000E-03 0. -1.
        -11    1    3    3    0    0 -0.96594256931E+01  0.10873397103E+01 -0.57555019153E+01  0.11296575363E+02  0.51100000000E-03 0.  1.
        -12    1    3    3    0    0 -0.14818709427E+02 -0.30379597662E+02  0.17089325154E+02  0.37875574417E+02  0.00000000000E+00 0.  1.
</event>
<event>
 7    1  0.2578619E-015  0.9000785E+02  0.7816164E-02  0.1186339E+00
        -11   -1    0    0    0    0  0.00000000000E+00  0.00000000000E+00  0.45593999997E+02  0.45594000000E+02  0.51100000000E-03 0.  1.
         11   -1    0    0    0    0 -0.00000000000E+00 -0.00000000000E+00 -0.45593999997E+02  0.45594000000E+02  0.51100000000E-03 0. -1.
    9900012    2    1    2    0    0 -0.51324099895E+00 -0.88205122020E+00  0.59272975293E+00  0.90007847790E+02  0.90000110581E+02 0.  0.
        -12    1    1    2    0    0  0.51324099895E+00  0.88205122020E+00 -0.59272975293E+00  0.11801522097E+01  0.00000000000E+00 0.  1.
         11    1    3    3    0    0  0.18331568781E+02  0.27412238549E+02  0.13179725390E+02  0.35513129936E+02  0.51100000000E-03 0. -1.
        -11    1    3    3    0    0  0.49506436676E+01  0.37640693492E+01 -0.13171591166E+02  0.14565984515E+02  0.51100000000E-03 0.  1.
        -12    1    3    3    0    0 -0.23795453447E+02 -0.32058359119E+02  0.58459552889E+00  0.39928733339E+02  0.00000000000E+00 0.  1.
</event>
<event>
 7    1  0.2578619E-015  0.9000823E+02  0.7816164E-02  0.1186338E+00
        -11   -1    0    0    0    0  0.00000000000E+00  0.00000000000E+00  0.45593999997E+02  0.45594000000E+02  0.51100000000E-03 0. -1.
         11   -1    0    0    0    0 -0.00000000000E+00 -0.00000000000E+00 -0.45593999997E+02  0.45594000000E+02  0.51100000000E-03 0.  1.
    9900012    2    1    2    0    0  0.10362702880E+00 -0.19243573121E+00  0.11593446589E+01  0.90008233027E+02  0.90000500902E+02 0.  0.
        -12    1    1    2    0    0 -0.10362702880E+00  0.19243573121E+00 -0.11593446589E+01  0.11797669727E+01  0.00000000000E+00 0.  1.
         11    1    3    3    0    0  0.45485747951E+00  0.19644730565E+02 -0.16281320979E+01  0.19717331176E+02  0.51100000000E-03 0. -1.
        -11    1    3    3    0    0  0.78386117469E+01 -0.19481542159E+02 -0.29930050783E+02  0.36562033028E+02  0.51100000000E-03 0.  1.
         12    1    3    3    0    0 -0.81898421976E+01 -0.35562413753E+00  0.32717527540E+02  0.33728868823E+02  0.00000000000E+00 0. -1.
</event>
<event>
 7    1  0.2578619E-015  0.9000796E+02  0.7816164E-02  0.1186339E+00
        -11   -1    0    0    0    0  0.00000000000E+00  0.00000000000E+00  0.45593999997E+02  0.45594000000E+02  0.51100000000E-03 0. -1.
         11   -1    0    0    0    0 -0.00000000000E+00 -0.00000000000E+00 -0.45593999997E+02  0.45594000000E+02  0.51100000000E-03 0.  1.
    9900012    2    1    2    0    0 -0.99896597438E+00  0.48309671250E+00  0.40145646383E+00  0.90007964940E+02  0.90000229276E+02 0.  0.
        -12    1    1    2    0    0  0.99896597438E+00 -0.48309671250E+00 -0.40145646383E+00  0.11800350605E+01  0.00000000000E+00 0.  1.
         11    1    3    3    0    0  0.76156290407E+01  0.42374432839E+01  0.39021313498E+00  0.87238751608E+01  0.51100000000E-03 0. -1.
        -11    1    3    3    0    0  0.18831821578E+02 -0.26714075612E+01 -0.33153193140E+02  0.38221828029E+02  0.51100000000E-03 0.  1.
         12    1    3    3    0    0 -0.27446416593E+02 -0.10829390102E+01  0.33164436469E+02  0.43062261749E+02  0.00000000000E+00 0. -1.
</event>
<event>
 7    1  0.2578619E-015  0.9000784E+02  0.7816164E-02  0.1186339E+00
        -11   -1    0    0    0    0  0.00000000000E+00  0.00000000000E+00  0.45593999997E+02  0.45594000000E+02  0.51100000000E-03 0.  1.
         11   -1    0    0    0    0 -0.00000000000E+00 -0.00000000000E+00 -0.45593999997E+02  0.45594000000E+02  0.51100000000E-03 0. -1.
    9900012    2    1    2    0    0  0.10863643820E+01 -0.35743784170E+00 -0.29126074137E+00  0.90007838062E+02  0.90000100724E+02 0.  0.
        -12    1    1    2    0    0 -0.10863643820E+01  0.35743784170E+00  0.29126074137E+00  0.11801619383E+01  0.00000000000E+00 0.  1.
         11    1    3    3    0    0 -0.69142757682E+01  0.67103565277E+00  0.55517305720E+01  0.88926492594E+01  0.51100000000E-03 0. -1.
        -11    1    3    3    0    0  0.14413725476E+02 -0.32322910146E+02  0.19437352057E+02  0.40377427576E+02  0.51100000000E-03 0.  1.
         12    1    3    3    0    0 -0.64130853258E+01  0.31294436652E+02 -0.25280343371E+02  0.40737761226E+02  0.00000000000E+00 0. -1.
</event>
<event>
 7    1  0.2578619E-015  0.9000775E+02  0.7816164E-02  0.1186339E+00
        -11   -1    0    0    0    0  0.00000000000E+00  0.00000000000E+00  0.45593999997E+02  0.45594000000E+02  0.51100000000E-03 0. -1.
         11   -1    0    0    0    0 -0.00000000000E+00 -0.00000000000E+00 -0.45593999997E+02  0.45594000000E+02  0.51100000000E-03 0.  1.
    9900012    2    1    2    0    0  0.42832973972E+00  0.42843584180E+00  0.10129008508E+01  0.90007749277E+02  0.90000010767E+02 0.  0.
        -12    1    1    2    0    0 -0.42832973972E+00 -0.42843584180E+00 -0.10129008508E+01  0.11802507233E+01  0.00000000000E+00 0.  1.
         11    1    3    3    0    0 -0.17206074087E+02 -0.24227307594E+02  0.24265517671E+02  0.38364394519E+02  0.51100000000E-03 0. -1.
        -11    1    3    3    0    0  0.81078920637E+01 -0.12200808909E-01  0.75278944890E+01  0.11063781373E+02  0.51100000000E-03 0.  1.
        -12    1    3    3    0    0  0.95265117633E+01  0.24667944244E+02 -0.30780511309E+02  0.40579573384E+02  0.00000000000E+00 0.  1.
</event>
<event>
 7    1  0.2578619E-015  0.9000775E+02  0.7816164E-02  0.1186339E+00
        -11   -1    0    0    0    0  0.00000000000E+00  0.00000000000E+00  0.45593999997E+02  0.45594000000E+02  0.51100000000E-03 0.  1.
         11   -1    0    0    0    0 -0.00000000000E+00 -0.00000000000E+00 -0.45593999997E+02  0.45594000000E+02  0.51100000000E-03 0. -1.
    9900012    2    1    2    0    0  0.10667837457E+01  0.18182433922E+00 -0.47105307507E+00  0.90007754835E+02  0.90000016399E+02 0.  0.
        -12    1    1    2    0    0 -0.10667837457E+01 -0.18182433922E+00  0.47105307507E+00  0.11802451652E+01  0.00000000000E+00 0.  1.
         11    1    3    3    0    0  0.40487510005E+02  0.15784596802E+02 -0.17851643405E+01  0.43492284081E+02  0.51100000000E-03 0. -1.
        -11    1    3    3    0    0 -0.24926076944E+01 -0.46322807224E+01  0.56847027399E+01  0.77451251321E+01  0.51100000000E-03 0.  1.
        -12    1    3    3    0    0 -0.36928118565E+02 -0.10970491740E+02 -0.43705914745E+01  0.38770345622E+02  0.00000000000E+00 0.  1.
</event>
<event>
 7    1  0.2578619E-015  0.9000777E+02  0.7816164E-02  0.1186339E+00
        -11   -1    0    0    0    0  0.00000000000E+00  0.00000000000E+00  0.45593999997E+02  0.45594000000E+02  0.51100000000E-03 0. -1.
         11   -1    0    0    0    0 -0.00000000000E+00 -0.00000000000E+00 -0.45593999997E+02  0.45594000000E+02  0.51100000000E-03 0.  1.
    9900012    2    1    2    0    0 -0.10339837175E+00 -0.51671179634E+00  0.10560585777E+01  0.90007770351E+02  0.90000032120E+02 0.  0.
        -12    1    1    2    0    0  0.10339837175E+00  0.51671179634E+00 -0.10560585777E+01  0.11802296485E+01  0.00000000000E+00 0.  1.
         11    1    3    3    0    0 -0.36891836507E+02 -0.84804120075E+01  0.63866594757E+01  0.38388988111E+02  0.51100000000E-03 0. -1.
        -11    1    3    3    0    0 -0.41157036440E+01  0.60742799782E+01  0.56081602606E+01  0.92351153490E+01  0.51100000000E-03 0.  1.
        -12    1    3    3    0    0  0.40904141779E+02  0.18894202330E+01 -0.10938761159E+02  0.42383666892E+02  0.00000000000E+00 0.  1.
</event>
<event>
 7    1  0.2578619E-015  0.9000768E+02  0.7816164E-02  0.1186339E+00
        -11   -1    0    0    0    0  0.00000000000E+00  0.00000000000E+00  0.45593999997E+02  0.45594000000E+02  0.51100000000E-03 0.  1.
         11   -1    0    0    0    0 -0.00000000000E+00 -0.00000000000E+00 -0.45593999997E+02  0.45594000000E+02  0.51100000000E-03 0. -1.
    9900012    2    1    2    0    0 -0.32606870598E-01 -0.87847385077E+00  0.78764499261E+00  0.90007676253E+02  0.89999936779E+02 0.  0.
        -12    1    1    2    0    0  0.32606870598E-01  0.87847385077E+00 -0.78764499261E+00  0.11803237475E+01  0.00000000000E+00 0.  1.
         11    1    3    3    0    0 -0.11317619393E+01  0.86680325271E+01 -0.28921057041E+01  0.92076027631E+01  0.51100000000E-03 0. -1.
        -11    1    3    3    0    0  0.31282494081E+02 -0.39378773427E+01  0.27582974458E+02  0.41891786714E+02  0.51100000000E-03 0.  1.
         12    1    3    3    0    0 -0.30183339012E+02 -0.56086290352E+01 -0.23903223761E+02  0.38908286775E+02  0.00000000000E+00 0. -1.
</event>
<event>
 7    1  0.2578619E-015  0.9000759E+02  0.7816164E-02  0.1186339E+00
        -11   -1    0    0    0    0  0.00000000000E+00  0.00000000000E+00  0.45593999997E+02  0.45594000000E+02  0.51100000000E-03 0.  1.
         11   -1    0    0    0    0 -0.00000000000E+00 -0.00000000000E+00 -0.45593999997E+02  0.45594000000E+02  0.51100000000E-03 0. -1.
    9900012    2    1    2    0    0  0.14863540036E+00 -0.11698891878E+01  0.51309038659E-01  0.90007590829E+02  0.89999850228E+02 0.  0.
        -12    1    1    2    0    0 -0.14863540036E+00  0.11698891878E+01 -0.51309038659E-01  0.11804091712E+01  0.00000000000E+00 0.  1.
         11    1    3    3    0    0  0.65787452996E+01  0.71086385787E-01  0.33395128221E+01  0.73781629923E+01  0.51100000000E-03 0. -1.
        -11    1    3    3    0    0 -0.19504531563E+02 -0.18159618458E+02  0.31830550470E+02  0.41513641583E+02  0.51100000000E-03 0.  1.
         12    1    3    3    0    0  0.13074421664E+02  0.16918642884E+02 -0.35118754253E+02  0.41115786253E+02  0.00000000000E+00 0. -1.
</event>
<event>
 7    1  0.2578619E-015  0.9000780E+02  0.7816164E-02  0.1186339E+00
        -11   -1    0    0    0    0  0.00000000000E+00  0.00000000000E+00  0.45593999997E+02  0.45594000000E+02  0.51100000000E-03 0. -1.
         11   -1    0    0    0    0 -0.00000000000E+00 -0.00000000000E+00 -0.45593999997E+02  0.45594000000E+02  0.51100000000E-03 0.  1.
    9900012    2    1    2    0    0  0.21055863017E+00 -0.64548348615E+00  0.96533856292E+00  0.90007804080E+02  0.90000066294E+02 0.  0.
        -12    1    1    2    0    0 -0.21055863017E+00  0.64548348615E+00 -0.96533856292E+00  0.11801959196E+01  0.00000000000E+00 0.  1.
         11    1    3    3    0    0 -0.19563840187E+02 -0.29167165398E+02 -0.12591511066E+02  0.37309697552E+02  0.51100000000E-03 0. -1.
        -11    1    3    3    0    0  0.40500006797E+01 -0.68420191703E+01 -0.53915267442E+01  0.96064713983E+01  0.51100000000E-03 0.  1.
        -12    1    3    3    0    0  0.15724398137E+02  0.35363701083E+02  0.18948376373E+02  0.43091635130E+02  0.00000000000E+00 0.  1.
</event>
<event>
 7    1  0.2578619E-015  0.9000777E+02  0.7816164E-02  0.1186339E+00
        -11   -1    0    0    0    0  0.00000000000E+00  0.00000000000E+00  0.45593999997E+02  0.45594000000E+02  0.51100000000E-03 0. -1.
         11   -1    0    0    0    0 -0.00000000000E+00 -0.00000000000E+00 -0.45593999997E+02  0.45594000000E+02  0.51100000000E-03 0.  1.
    9900012    2    1    2    0    0  0.11554088902E+01 -0.19298495682E+00  0.14395543009E+00  0.90007772877E+02  0.90000034678E+02 0.  0.
        -12    1    1    2    0    0 -0.11554088902E+01  0.19298495682E+00 -0.14395543009E+00  0.11802271235E+01  0.00000000000E+00 0.  1.
         11    1    3    3    0    0  0.17533522769E+02 -0.27276609573E+02 -0.39076651405E+01  0.32660491386E+02  0.51100000000E-03 0. -1.
        -11    1    3    3    0    0  0.86570187838E+01 -0.94611155650E+01 -0.37130258525E+00  0.12829440667E+02  0.51100000000E-03 0.  1.
        -12    1    3    3    0    0 -0.25035132663E+02  0.36544740181E+02  0.44229231559E+01  0.44517840823E+02  0.00000000000E+00 0.  1.
</event>
<event>
 7    1  0.2578619E-015  0.9000771E+02  0.7816164E-02  0.1186339E+00
        -11   -1    0    0    0    0  0.00000000000E+00  0.00000000000E+00  0.45593999997E+02  0.45594000000E+02  0.51100000000E-03 0. -1.
         11   -1    0    0    0    0 -0.00000000000E+00 -0.00000000000E+00 -0.45593999997E+02  0.45594000000E+02  0.51100000000E-03 0.  1.
    9900012    2    1    2    0    0 -0.37244193766E+00 -0.88136430058E+00  0.69106030487E+00  0.90007711742E+02  0.89999972737E+02 0.  0.
        -12    1    1    2    0    0  0.37244193766E+00  0.88136430058E+00 -0.69106030487E+00  0.11802882581E+01  0.00000000000E+00 0.  1.
         11    1    3    3    0    0 -0.22988722162E+02 -0.28902244109E+02  0.14485239155E+02  0.39669172096E+02  0.51100000000E-03 0. -1.
        -11    1    3    3    0    0  0.12389392832E+01 -0.59146095605E+01 -0.76726167399E+01  0.97666076352E+01  0.51100000000E-03 0.  1.
        -12    1    3    3    0    0  0.21377340941E+02  0.33935489369E+02 -0.61215621104E+01  0.40571932011E+02  0.00000000000E+00 0.  1.
</event>
<event>
 7    1  0.2578619E-015  0.9000699E+02  0.7816164E-02  0.1186341E+00
        -11   -1    0    0    0    0  0.00000000000E+00  0.00000000000E+00  0.45593999997E+02  0.45594000000E+02  0.51100000000E-03 0.  1.
         11   -1    0    0    0    0 -0.00000000000E+00 -0.00000000000E+00 -0.45593999997E+02  0.45594000000E+02  0.51100000000E-03 0. -1.
    9900012    2    1    2    0    0 -0.93517815468E+00  0.71623421171E+00  0.85046465990E-01  0.90006990886E+02  0.89999242362E+02 0.  0.
        -12    1    1    2    0    0  0.93517815468E+00 -0.71623421171E+00 -0.85046465990E-01  0.11810091144E+01  0.00000000000E+00 0.  1.
         11    1    3    3    0    0  0.10293515829E+01 -0.87153100023E+01 -0.20334602615E+01  0.90083935312E+01  0.51100000000E-03 0. -1.
        -11    1    3    3    0    0 -0.16553180780E+02  0.40042713044E+02 -0.10894057694E+02  0.44677815022E+02  0.51100000000E-03 0.  1.
         12    1    3    3    0    0  0.14588651043E+02 -0.30611168830E+02  0.13012564422E+02  0.36320782332E+02  0.00000000000E+00 0. -1.
</event>
<event>
 7    1  0.2578619E-015  0.9000778E+02  0.7816164E-02  0.1186339E+00
        -11   -1    0    0    0    0  0.00000000000E+00  0.00000000000E+00  0.45593999997E+02  0.45594000000E+02  0.51100000000E-03 0. -1.
         11   -1    0    0    0    0 -0.00000000000E+00 -0.00000000000E+00 -0.45593999997E+02  0.45594000000E+02  0.51100000000E-03 0.  1.
    9900012    2    1    2    0    0  0.52859303781E+00 -0.91898920994E+00  0.51862462364E+00  0.90007778297E+02  0.90000040171E+02 0.  0.
        -12    1    1    2    0    0 -0.52859303781E+00  0.91898920994E+00 -0.51862462364E+00  0.11802217028E+01  0.00000000000E+00 0.  1.
         11    1    3    3    0    0 -0.34770714387E+01  0.82107045573E+01  0.10082444780E+02  0.13459620653E+02  0.51100000000E-03 0. -1.
        -11    1    3    3    0    0 -0.31801091709E+02  0.10768935147E+02  0.29781857613E+01  0.33706809234E+02  0.51100000000E-03 0.  1.
         12    1    3    3    0    0  0.35806756185E+02 -0.19898628914E+02 -0.12542005917E+02  0.42841348410E+02  0.00000000000E+00 0. -1.
</event>
<event>
 7    1  0.2578619E-015  0.9000827E+02  0.7816164E-02  0.1186338E+00
        -11   -1    0    0    0    0  0.00000000000E+00  0.00000000000E+00  0.45593999997E+02  0.45594000000E+02  0.51100000000E-03 0. -1.
         11   -1    0    0    0    0 -0.00000000000E+00 -0.00000000000E+00 -0.45593999997E+02  0.45594000000E+02  0.51100000000E-03 0.  1.
    9900012    2    1    2    0    0 -0.34081881868E+00  0.48566394489E+00  0.10196778658E+01  0.90008267028E+02  0.90000535351E+02 0.  0.
        -12    1    1    2    0    0  0.34081881868E+00 -0.48566394489E+00 -0.10196778658E+01  0.11797329717E+01  0.00000000000E+00 0.  1.
         11    1    3    3    0    0  0.39992575726E+01  0.38106347703E+02 -0.17630587143E+01  0.38356175157E+02  0.51100000000E-03 0. -1.
        -11    1    3    3    0    0  0.69414137464E+01  0.30415681442E+01  0.55037923179E+01  0.93662207808E+01  0.51100000000E-03 0.  1.
        -12    1    3    3    0    0 -0.11281490138E+02 -0.40662251903E+02 -0.27210557378E+01  0.42285871090E+02  0.00000000000E+00 0.  1.
</event>
<event>
 7    1  0.2578619E-015  0.9000769E+02  0.7816164E-02  0.1186339E+00
        -11   -1    0    0    0    0  0.00000000000E+00  0.00000000000E+00  0.45593999997E+02  0.45594000000E+02  0.51100000000E-03 0.  1.
         11   -1    0    0    0    0 -0.00000000000E+00 -0.00000000000E+00 -0.45593999997E+02  0.45594000000E+02  0.51100000000E-03 0. -1.
    9900012    2    1    2    0    0 -0.10637781255E+01 -0.42020638152E+00 -0.29145398290E+00  0.90007685327E+02  0.89999945973E+02 0.  0.
        -12    1    1    2    0    0  0.10637781255E+01  0.42020638152E+00  0.29145398290E+00  0.11803146731E+01  0.00000000000E+00 0.  1.
         11    1    3    3    0    0 -0.62520356905E-01 -0.12076561962E+02 -0.24513900092E+01  0.12323009813E+02  0.51100000000E-03 0. -1.
        -11    1    3    3    0    0  0.37850973499E+02  0.51834217052E+01  0.26233162143E+01  0.38294201175E+02  0.51100000000E-03 0.  1.
         12    1    3    3    0    0 -0.38852231268E+02  0.64729338756E+01 -0.46338018801E+00  0.39390474339E+02  0.00000000000E+00 0. -1.
</event>
<event>
 7    1  0.2578619E-015  0.9000855E+02  0.7816164E-02  0.1186337E+00
        -11   -1    0    0    0    0  0.00000000000E+00  0.00000000000E+00  0.45593999997E+02  0.45594000000E+02  0.51100000000E-03 0.  1.
         11   -1    0    0    0    0 -0.00000000000E+00 -0.00000000000E+00 -0.45593999997E+02  0.45594000000E+02  0.51100000000E-03 0. -1.
    9900012    2    1    2    0    0  0.11275686013E+01 -0.29405331603E-01 -0.34470751362E+00  0.90008551445E+02  0.90000823520E+02 0.  0.
        -12    1    1    2    0    0 -0.11275686013E+01  0.29405331603E-01  0.34470751362E+00  0.11794485551E+01  0.00000000000E+00 0.  1.
         11    1    3    3    0    0 -0.10195027543E+02  0.29387545168E+01 -0.42365528863E+01  0.11424677034E+02  0.51100000000E-03 0. -1.
        -11    1    3    3    0    0 -0.46390276375E+01  0.35813145031E+02  0.59336695156E+01  0.36596589577E+02  0.51100000000E-03 0.  1.
         12    1    3    3    0    0  0.15961623782E+02 -0.38781304880E+02 -0.20418241430E+01  0.41987284834E+02  0.00000000000E+00 0. -1.
</event>
<event>
 7    1  0.2578619E-015  0.9000770E+02  0.7816164E-02  0.1186339E+00
        -11   -1    0    0    0    0  0.00000000000E+00  0.00000000000E+00  0.45593999997E+02  0.45594000000E+02  0.51100000000E-03 0.  1.
         11   -1    0    0    0    0 -0.00000000000E+00 -0.00000000000E+00 -0.45593999997E+02  0.45594000000E+02  0.51100000000E-03 0. -1.
    9900012    2    1    2    0    0 -0.41118019685E+00 -0.97198948104E+00 -0.52846190325E+00  0.90007701441E+02  0.89999962300E+02 0.  0.
        -12    1    1    2    0    0  0.41118019685E+00  0.97198948104E+00  0.52846190325E+00  0.11802985591E+01  0.00000000000E+00 0.  1.
         11    1    3    3    0    0 -0.91233762860E+01 -0.67935788104E+00  0.59364610160E-01  0.91488275973E+01  0.51100000000E-03 0. -1.
        -11    1    3    3    0    0 -0.26585510339E+02  0.16766318920E+02  0.19316038488E+02  0.36891843993E+02  0.51100000000E-03 0.  1.
         12    1    3    3    0    0  0.35297706428E+02 -0.17058950520E+02 -0.19903865001E+02  0.43967029851E+02  0.00000000000E+00 0. -1.
</event>
<event>
 7    1  0.2578619E-015  0.9000772E+02  0.7816164E-02  0.1186339E+00
        -11   -1    0    0    0    0  0.00000000000E+00  0.00000000000E+00  0.45593999997E+02  0.45594000000E+02  0.51100000000E-03 0.  1.
         11   -1    0    0    0    0 -0.00000000000E+00 -0.00000000000E+00 -0.45593999997E+02  0.45594000000E+02  0.51100000000E-03 0. -1.
    9900012    2    1    2    0    0  0.23664555542E+00  0.42830277631E+00 -0.10740673478E+01  0.90007718231E+02  0.89999979311E+02 0.  0.
        -12    1    1    2    0    0 -0.23664555542E+00 -0.42830277631E+00  0.10740673478E+01  0.11802817692E+01  0.00000000000E+00 0.  1.
         11    1    3    3    0    0  0.70545728188E+01 -0.24259928889E+02 -0.29004328456E+02  0.38465077886E+02  0.51100000000E-03 0. -1.
        -11    1    3    3    0    0  0.82884415194E+01 -0.43608953571E+01  0.15450084607E+01  0.94922453898E+01  0.51100000000E-03 0.  1.
        -12    1    3    3    0    0 -0.15106368783E+02  0.29049127022E+02  0.26385252648E+02  0.42050394955E+02  0.00000000000E+00 0.  1.
</event>
<event>
 7    1  0.2578619E-015  0.9000737E+02  0.7816164E-02  0.1186340E+00
        -11   -1    0    0    0    0  0.00000000000E+00  0.00000000000E+00  0.45593999997E+02  0.45594000000E+02  0.51100000000E-03 0. -1.
         11   -1    0    0    0    0 -0.00000000000E+00 -0.00000000000E+00 -0.45593999997E+02  0.45594000000E+02  0.51100000000E-03 0.  1.
    9900012    2    1    2    0    0 -0.74844491557E+00 -0.51189513761E+00  0.75608958676E+00  0.90007373943E+02  0.89999630478E+02 0.  0.
        -12    1    1    2    0    0  0.74844491557E+00  0.51189513761E+00 -0.75608958676E+00  0.11806260571E+01  0.00000000000E+00 0.  1.
         11    1    3    3    0    0  0.35184149588E+02 -0.15303592723E+02  0.51309789755E+01  0.38709834383E+02  0.51100000000E-03 0. -1.
        -11    1    3    3    0    0 -0.28800867055E+01  0.17866181241E+01 -0.14075403695E+02  0.14477703312E+02  0.51100000000E-03 0.  1.
        -12    1    3    3    0    0 -0.33052507798E+02  0.13005079461E+02  0.97005143067E+01  0.36819836248E+02  0.00000000000E+00 0.  1.
</event>
<event>
 7    1  0.2578619E-015  0.9000773E+02  0.7816164E-02  0.1186339E+00
        -11   -1    0    0    0    0  0.00000000000E+00  0.00000000000E+00  0.45593999997E+02  0.45594000000E+02  0.51100000000E-03 0.  1.
         11   -1    0    0    0    0 -0.00000000000E+00 -0.00000000000E+00 -0.45593999997E+02  0.45594000000E+02  0.51100000000E-03 0. -1.
    9900012    2    1    2    0    0 -0.56035813621E+00 -0.86219587475E+00 -0.57936224516E+00  0.90007727329E+02  0.89999988530E+02 0.  0.
        -12    1    1    2    0    0  0.56035813621E+00  0.86219587475E+00  0.57936224516E+00  0.11802726712E+01  0.00000000000E+00 0.  1.
         11    1    3    3    0    0 -0.34108587606E+02  0.16610687808E+02 -0.41345123575E+01  0.38162873197E+02  0.51100000000E-03 0. -1.
        -11    1    3    3    0    0 -0.77370476997E-01  0.42598356174E+01 -0.89397148769E+01  0.99030645772E+01  0.51100000000E-03 0.  1.
        -12    1    3    3    0    0  0.33625599947E+02 -0.21732719300E+02  0.12494864989E+02  0.41941789555E+02  0.00000000000E+00 0.  1.
</event>
<event>
 7    1  0.2578619E-015  0.9000774E+02  0.7816164E-02  0.1186339E+00
        -11   -1    0    0    0    0  0.00000000000E+00  0.00000000000E+00  0.45593999997E+02  0.45594000000E+02  0.51100000000E-03 0.  1.
         11   -1    0    0    0    0 -0.00000000000E+00 -0.00000000000E+00 -0.45593999997E+02  0.45594000000E+02  0.51100000000E-03 0. -1.
    9900012    2    1    2    0    0  0.10213461673E+01  0.49782153777E+00  0.31945280732E+00  0.90007735465E+02  0.89999996773E+02 0.  0.
        -12    1    1    2    0    0 -0.10213461673E+01 -0.49782153777E+00 -0.31945280732E+00  0.11802645352E+01  0.00000000000E+00 0.  1.
         11    1    3    3    0    0 -0.21719274502E+02  0.56083837654E+01 -0.30633955934E+02  0.37968672742E+02  0.51100000000E-03 0. -1.
        -11    1    3    3    0    0  0.66205561179E+01  0.25183406069E+01 -0.70905166307E+01  0.10022436284E+02  0.51100000000E-03 0.  1.
        -12    1    3    3    0    0  0.16120064551E+02 -0.76289028345E+01  0.38043925372E+02  0.42016626439E+02  0.00000000000E+00 0.  1.
</event>
<event>
 7    1  0.2578619E-015  0.9000782E+02  0.7816164E-02  0.1186339E+00
        -11   -1    0    0    0    0  0.00000000000E+00  0.00000000000E+00  0.45593999997E+02  0.45594000000E+02  0.51100000000E-03 0. -1.
         11   -1    0    0    0    0 -0.00000000000E+00 -0.00000000000E+00 -0.45593999997E+02  0.45594000000E+02  0.51100000000E-03 0.  1.
    9900012    2    1    2    0    0  0.61498712873E+00  0.63097156186E+00  0.78517203003E+00  0.90007818066E+02  0.90000080465E+02 0.  0.
        -12    1    1    2    0    0 -0.61498712873E+00 -0.63097156186E+00 -0.78517203003E+00  0.11801819339E+01  0.00000000000E+00 0.  1.
         11    1    3    3    0    0 -0.11992150358E+01 -0.38186037440E+02  0.11410653324E+02  0.39872479000E+02  0.51100000000E-03 0. -1.
        -11    1    3    3    0    0 -0.84470363155E+01  0.18952247342E+01  0.34385093340E+01  0.93149152444E+01  0.51100000000E-03 0.  1.
        -12    1    3    3    0    0  0.10261238480E+02  0.36921784267E+02 -0.14063990628E+02  0.40820423822E+02  0.00000000000E+00 0.  1.
</event>
<event>
 7    1  0.2578619E-015  0.9000773E+02  0.7816164E-02  0.1186339E+00
        -11   -1    0    0    0    0  0.00000000000E+00  0.00000000000E+00  0.45593999997E+02  0.45594000000E+02  0.51100000000E-03 0.  1.
         11   -1    0    0    0    0 -0.00000000000E+00 -0.00000000000E+00 -0.45593999997E+02  0.45594000000E+02  0.51100000000E-03 0. -1.
    9900012    2    1    2    0    0  0.15869974423E+00 -0.11676898280E+01 -0.65892333787E-01  0.90007734376E+02  0.89999995670E+02 0.  0.
        -12    1    1    2    0    0 -0.15869974423E+00  0.11676898280E+01  0.65892333787E-01  0.11802656238E+01  0.00000000000E+00 0.  1.
         11    1    3    3    0    0  0.60724496230E+01  0.47441335155E+01 -0.27720671542E+01  0.81893713926E+01  0.51100000000E-03 0. -1.
        -11    1    3    3    0    0  0.34835889176E+02  0.76813021126E+01  0.12426843568E+02  0.37775230220E+02  0.51100000000E-03 0.  1.
         12    1    3    3    0    0 -0.40749639055E+02 -0.13593125456E+02 -0.97206687480E+01  0.44043132764E+02  0.00000000000E+00 0. -1.
</event>
<event>
 7    1  0.2578619E-015  0.9000742E+02  0.7816164E-02  0.1186340E+00
        -11   -1    0    0    0    0  0.00000000000E+00  0.00000000000E+00  0.45593999997E+02  0.45594000000E+02  0.51100000000E-03 0.  1.
         11   -1    0    0    0    0 -0.00000000000E+00 -0.00000000000E+00 -0.45593999997E+02  0.45594000000E+02  0.51100000000E-03 0. -1.
    9900012    2    1    2    0    0 -0.84582398248E+00  0.21743667912E+00 -0.79439776577E+00  0.90007421867E+02  0.89999679035E+02 0.  0.
        -12    1    1    2    0    0  0.84582398248E+00 -0.21743667912E+00  0.79439776577E+00  0.11805781334E+01  0.00000000000E+00 0.  1.
         11    1    3    3    0    0  0.22394462047E+02 -0.42597030851E+01 -0.30485975625E+02  0.38066411846E+02  0.51100000000E-03 0. -1.
        -11    1    3    3    0    0 -0.50066467090E+01  0.43625213664E+00 -0.82453393538E+01  0.96562129490E+01  0.51100000000E-03 0.  1.
        -12    1    3    3    0    0 -0.18233639321E+02  0.40408876276E+01  0.37936917213E+02  0.42284797071E+02  0.00000000000E+00 0.  1.
</event>
<event>
 7    1  0.2578619E-015  0.9000780E+02  0.7816164E-02  0.1186339E+00
        -11   -1    0    0    0    0  0.00000000000E+00  0.00000000000E+00  0.45593999997E+02  0.45594000000E+02  0.51100000000E-03 0.  1.
         11   -1    0    0    0    0 -0.00000000000E+00 -0.00000000000E+00 -0.45593999997E+02  0.45594000000E+02  0.51100000000E-03 0. -1.
    9900012    2    1    2    0    0 -0.21082801938E+00 -0.12208193254E-01 -0.11611552320E+01  0.90007797066E+02  0.90000059187E+02 0.  0.
        -12    1    1    2    0    0  0.21082801938E+00  0.12208193254E-01  0.11611552320E+01  0.11802029344E+01  0.00000000000E+00 0.  1.
         11    1    3    3    0    0  0.52568946865E+01 -0.68147401735E+01  0.66287739783E+01  0.10863529357E+02  0.51100000000E-03 0. -1.
        -11    1    3    3    0    0  0.20552748227E+02 -0.24446143543E+02 -0.18742592685E+02  0.37031259425E+02  0.51100000000E-03 0.  1.
         12    1    3    3    0    0 -0.26020470932E+02  0.31248675523E+02  0.10952663475E+02  0.42113008283E+02  0.00000000000E+00 0. -1.
</event>
<event>
 7    1  0.2578619E-015  0.9000785E+02  0.7816164E-02  0.1186339E+00
        -11   -1    0    0    0    0  0.00000000000E+00  0.00000000000E+00  0.45593999997E+02  0.45594000000E+02  0.51100000000E-03 0. -1.
         11   -1    0    0    0    0 -0.00000000000E+00 -0.00000000000E+00 -0.45593999997E+02  0.45594000000E+02  0.51100000000E-03 0.  1.
    9900012    2    1    2    0    0 -0.62822757544E+00 -0.49819593755E-01  0.99780346250E+00  0.90007845930E+02  0.90000108697E+02 0.  0.
        -12    1    1    2    0    0  0.62822757544E+00  0.49819593755E-01 -0.99780346250E+00  0.11801540697E+01  0.00000000000E+00 0.  1.
         11    1    3    3    0    0 -0.14261671712E+01  0.28733751991E+01 -0.93567949375E+01  0.98914028125E+01  0.51100000000E-03 0. -1.
        -11    1    3    3    0    0 -0.35938724876E+02 -0.16546083416E+02  0.10502725473E+02  0.40934973613E+02  0.51100000000E-03 0.  1.
         12    1    3    3    0    0  0.36736664471E+02  0.13622888623E+02 -0.14812707315E+00  0.39181469505E+02  0.00000000000E+00 0. -1.
</event>
<event>
 7    1  0.2578619E-015  0.9000769E+02  0.7816164E-02  0.1186339E+00
        -11   -1    0    0    0    0  0.00000000000E+00  0.00000000000E+00  0.45593999997E+02  0.45594000000E+02  0.51100000000E-03 0. -1.
         11   -1    0    0    0    0 -0.00000000000E+00 -0.00000000000E+00 -0.45593999997E+02  0.45594000000E+02  0.51100000000E-03 0.  1.
    9900012    2    1    2    0    0  0.76699995692E+00 -0.87793958721E+00  0.18456053786E+00  0.90007690954E+02  0.89999951674E+02 0.  0.
        -12    1    1    2    0    0 -0.76699995692E+00  0.87793958721E+00 -0.18456053786E+00  0.11803090463E+01  0.00000000000E+00 0.  1.
         11    1    3    3    0    0 -0.22037600694E+01 -0.22055740018E+01 -0.98068743869E+01  0.10290573387E+02  0.51100000000E-03 0. -1.
        -11    1    3    3    0    0 -0.12482438716E+02 -0.29239359346E+01 -0.32160135001E+02  0.34621307906E+02  0.51100000000E-03 0.  1.
         12    1    3    3    0    0  0.15453198742E+02  0.42515703492E+01  0.42151569925E+02  0.45095809661E+02  0.00000000000E+00 0. -1.
</event>
<event>
 7    1  0.2578619E-015  0.9000772E+02  0.7816164E-02  0.1186339E+00
        -11   -1    0    0    0    0  0.00000000000E+00  0.00000000000E+00  0.45593999997E+02  0.45594000000E+02  0.51100000000E-03 0. -1.
         11   -1    0    0    0    0 -0.00000000000E+00 -0.00000000000E+00 -0.45593999997E+02  0.45594000000E+02  0.51100000000E-03 0.  1.
    9900012    2    1    2    0    0  0.31620300981E+00 -0.38868536587E+00  0.10686392076E+01  0.90007724433E+02  0.89999985596E+02 0.  0.
        -12    1    1    2    0    0 -0.31620300981E+00  0.38868536587E+00 -0.10686392076E+01  0.11802755665E+01  0.00000000000E+00 0.  1.
         11    1    3    3    0    0  0.36414025204E+02  0.20260038211E+02 -0.53364185641E+01  0.42011043111E+02  0.51100000000E-03 0. -1.
        -11    1    3    3    0    0 -0.73671330733E+01 -0.46885126740E+00  0.10299527203E+02  0.12671808557E+02  0.51100000000E-03 0.  1.
        -12    1    3    3    0    0 -0.28730689121E+02 -0.20179872310E+02 -0.38944694312E+01  0.35324872766E+02  0.00000000000E+00 0.  1.
</event>
<event>
 7    1  0.2578619E-015  0.9000776E+02  0.7816164E-02  0.1186339E+00
        -11   -1    0    0    0    0  0.00000000000E+00  0.00000000000E+00  0.45593999997E+02  0.45594000000E+02  0.51100000000E-03 0. -1.
         11   -1    0    0    0    0 -0.00000000000E+00 -0.00000000000E+00 -0.45593999997E+02  0.45594000000E+02  0.51100000000E-03 0.  1.
    9900012    2    1    2    0    0  0.16288567610E+00 -0.11191135383E+01 -0.33766914765E+00  0.90007759640E+02  0.90000021267E+02 0.  0.
        -12    1    1    2    0    0 -0.16288567610E+00  0.11191135383E+01  0.33766914765E+00  0.11802403604E+01  0.00000000000E+00 0.  1.
         11    1    3    3    0    0  0.38220893351E+01  0.12448280713E+02 -0.43778921006E+01  0.13738049320E+02  0.51100000000E-03 0. -1.
        -11    1    3    3    0    0 -0.14974688761E+02  0.25002942052E+02 -0.13855396552E+02  0.32270116650E+02  0.51100000000E-03 0.  1.
         12    1    3    3    0    0  0.11315485102E+02 -0.38570336304E+02  0.17895619505E+02  0.43999593670E+02  0.00000000000E+00 0. -1.
</event>
<event>
 7    1  0.2578619E-015  0.9000772E+02  0.7816164E-02  0.1186339E+00
        -11   -1    0    0    0    0  0.00000000000E+00  0.00000000000E+00  0.45593999997E+02  0.45594000000E+02  0.51100000000E-03 0.  1.
         11   -1    0    0    0    0 -0.00000000000E+00 -0.00000000000E+00 -0.45593999997E+02  0.45594000000E+02  0.51100000000E-03 0. -1.
    9900012    2    1    2    0    0 -0.17725160822E+00  0.11605106563E+01  0.12186485882E+00  0.90007722846E+02  0.89999983988E+02 0.  0.
        -12    1    1    2    0    0  0.17725160822E+00 -0.11605106563E+01 -0.12186485882E+00  0.11802771538E+01  0.00000000000E+00 0.  1.
         11    1    3    3    0    0  0.62978570849E+01 -0.40775605065E+02  0.19037248702E+01  0.41302991912E+02  0.51100000000E-03 0. -1.
        -11    1    3    3    0    0 -0.81684185099E+01  0.20143869075E+01 -0.23776818935E+01  0.87426647547E+01  0.51100000000E-03 0.  1.
        -12    1    3    3    0    0  0.16933098167E+01  0.39921728814E+02  0.59582188216E+00  0.39962066179E+02  0.00000000000E+00 0.  1.
</event>
<event>
 7    1  0.2578619E-015  0.9000770E+02  0.7816164E-02  0.1186339E+00
        -11   -1    0    0    0    0  0.00000000000E+00  0.00000000000E+00  0.45593999997E+02  0.45594000000E+02  0.51100000000E-03 0.  1.
         11   -1    0    0    0    0 -0.00000000000E+00 -0.00000000000E+00 -0.45593999997E+02  0.45594000000E+02  0.51100000000E-03 0. -1.
    9900012    2    1    2    0    0 -0.40905495753E+00 -0.90095012056E+00 -0.64349245476E+00  0.90007695117E+02  0.89999955892E+02 0.  0.
        -12    1    1    2    0    0  0.40905495753E+00  0.90095012056E+00  0.64349245476E+00  0.11803048832E+01  0.00000000000E+00 0.  1.
         11    1    3    3    0    0  0.30671910423E+02  0.80143366490E+01 -0.24903746432E+02  0.40313673457E+02  0.51100000000E-03 0. -1.
        -11    1    3    3    0    0  0.40461337711E+01 -0.58556098022E+01  0.84595841517E+01  0.11055493156E+02  0.51100000000E-03 0.  1.
        -12    1    3    3    0    0 -0.35127099152E+02 -0.30596769673E+01  0.15800669826E+02  0.38638528504E+02  0.00000000000E+00 0.  1.
</event>
<event>
 7    1  0.2578619E-015  0.9000770E+02  0.7816164E-02  0.1186339E+00
        -11   -1    0    0    0    0  0.00000000000E+00  0.00000000000E+00  0.45593999997E+02  0.45594000000E+02  0.51100000000E-03 0. -1.
         11   -1    0    0    0    0 -0.00000000000E+00 -0.00000000000E+00 -0.45593999997E+02  0.45594000000E+02  0.51100000000E-03 0.  1.
    9900012    2    1    2    0    0  0.13279614355E+00 -0.90574026168E+00  0.74504967775E+00  0.90007703741E+02  0.89999964630E+02 0.  0.
        -12    1    1    2    0    0 -0.13279614355E+00  0.90574026168E+00 -0.74504967775E+00  0.11802962593E+01  0.00000000000E+00 0.  1.
         11    1    3    3    0    0  0.70600003652E-01 -0.75028941534E+01 -0.33904099968E+01  0.82336677882E+01  0.51100000000E-03 0. -1.
        -11    1    3    3    0    0 -0.73974735031E+01  0.37091142597E+02 -0.19429666236E+02  0.42520435130E+02  0.51100000000E-03 0.  1.
         12    1    3    3    0    0  0.74596696430E+01 -0.30493988705E+02  0.23565125910E+02  0.39253600822E+02  0.00000000000E+00 0. -1.
</event>
<event>
 7    1  0.2578619E-015  0.9000769E+02  0.7816164E-02  0.1186339E+00
        -11   -1    0    0    0    0  0.00000000000E+00  0.00000000000E+00  0.45593999997E+02  0.45594000000E+02  0.51100000000E-03 0.  1.
         11   -1    0    0    0    0 -0.00000000000E+00 -0.00000000000E+00 -0.45593999997E+02  0.45594000000E+02  0.51100000000E-03 0. -1.
    9900012    2    1    2    0    0  0.53849081790E+00 -0.97994054114E+00  0.37798400479E+00  0.90007691679E+02  0.89999952409E+02 0.  0.
        -12    1    1    2    0    0 -0.53849081790E+00  0.97994054114E+00 -0.37798400479E+00  0.11803083212E+01  0.00000000000E+00 0.  1.
         11    1    3    3    0    0  0.32956387459E-01  0.30010755233E+01  0.96871240281E+01  0.10141395990E+02  0.51100000000E-03 0. -1.
        -11    1    3    3    0    0  0.21994608598E+02  0.29640578254E+02  0.54743336216E+01  0.37313469625E+02  0.51100000000E-03 0.  1.
         12    1    3    3    0    0 -0.21489074167E+02 -0.33621594318E+02 -0.14783473645E+02  0.42552826064E+02  0.00000000000E+00 0. -1.
</event>
<event>
 7    1  0.2578619E-015  0.9000825E+02  0.7816164E-02  0.1186338E+00
        -11   -1    0    0    0    0  0.00000000000E+00  0.00000000000E+00  0.45593999997E+02  0.45594000000E+02  0.51100000000E-03 0. -1.
         11   -1    0    0    0    0 -0.00000000000E+00 -0.00000000000E+00 -0.45593999997E+02  0.45594000000E+02  0.51100000000E-03 0.  1.
    9900012    2    1    2    0    0 -0.11746472731E+01 -0.10042259367E+00  0.43795923763E-01  0.90008254690E+02  0.90000522850E+02 0.  0.
        -12    1    1    2    0    0  0.11746472731E+01  0.10042259367E+00 -0.43795923763E-01  0.11797453100E+01  0.00000000000E+00 0.  1.
         11    1    3    3    0    0 -0.64521852253E+01 -0.38060634299E+02 -0.12961330883E+02  0.40721476839E+02  0.51100000000E-03 0. -1.
        -11    1    3    3    0    0  0.87809863839E+01 -0.32600895552E+00  0.28744018966E+00  0.87917362243E+01  0.51100000000E-03 0.  1.
        -12    1    3    3    0    0 -0.35034484316E+01  0.38286220661E+02  0.12717686617E+02  0.40495041626E+02  0.00000000000E+00 0.  1.
</event>
<event>
 7    1  0.2578619E-015  0.9000773E+02  0.7816164E-02  0.1186339E+00
        -11   -1    0    0    0    0  0.00000000000E+00  0.00000000000E+00  0.45593999997E+02  0.45594000000E+02  0.51100000000E-03 0. -1.
         11   -1    0    0    0    0 -0.00000000000E+00 -0.00000000000E+00 -0.45593999997E+02  0.45594000000E+02  0.51100000000E-03 0.  1.
    9900012    2    1    2    0    0  0.10674619862E+01 -0.36545300084E+00 -0.34640364924E+00  0.90007734574E+02  0.89999995870E+02 0.  0.
        -12    1    1    2    0    0 -0.10674619862E+01  0.36545300084E+00  0.34640364924E+00  0.11802654260E+01  0.00000000000E+00 0.  1.
         11    1    3    3    0    0 -0.63089015797E+01 -0.14812387447E+02  0.11226522907E+01  0.16139064702E+02  0.51100000000E-03 0. -1.
        -11    1    3    3    0    0 -0.17497653939E+02 -0.17290025209E+02 -0.17800398449E+02  0.30363910326E+02  0.51100000000E-03 0.  1.
         12    1    3    3    0    0  0.24874017505E+02  0.31736959655E+02  0.16331342509E+02  0.43504759546E+02  0.00000000000E+00 0. -1.
</event>
<event>
 7    1  0.2578619E-015  0.9000777E+02  0.7816164E-02  0.1186339E+00
        -11   -1    0    0    0    0  0.00000000000E+00  0.00000000000E+00  0.45593999997E+02  0.45594000000E+02  0.51100000000E-03 0.  1.
         11   -1    0    0    0    0 -0.00000000000E+00 -0.00000000000E+00 -0.45593999997E+02  0.45594000000E+02  0.51100000000E-03 0. -1.
    9900012    2    1    2    0    0 -0.59012952400E+00  0.73479682170E+00 -0.71047485115E+00  0.90007765388E+02  0.90000027092E+02 0.  0.
        -12    1    1    2    0    0  0.59012952400E+00 -0.73479682170E+00  0.71047485115E+00  0.11802346116E+01  0.00000000000E+00 0.  1.
         11    1    3    3    0    0 -0.78986795041E+01 -0.63235740941E+01 -0.12163634014E+01  0.10190989521E+02  0.51100000000E-03 0. -1.
        -11    1    3    3    0    0  0.68442104393E+00 -0.12414161298E+02  0.36390277661E+02  0.38455586609E+02  0.51100000000E-03 0.  1.
         12    1    3    3    0    0  0.66241289362E+01  0.19472532214E+02 -0.35884389111E+02  0.41361189258E+02  0.00000000000E+00 0. -1.
</event>
<event>
 7    1  0.2578619E-015  0.9000773E+02  0.7816164E-02  0.1186339E+00
        -11   -1    0    0    0    0  0.00000000000E+00  0.00000000000E+00  0.45593999997E+02  0.45594000000E+02  0.51100000000E-03 0.  1.
         11   -1    0    0    0    0 -0.00000000000E+00 -0.00000000000E+00 -0.45593999997E+02  0.45594000000E+02  0.51100000000E-03 0. -1.
    9900012    2    1    2    0    0  0.46600984146E+00 -0.34040532560E+00 -0.10295656765E+01  0.90007726116E+02  0.89999987301E+02 0.  0.
        -12    1    1    2    0    0 -0.46600984146E+00  0.34040532560E+00  0.10295656765E+01  0.11802738836E+01  0.00000000000E+00 0.  1.
         11    1    3    3    0    0  0.25693546938E+02 -0.21297729551E+02  0.10761580466E+02  0.35065128727E+02  0.51100000000E-03 0. -1.
        -11    1    3    3    0    0  0.89366459628E+01 -0.54303482406E+01 -0.14957761396E+01  0.10563601166E+02  0.51100000000E-03 0.  1.
        -12    1    3    3    0    0 -0.34164183059E+02  0.26387672466E+02 -0.10295370003E+02  0.44378996223E+02  0.00000000000E+00 0.  1.
</event>
<event>
 7    1  0.2578619E-015  0.9000775E+02  0.7816164E-02  0.1186339E+00
        -11   -1    0    0    0    0  0.00000000000E+00  0.00000000000E+00  0.45593999997E+02  0.45594000000E+02  0.51100000000E-03 0.  1.
         11   -1    0    0    0    0 -0.00000000000E+00 -0.00000000000E+00 -0.45593999997E+02  0.45594000000E+02  0.51100000000E-03 0. -1.
    9900012    2    1    2    0    0 -0.26254498496E+00 -0.11415131167E+01 -0.14495712837E+00  0.90007748063E+02  0.90000009538E+02 0.  0.
        -12    1    1    2    0    0  0.26254498496E+00  0.11415131167E+01  0.14495712837E+00  0.11802519366E+01  0.00000000000E+00 0.  1.
         11    1    3    3    0    0  0.33744764947E+02 -0.96869952896E+01  0.25142230005E+02  0.43181926416E+02  0.51100000000E-03 0. -1.
        -11    1    3    3    0    0 -0.10903303193E+01  0.52513859900E+01 -0.76318266266E+01  0.93279500932E+01  0.51100000000E-03 0.  1.
        -12    1    3    3    0    0 -0.32916979613E+02  0.32940961829E+01 -0.17655360507E+02  0.37497871555E+02  0.00000000000E+00 0.  1.
</event>
<event>
 7    1  0.2578619E-015  0.9000778E+02  0.7816164E-02  0.1186339E+00
        -11   -1    0    0    0    0  0.00000000000E+00  0.00000000000E+00  0.45593999997E+02  0.45594000000E+02  0.51100000000E-03 0.  1.
         11   -1    0    0    0    0 -0.00000000000E+00 -0.00000000000E+00 -0.45593999997E+02  0.45594000000E+02  0.51100000000E-03 0. -1.
    9900012    2    1    2    0    0  0.27413156274E+00  0.16148313971E+00 -0.11365252122E+01  0.90007782022E+02  0.90000043945E+02 0.  0.
        -12    1    1    2    0    0 -0.27413156274E+00 -0.16148313971E+00  0.11365252122E+01  0.11802179782E+01  0.00000000000E+00 0.  1.
         11    1    3    3    0    0  0.12737900765E+02 -0.14615342849E+02 -0.83181815150E+01  0.21096314997E+02  0.51100000000E-03 0. -1.
        -11    1    3    3    0    0 -0.29699217850E+01  0.12194928199E+01  0.35750625277E+02  0.35894495485E+02  0.51100000000E-03 0.  1.
         12    1    3    3    0    0 -0.94938474177E+01  0.13557333168E+02 -0.28568968974E+02  0.33016971540E+02  0.00000000000E+00 0. -1.
</event>
<event>
 7    1  0.2578619E-015  0.9000775E+02  0.7816164E-02  0.1186339E+00
        -11   -1    0    0    0    0  0.00000000000E+00  0.00000000000E+00  0.45593999997E+02  0.45594000000E+02  0.51100000000E-03 0.  1.
         11   -1    0    0    0    0 -0.00000000000E+00 -0.00000000000E+00 -0.45593999997E+02  0.45594000000E+02  0.51100000000E-03 0. -1.
    9900012    2    1    2    0    0  0.66548126404E+00 -0.89107024387E+00  0.39513330311E+00  0.90007745019E+02  0.90000006454E+02 0.  0.
        -12    1    1    2    0    0 -0.66548126404E+00  0.89107024387E+00 -0.39513330311E+00  0.11802549807E+01  0.00000000000E+00 0.  1.
         11    1    3    3    0    0  0.26003935147E+01 -0.10338485780E+02  0.42172970857E+01  0.11464376548E+02  0.51100000000E-03 0. -1.
        -11    1    3    3    0    0 -0.64985645649E+01 -0.44319793231E+01  0.35622053087E+02  0.36480192550E+02  0.51100000000E-03 0.  1.
         12    1    3    3    0    0  0.45636523142E+01  0.13879394860E+02 -0.39444216870E+02  0.42063175921E+02  0.00000000000E+00 0. -1.
</event>
<event>
 7    1  0.2578619E-015  0.9000776E+02  0.7816164E-02  0.1186339E+00
        -11   -1    0    0    0    0  0.00000000000E+00  0.00000000000E+00  0.45593999997E+02  0.45594000000E+02  0.51100000000E-03 0.  1.
         11   -1    0    0    0    0 -0.00000000000E+00 -0.00000000000E+00 -0.45593999997E+02  0.45594000000E+02  0.51100000000E-03 0. -1.
    9900012    2    1    2    0    0 -0.82755146972E+00 -0.74781898722E+00 -0.38585815322E+00  0.90007762233E+02  0.90000023894E+02 0.  0.
        -12    1    1    2    0    0  0.82755146972E+00  0.74781898722E+00  0.38585815322E+00  0.11802377672E+01  0.00000000000E+00 0.  1.
         11    1    3    3    0    0  0.67143705723E+00 -0.15622631423E+02 -0.31593002960E+02  0.35251032277E+02  0.51100000000E-03 0. -1.
        -11    1    3    3    0    0  0.23643244579E+01 -0.68227455846E+01 -0.73764986868E+01  0.10322432881E+02  0.51100000000E-03 0.  1.
        -12    1    3    3    0    0 -0.38633129849E+01  0.21697558021E+02  0.38583643493E+02  0.44434297074E+02  0.00000000000E+00 0.  1.
</event>
<event>
 7    1  0.2578619E-015  0.9000703E+02  0.7816164E-02  0.1186340E+00
        -11   -1    0    0    0    0  0.00000000000E+00  0.00000000000E+00  0.45593999997E+02  0.45594000000E+02  0.51100000000E-03 0. -1.
         11   -1    0    0    0    0 -0.00000000000E+00 -0.00000000000E+00 -0.45593999997E+02  0.45594000000E+02  0.51100000000E-03 0.  1.
    9900012    2    1    2    0    0  0.38966335069E+00 -0.73755641410E+00  0.83597476800E+00  0.90007033953E+02  0.89999285999E+02 0.  0.
        -12    1    1    2    0    0 -0.38966335069E+00  0.73755641410E+00 -0.83597476800E+00  0.11809660468E+01  0.00000000000E+00 0.  1.
         11    1    3    3    0    0 -0.83844454875E+01 -0.31188156864E+01  0.13504521670E+02  0.16198704986E+02  0.51100000000E-03 0. -1.
        -11    1    3    3    0    0 -0.26307153418E+02  0.81979996683E+01  0.12484692643E+02  0.30251298652E+02  0.51100000000E-03 0.  1.
        -12    1    3    3    0    0  0.35081262256E+02 -0.58167403960E+01 -0.25153239545E+02  0.43557030315E+02  0.00000000000E+00 0.  1.
</event>
<event>
 7    1  0.2578619E-015  0.9000773E+02  0.7816164E-02  0.1186339E+00
        -11   -1    0    0    0    0  0.00000000000E+00  0.00000000000E+00  0.45593999997E+02  0.45594000000E+02  0.51100000000E-03 0. -1.
         11   -1    0    0    0    0 -0.00000000000E+00 -0.00000000000E+00 -0.45593999997E+02  0.45594000000E+02  0.51100000000E-03 0.  1.
    9900012    2    1    2    0    0 -0.71143106852E+00 -0.93310036552E+00  0.12741194651E+00  0.90007727039E+02  0.89999988236E+02 0.  0.
        -12    1    1    2    0    0  0.71143106852E+00  0.93310036552E+00 -0.12741194651E+00  0.11802729606E+01  0.00000000000E+00 0.  1.
         11    1    3    3    0    0 -0.25043733605E+02  0.15494785896E+02  0.28998261649E+02  0.41330087851E+02  0.51100000000E-03 0. -1.
        -11    1    3    3    0    0 -0.48890091290E+01 -0.24630490480E+00 -0.77217652127E+01  0.91426874949E+01  0.51100000000E-03 0.  1.
        -12    1    3    3    0    0  0.29221311665E+02 -0.16181581357E+02 -0.21149084490E+02  0.39534951693E+02  0.00000000000E+00 0.  1.
</event>
<event>
 7    1  0.2578619E-015  0.9000786E+02  0.7816164E-02  0.1186339E+00
        -11   -1    0    0    0    0  0.00000000000E+00  0.00000000000E+00  0.45593999997E+02  0.45594000000E+02  0.51100000000E-03 0. -1.
         11   -1    0    0    0    0 -0.00000000000E+00 -0.00000000000E+00 -0.45593999997E+02  0.45594000000E+02  0.51100000000E-03 0.  1.
    9900012    2    1    2    0    0  0.38618889947E+00 -0.89553626318E+00 -0.66452804408E+00  0.90007862472E+02  0.90000125456E+02 0.  0.
        -12    1    1    2    0    0 -0.38618889947E+00  0.89553626318E+00  0.66452804408E+00  0.11801375285E+01  0.00000000000E+00 0.  1.
         11    1    3    3    0    0 -0.17658017598E+02 -0.14216395783E+02  0.28103757941E+02  0.36107238958E+02  0.51100000000E-03 0. -1.
        -11    1    3    3    0    0  0.50870130598E+01  0.13981309002E+01  0.10008214206E+02  0.11313568126E+02  0.51100000000E-03 0.  1.
        -12    1    3    3    0    0  0.12957193437E+02  0.11922728620E+02 -0.38776500191E+02  0.42587055387E+02  0.00000000000E+00 0.  1.
</event>
<event>
 7    1  0.2578619E-015  0.9000773E+02  0.7816164E-02  0.1186339E+00
        -11   -1    0    0    0    0  0.00000000000E+00  0.00000000000E+00  0.45593999997E+02  0.45594000000E+02  0.51100000000E-03 0.  1.
         11   -1    0    0    0    0 -0.00000000000E+00 -0.00000000000E+00 -0.45593999997E+02  0.45594000000E+02  0.51100000000E-03 0. -1.
    9900012    2    1    2    0    0 -0.47689192553E+00 -0.10405548559E+01 -0.28783131950E+00  0.90007734273E+02  0.89999995566E+02 0.  0.
        -12    1    1    2    0    0  0.47689192553E+00  0.10405548559E+01  0.28783131950E+00  0.11802657266E+01  0.00000000000E+00 0.  1.
         11    1    3    3    0    0 -0.15545062012E+01  0.47016641720E+01 -0.83633777702E+01  0.97194765036E+01  0.51100000000E-03 0. -1.
        -11    1    3    3    0    0 -0.52897053439E+01  0.36555347386E+02  0.63606394497E+01  0.37479756398E+02  0.51100000000E-03 0.  1.
         12    1    3    3    0    0  0.63673196196E+01 -0.42297566414E+02  0.17149070010E+01  0.42808501372E+02  0.00000000000E+00 0. -1.
</event>
<event>
 7    1  0.2578619E-015  0.9000821E+02  0.7816164E-02  0.1186338E+00
        -11   -1    0    0    0    0  0.00000000000E+00  0.00000000000E+00  0.45593999997E+02  0.45594000000E+02  0.51100000000E-03 0.  1.
         11   -1    0    0    0    0 -0.00000000000E+00 -0.00000000000E+00 -0.45593999997E+02  0.45594000000E+02  0.51100000000E-03 0. -1.
    9900012    2    1    2    0    0  0.60952809781E+00 -0.77714912354E+00 -0.64530940515E+00  0.90008207861E+02  0.90000475404E+02 0.  0.
        -12    1    1    2    0    0 -0.60952809781E+00  0.77714912354E+00  0.64530940515E+00  0.11797921387E+01  0.00000000000E+00 0.  1.
         11    1    3    3    0    0 -0.45082223009E+01  0.41794954202E+01  0.93657795754E+01  0.11203128027E+02  0.51100000000E-03 0. -1.
        -11    1    3    3    0    0 -0.79448638938E+01 -0.57669799550E+00  0.32840689173E+02  0.33792962411E+02  0.51100000000E-03 0.  1.
         12    1    3    3    0    0  0.13062614292E+02 -0.43799465482E+01 -0.42851778154E+02  0.45012117423E+02  0.00000000000E+00 0. -1.
</event>
<event>
 7    1  0.2578619E-015  0.9000777E+02  0.7816164E-02  0.1186339E+00
        -11   -1    0    0    0    0  0.00000000000E+00  0.00000000000E+00  0.45593999997E+02  0.45594000000E+02  0.51100000000E-03 0.  1.
         11   -1    0    0    0    0 -0.00000000000E+00 -0.00000000000E+00 -0.45593999997E+02  0.45594000000E+02  0.51100000000E-03 0. -1.
    9900012    2    1    2    0    0  0.84324446969E+00  0.42272006921E+00 -0.70935367572E+00  0.90007772848E+02  0.90000034650E+02 0.  0.
        -12    1    1    2    0    0 -0.84324446969E+00 -0.42272006921E+00  0.70935367572E+00  0.11802271518E+01  0.00000000000E+00 0.  1.
         11    1    3    3    0    0  0.48437964680E+01 -0.40571314410E+01 -0.79915189394E+01  0.10187593188E+02  0.51100000000E-03 0. -1.
        -11    1    3    3    0    0 -0.25033692128E+02 -0.28009301522E+02 -0.76487643229E+01  0.38336800979E+02  0.51100000000E-03 0.  1.
         12    1    3    3    0    0  0.21033140130E+02  0.32489153032E+02  0.14930929587E+02  0.41483378681E+02  0.00000000000E+00 0. -1.
</event>
<event>
 7    1  0.2578619E-015  0.9000871E+02  0.7816164E-02  0.1186337E+00
        -11   -1    0    0    0    0  0.00000000000E+00  0.00000000000E+00  0.45593999997E+02  0.45594000000E+02  0.51100000000E-03 0.  1.
         11   -1    0    0    0    0 -0.00000000000E+00 -0.00000000000E+00 -0.45593999997E+02  0.45594000000E+02  0.51100000000E-03 0. -1.
    9900012    2    1    2    0    0  0.20864412909E+00 -0.11215909716E+01 -0.29872700287E+00  0.90008705083E+02  0.90000979184E+02 0.  0.
        -12    1    1    2    0    0 -0.20864412909E+00  0.11215909716E+01  0.29872700287E+00  0.11792949175E+01  0.00000000000E+00 0.  1.
         11    1    3    3    0    0  0.27907837098E+01 -0.88489903257E+01 -0.55864934304E+00  0.92954393575E+01  0.51100000000E-03 0. -1.
        -11    1    3    3    0    0 -0.39493652083E+02  0.17597004518E+01  0.12349025702E+02  0.41416706009E+02  0.51100000000E-03 0.  1.
         12    1    3    3    0    0  0.36911512503E+02  0.59676989023E+01 -0.12089103362E+02  0.39296559716E+02  0.00000000000E+00 0. -1.
</event>
<event>
 7    1  0.2578619E-015  0.9000782E+02  0.7816164E-02  0.1186339E+00
        -11   -1    0    0    0    0  0.00000000000E+00  0.00000000000E+00  0.45593999997E+02  0.45594000000E+02  0.51100000000E-03 0.  1.
         11   -1    0    0    0    0 -0.00000000000E+00 -0.00000000000E+00 -0.45593999997E+02  0.45594000000E+02  0.51100000000E-03 0. -1.
    9900012    2    1    2    0    0  0.64989443951E+00 -0.97291284494E+00 -0.15459608725E+00  0.90007821142E+02  0.90000083581E+02 0.  0.
        -12    1    1    2    0    0 -0.64989443951E+00  0.97291284494E+00  0.15459608725E+00  0.11801788579E+01  0.00000000000E+00 0.  1.
         11    1    3    3    0    0  0.17807421293E+02  0.62783662168E+01 -0.32013947970E+02  0.37167391626E+02  0.51100000000E-03 0. -1.
        -11    1    3    3    0    0  0.49171266216E+01 -0.21352478957E+01 -0.64158166861E+01  0.83606292706E+01  0.51100000000E-03 0.  1.
        -12    1    3    3    0    0 -0.22074653475E+02 -0.51160311660E+01  0.38275168568E+02  0.44479800245E+02  0.00000000000E+00 0.  1.
</event>
<event>
 7    1  0.2578619E-015  0.9000777E+02  0.7816164E-02  0.1186339E+00
        -11   -1    0    0    0    0  0.00000000000E+00  0.00000000000E+00  0.45593999997E+02  0.45594000000E+02  0.51100000000E-03 0.  1.
         11   -1    0    0    0    0 -0.00000000000E+00 -0.00000000000E+00 -0.45593999997E+02  0.45594000000E+02  0.51100000000E-03 0. -1.
    9900012    2    1    2    0    0  0.74127668725E+00  0.64884373884E+00  0.64996647888E+00  0.90007768773E+02  0.90000030521E+02 0.  0.
        -12    1    1    2    0    0 -0.74127668725E+00 -0.64884373884E+00 -0.64996647888E+00  0.11802312266E+01  0.00000000000E+00 0.  1.
         11    1    3    3    0    0  0.25334090176E+02 -0.27151482876E+02 -0.56433796803E+01  0.37561507983E+02  0.51100000000E-03 0. -1.
        -11    1    3    3    0    0  0.87714220825E+01  0.29610767226E+00  0.19287434017E+00  0.87785377983E+01  0.51100000000E-03 0.  1.
        -12    1    3    3    0    0 -0.33364235572E+02  0.27504218943E+02  0.61004718191E+01  0.43667722993E+02  0.00000000000E+00 0.  1.
</event>
<event>
 7    1  0.2578619E-015  0.9000811E+02  0.7816164E-02  0.1186338E+00
        -11   -1    0    0    0    0  0.00000000000E+00  0.00000000000E+00  0.45593999997E+02  0.45594000000E+02  0.51100000000E-03 0. -1.
         11   -1    0    0    0    0 -0.00000000000E+00 -0.00000000000E+00 -0.45593999997E+02  0.45594000000E+02  0.51100000000E-03 0.  1.
    9900012    2    1    2    0    0  0.63081526228E+00  0.57478736242E+00  0.81476138861E+00  0.90008108256E+02  0.90000374484E+02 0.  0.
        -12    1    1    2    0    0 -0.63081526228E+00 -0.57478736242E+00 -0.81476138861E+00  0.11798917440E+01  0.00000000000E+00 0.  1.
         11    1    3    3    0    0  0.57494600335E+01 -0.31571683983E+01 -0.22222040230E+01  0.69254742764E+01  0.51100000000E-03 0. -1.
        -11    1    3    3    0    0  0.10972083052E+02  0.24311756199E+02 -0.30534996355E+02  0.40544223986E+02  0.51100000000E-03 0.  1.
         12    1    3    3    0    0 -0.16090727824E+02 -0.20579800438E+02  0.33571961766E+02  0.42538409994E+02  0.00000000000E+00 0. -1.
</event>
<event>
 7    1  0.2578619E-015  0.9000771E+02  0.7816164E-02  0.1186339E+00
        -11   -1    0    0    0    0  0.00000000000E+00  0.00000000000E+00  0.45593999997E+02  0.45594000000E+02  0.51100000000E-03 0.  1.
         11   -1    0    0    0    0 -0.00000000000E+00 -0.00000000000E+00 -0.45593999997E+02  0.45594000000E+02  0.51100000000E-03 0. -1.
    9900012    2    1    2    0    0  0.18188130229E+00 -0.61868123332E+00 -0.98855419158E+00  0.90007709076E+02  0.89999970035E+02 0.  0.
        -12    1    1    2    0    0 -0.18188130229E+00  0.61868123332E+00  0.98855419158E+00  0.11802909244E+01  0.00000000000E+00 0.  1.
         11    1    3    3    0    0  0.26602808625E+02 -0.23270514099E+02  0.19034156022E+02  0.40143808351E+02  0.51100000000E-03 0. -1.
        -11    1    3    3    0    0  0.48128694081E+01  0.67287053516E+01  0.19359451753E+01  0.84962975248E+01  0.51100000000E-03 0.  1.
        -12    1    3    3    0    0 -0.31233796730E+02  0.15923127514E+02 -0.21958655389E+02  0.41367603200E+02  0.00000000000E+00 0.  1.
</event>
<event>
 7    1  0.2578619E-015  0.9000775E+02  0.7816164E-02  0.1186339E+00
        -11   -1    0    0    0    0  0.00000000000E+00  0.00000000000E+00  0.45593999997E+02  0.45594000000E+02  0.51100000000E-03 0. -1.
         11   -1    0    0    0    0 -0.00000000000E+00 -0.00000000000E+00 -0.45593999997E+02  0.45594000000E+02  0.51100000000E-03 0.  1.
    9900012    2    1    2    0    0 -0.64595966281E+00 -0.83126782905E+00 -0.53358099259E+00  0.90007754786E+02  0.90000016349E+02 0.  0.
        -12    1    1    2    0    0  0.64595966281E+00  0.83126782905E+00  0.53358099259E+00  0.11802452140E+01  0.00000000000E+00 0.  1.
         11    1    3    3    0    0  0.25033160856E+01  0.84331977221E+01 -0.29486620874E+01  0.92779320762E+01  0.51100000000E-03 0. -1.
        -11    1    3    3    0    0 -0.39200558696E+02 -0.17786152221E+02  0.62047699229E+01  0.43491725454E+02  0.51100000000E-03 0.  1.
         12    1    3    3    0    0  0.36051282947E+02  0.85216866700E+01 -0.37896888280E+01  0.37238097256E+02  0.00000000000E+00 0. -1.
</event>
<event>
 7    1  0.2578619E-015  0.9000780E+02  0.7816164E-02  0.1186339E+00
        -11   -1    0    0    0    0  0.00000000000E+00  0.00000000000E+00  0.45593999997E+02  0.45594000000E+02  0.51100000000E-03 0.  1.
         11   -1    0    0    0    0 -0.00000000000E+00 -0.00000000000E+00 -0.45593999997E+02  0.45594000000E+02  0.51100000000E-03 0. -1.
    9900012    2    1    2    0    0 -0.27102049262E+00 -0.96617290498E+00  0.62122616736E+00  0.90007803347E+02  0.90000065551E+02 0.  0.
        -12    1    1    2    0    0  0.27102049262E+00  0.96617290498E+00 -0.62122616736E+00  0.11801966534E+01  0.00000000000E+00 0.  1.
         11    1    3    3    0    0 -0.19717203720E+02  0.54388151437E+00 -0.35477906888E+02  0.40592435342E+02  0.51100000000E-03 0. -1.
        -11    1    3    3    0    0  0.10295138728E+02  0.11566558470E+02  0.88479923920E+01  0.17834296339E+02  0.51100000000E-03 0.  1.
        -12    1    3    3    0    0  0.91510444991E+01 -0.13076612890E+02  0.27251140663E+02  0.31581071665E+02  0.00000000000E+00 0.  1.
</event>
<event>
 7    1  0.2578619E-015  0.9000767E+02  0.7816164E-02  0.1186339E+00
        -11   -1    0    0    0    0  0.00000000000E+00  0.00000000000E+00  0.45593999997E+02  0.45594000000E+02  0.51100000000E-03 0.  1.
         11   -1    0    0    0    0 -0.00000000000E+00 -0.00000000000E+00 -0.45593999997E+02  0.45594000000E+02  0.51100000000E-03 0. -1.
    9900012    2    1    2    0    0 -0.47363679190E+00 -0.10207682982E+01 -0.35619121581E+00  0.90007672964E+02  0.89999933447E+02 0.  0.
        -12    1    1    2    0    0  0.47363679190E+00  0.10207682982E+01  0.35619121581E+00  0.11803270358E+01  0.00000000000E+00 0.  1.
         11    1    3    3    0    0 -0.11261520599E+02  0.31099599917E+02 -0.19928977714E+02  0.38615684821E+02  0.51100000000E-03 0. -1.
        -11    1    3    3    0    0 -0.58484933418E+01 -0.12691395695E+01 -0.56333442396E+01  0.82188902656E+01  0.51100000000E-03 0.  1.
        -12    1    3    3    0    0  0.16636377148E+02 -0.30851228646E+02  0.25206130738E+02  0.43173097878E+02  0.00000000000E+00 0.  1.
</event>
<event>
 7    1  0.2578619E-015  0.9000768E+02  0.7816164E-02  0.1186339E+00
        -11   -1    0    0    0    0  0.00000000000E+00  0.00000000000E+00  0.45593999997E+02  0.45594000000E+02  0.51100000000E-03 0.  1.
         11   -1    0    0    0    0 -0.00000000000E+00 -0.00000000000E+00 -0.45593999997E+02  0.45594000000E+02  0.51100000000E-03 0. -1.
    9900012    2    1    2    0    0 -0.54510351845E+00  0.94099857129E+00  0.45883324687E+00  0.90007684743E+02  0.89999945382E+02 0.  0.
        -12    1    1    2    0    0  0.54510351845E+00 -0.94099857129E+00 -0.45883324687E+00  0.11803152568E+01  0.00000000000E+00 0.  1.
         11    1    3    3    0    0  0.24884991206E+01  0.16398894264E+02 -0.37184063117E+02  0.40715732968E+02  0.51100000000E-03 0. -1.
        -11    1    3    3    0    0 -0.81099840097E+01  0.22194118163E-01 -0.17758772760E+00  0.81119585107E+01  0.51100000000E-03 0.  1.
        -12    1    3    3    0    0  0.50763813706E+01 -0.15480089811E+02  0.37820484091E+02  0.41179993265E+02  0.00000000000E+00 0.  1.
</event>
<event>
 7    1  0.2578619E-015  0.9000824E+02  0.7816164E-02  0.1186338E+00
        -11   -1    0    0    0    0  0.00000000000E+00  0.00000000000E+00  0.45593999997E+02  0.45594000000E+02  0.51100000000E-03 0.  1.
         11   -1    0    0    0    0 -0.00000000000E+00 -0.00000000000E+00 -0.45593999997E+02  0.45594000000E+02  0.51100000000E-03 0. -1.
    9900012    2    1    2    0    0 -0.50339314518E+00  0.47996755019E+00 -0.95291785399E+00  0.90008243269E+02  0.90000511279E+02 0.  0.
        -12    1    1    2    0    0  0.50339314518E+00 -0.47996755019E+00  0.95291785399E+00  0.11797567310E+01  0.00000000000E+00 0.  1.
         11    1    3    3    0    0 -0.75991567663E+01 -0.12324422357E+02 -0.37095868268E+02  0.39821376330E+02  0.51100000000E-03 0. -1.
        -11    1    3    3    0    0  0.59126151341E+01  0.47778922328E+01 -0.44382601427E+01  0.88025806028E+01  0.51100000000E-03 0.  1.
        -12    1    3    3    0    0  0.11831484870E+01  0.80264976739E+01  0.40581210557E+02  0.41384286336E+02  0.00000000000E+00 0.  1.
</event>
<event>
 7    1  0.2578619E-015  0.9000775E+02  0.7816164E-02  0.1186339E+00
        -11   -1    0    0    0    0  0.00000000000E+00  0.00000000000E+00  0.45593999997E+02  0.45594000000E+02  0.51100000000E-03 0. -1.
         11   -1    0    0    0    0 -0.00000000000E+00 -0.00000000000E+00 -0.45593999997E+02  0.45594000000E+02  0.51100000000E-03 0.  1.
    9900012    2    1    2    0    0  0.86636477457E+00  0.35716051007E+00  0.71752939389E+00  0.90007745797E+02  0.90000007242E+02 0.  0.
        -12    1    1    2    0    0 -0.86636477457E+00 -0.35716051007E+00 -0.71752939389E+00  0.11802542030E+01  0.00000000000E+00 0.  1.
         11    1    3    3    0    0 -0.17541100268E+02  0.35063621046E+02  0.37440498156E+01  0.39384840088E+02  0.51100000000E-03 0. -1.
        -11    1    3    3    0    0  0.65014367147E+01  0.33230288006E+01 -0.75671756498E+01  0.10515386219E+02  0.51100000000E-03 0.  1.
        -12    1    3    3    0    0  0.11906028328E+02 -0.38029489337E+02  0.45406552280E+01  0.40107519490E+02  0.00000000000E+00 0.  1.
</event>
<event>
 7    1  0.2578619E-015  0.9000781E+02  0.7816164E-02  0.1186339E+00
        -11   -1    0    0    0    0  0.00000000000E+00  0.00000000000E+00  0.45593999997E+02  0.45594000000E+02  0.51100000000E-03 0. -1.
         11   -1    0    0    0    0 -0.00000000000E+00 -0.00000000000E+00 -0.45593999997E+02  0.45594000000E+02  0.51100000000E-03 0.  1.
    9900012    2    1    2    0    0 -0.63467936021E+00  0.95157904737E+00  0.29075423377E+00  0.90007805695E+02  0.90000067930E+02 0.  0.
        -12    1    1    2    0    0  0.63467936021E+00 -0.95157904737E+00 -0.29075423377E+00  0.11801943052E+01  0.00000000000E+00 0.  1.
         11    1    3    3    0    0  0.29159093164E+02  0.12709178416E+02  0.29159508316E+02  0.43151510468E+02  0.51100000000E-03 0. -1.
        -11    1    3    3    0    0 -0.81548301116E+00  0.72400520004E+00 -0.10069395176E+02  0.10128273078E+02  0.51100000000E-03 0.  1.
        -12    1    3    3    0    0 -0.28978289513E+02 -0.12481604569E+02 -0.18799358907E+02  0.36728022149E+02  0.00000000000E+00 0.  1.
</event>
<event>
 7    1  0.2578619E-015  0.9000774E+02  0.7816164E-02  0.1186339E+00
        -11   -1    0    0    0    0  0.00000000000E+00  0.00000000000E+00  0.45593999997E+02  0.45594000000E+02  0.51100000000E-03 0.  1.
         11   -1    0    0    0    0 -0.00000000000E+00 -0.00000000000E+00 -0.45593999997E+02  0.45594000000E+02  0.51100000000E-03 0. -1.
    9900012    2    1    2    0    0 -0.95554103053E+00  0.35168133421E+00 -0.59688719892E+00  0.90007740389E+02  0.90000001762E+02 0.  0.
        -12    1    1    2    0    0  0.95554103053E+00 -0.35168133421E+00  0.59688719892E+00  0.11802596113E+01  0.00000000000E+00 0.  1.
         11    1    3    3    0    0  0.10951100320E+01 -0.10722389890E+02  0.73300680140E+00  0.10803064851E+02  0.51100000000E-03 0. -1.
        -11    1    3    3    0    0 -0.25037882980E+02  0.35949304610E+02  0.68991872307E+01  0.44349147352E+02  0.51100000000E-03 0.  1.
         12    1    3    3    0    0  0.22987231918E+02 -0.24875233386E+02 -0.82290812310E+01  0.34855528186E+02  0.00000000000E+00 0. -1.
</event>
<event>
 7    1  0.2578619E-015  0.9000779E+02  0.7816164E-02  0.1186339E+00
        -11   -1    0    0    0    0  0.00000000000E+00  0.00000000000E+00  0.45593999997E+02  0.45594000000E+02  0.51100000000E-03 0.  1.
         11   -1    0    0    0    0 -0.00000000000E+00 -0.00000000000E+00 -0.45593999997E+02  0.45594000000E+02  0.51100000000E-03 0. -1.
    9900012    2    1    2    0    0 -0.15558364911E+00  0.49002797059E+00 -0.10623363989E+01  0.90007791413E+02  0.90000053460E+02 0.  0.
        -12    1    1    2    0    0  0.15558364911E+00 -0.49002797059E+00  0.10623363989E+01  0.11802085867E+01  0.00000000000E+00 0.  1.
         11    1    3    3    0    0  0.23569732878E+02 -0.81861175925E+01 -0.26303661638E+02  0.36255033375E+02  0.51100000000E-03 0. -1.
        -11    1    3    3    0    0  0.88077274863E+01 -0.19615299534E+01 -0.28609909511E+01  0.94661994864E+01  0.51100000000E-03 0.  1.
        -12    1    3    3    0    0 -0.32533044013E+02  0.10637675516E+02  0.28102316190E+02  0.44286558552E+02  0.00000000000E+00 0.  1.
</event>
<event>
 7    1  0.2578619E-015  0.9000777E+02  0.7816164E-02  0.1186339E+00
        -11   -1    0    0    0    0  0.00000000000E+00  0.00000000000E+00  0.45593999997E+02  0.45594000000E+02  0.51100000000E-03 0.  1.
         11   -1    0    0    0    0 -0.00000000000E+00 -0.00000000000E+00 -0.45593999997E+02  0.45594000000E+02  0.51100000000E-03 0. -1.
    9900012    2    1    2    0    0 -0.23137128266E+00  0.83999132233E+00 -0.79612532198E+00  0.90007773911E+02  0.90000035727E+02 0.  0.
        -12    1    1    2    0    0  0.23137128266E+00 -0.83999132233E+00  0.79612532198E+00  0.11802260886E+01  0.00000000000E+00 0.  1.
         11    1    3    3    0    0  0.52310101100E+01 -0.38678994829E+01 -0.67940299099E+01  0.94065379316E+01  0.51100000000E-03 0. -1.
        -11    1    3    3    0    0  0.24179795968E+02 -0.15737883524E+02  0.26491765235E+02  0.39168318018E+02  0.51100000000E-03 0.  1.
         12    1    3    3    0    0 -0.29642177361E+02  0.20445774329E+02 -0.20493860647E+02  0.41432917962E+02  0.00000000000E+00 0. -1.
</event>
<event>
 7    1  0.2578619E-015  0.9000775E+02  0.7816164E-02  0.1186339E+00
        -11   -1    0    0    0    0  0.00000000000E+00  0.00000000000E+00  0.45593999997E+02  0.45594000000E+02  0.51100000000E-03 0.  1.
         11   -1    0    0    0    0 -0.00000000000E+00 -0.00000000000E+00 -0.45593999997E+02  0.45594000000E+02  0.51100000000E-03 0. -1.
    9900012    2    1    2    0    0  0.34863664899E+00 -0.88756795927E+00  0.69546580962E+00  0.90007747024E+02  0.90000008485E+02 0.  0.
        -12    1    1    2    0    0 -0.34863664899E+00  0.88756795927E+00 -0.69546580962E+00  0.11802529761E+01  0.00000000000E+00 0.  1.
         11    1    3    3    0    0  0.59545082168E+01 -0.28913377542E+02  0.24766717957E+02  0.38533490468E+02  0.51100000000E-03 0. -1.
        -11    1    3    3    0    0  0.80286465173E+00  0.29613571458E+01  0.89869938513E+01  0.94963301616E+01  0.51100000000E-03 0.  1.
        -12    1    3    3    0    0 -0.64087362196E+01  0.25064452437E+02 -0.33058245998E+02  0.41977926395E+02  0.00000000000E+00 0.  1.
</event>
<event>
 7    1  0.2578619E-015  0.9000763E+02  0.7816164E-02  0.1186339E+00
        -11   -1    0    0    0    0  0.00000000000E+00  0.00000000000E+00  0.45593999997E+02  0.45594000000E+02  0.51100000000E-03 0.  1.
         11   -1    0    0    0    0 -0.00000000000E+00 -0.00000000000E+00 -0.45593999997E+02  0.45594000000E+02  0.51100000000E-03 0. -1.
    9900012    2    1    2    0    0 -0.44464346592E+00 -0.58180695296E+00 -0.92577799184E+00  0.90007630553E+02  0.89999890476E+02 0.  0.
        -12    1    1    2    0    0  0.44464346592E+00  0.58180695296E+00  0.92577799184E+00  0.11803694475E+01  0.00000000000E+00 0.  1.
         11    1    3    3    0    0 -0.13668159210E+02 -0.40336261261E+01  0.37688415870E+01  0.14740857610E+02  0.51100000000E-03 0. -1.
        -11    1    3    3    0    0 -0.30743807918E+02  0.39909782500E+01  0.38146577568E+00  0.31004115035E+02  0.51100000000E-03 0.  1.
         12    1    3    3    0    0  0.43967323662E+02 -0.53915907692E+00 -0.50760853545E+01  0.44262657908E+02  0.00000000000E+00 0. -1.
</event>
<event>
 7    1  0.2578619E-015  0.9000780E+02  0.7816164E-02  0.1186339E+00
        -11   -1    0    0    0    0  0.00000000000E+00  0.00000000000E+00  0.45593999997E+02  0.45594000000E+02  0.51100000000E-03 0.  1.
         11   -1    0    0    0    0 -0.00000000000E+00 -0.00000000000E+00 -0.45593999997E+02  0.45594000000E+02  0.51100000000E-03 0. -1.
    9900012    2    1    2    0    0  0.15848823492E+00  0.55403946984E+00 -0.10299475359E+01  0.90007800787E+02  0.90000062958E+02 0.  0.
        -12    1    1    2    0    0 -0.15848823492E+00 -0.55403946984E+00  0.10299475359E+01  0.11801992126E+01  0.00000000000E+00 0.  1.
         11    1    3    3    0    0  0.27161150827E+02  0.79155925764E+01 -0.29588921150E+02  0.40937622978E+02  0.51100000000E-03 0. -1.
        -11    1    3    3    0    0 -0.72973882484E+00 -0.87195334980E+01 -0.17634397621E+01  0.89259455091E+01  0.51100000000E-03 0.  1.
        -12    1    3    3    0    0 -0.26272923767E+02  0.13579803915E+01  0.30322413376E+02  0.40144232300E+02  0.00000000000E+00 0.  1.
</event>
<event>
 7    1  0.2578619E-015  0.9000783E+02  0.7816164E-02  0.1186339E+00
        -11   -1    0    0    0    0  0.00000000000E+00  0.00000000000E+00  0.45593999997E+02  0.45594000000E+02  0.51100000000E-03 0. -1.
         11   -1    0    0    0    0 -0.00000000000E+00 -0.00000000000E+00 -0.45593999997E+02  0.45594000000E+02  0.51100000000E-03 0.  1.
    9900012    2    1    2    0    0 -0.58321654865E+00 -0.51955126211E+00  0.88471860829E+00  0.90007829643E+02  0.90000092194E+02 0.  0.
        -12    1    1    2    0    0  0.58321654865E+00  0.51955126211E+00 -0.88471860829E+00  0.11801703574E+01  0.00000000000E+00 0.  1.
         11    1    3    3    0    0  0.57713012950E+01 -0.82465798829E+01 -0.14218010222E+01  0.10165407853E+02  0.51100000000E-03 0. -1.
        -11    1    3    3    0    0 -0.44094148185E+01 -0.24450462338E+02 -0.26704105595E+02  0.36474337602E+02  0.51100000000E-03 0.  1.
         12    1    3    3    0    0 -0.19451030251E+01  0.32177490959E+02  0.29010625226E+02  0.43368084188E+02  0.00000000000E+00 0. -1.
</event>
<event>
 7    1  0.2578619E-015  0.9000778E+02  0.7816164E-02  0.1186339E+00
        -11   -1    0    0    0    0  0.00000000000E+00  0.00000000000E+00  0.45593999997E+02  0.45594000000E+02  0.51100000000E-03 0.  1.
         11   -1    0    0    0    0 -0.00000000000E+00 -0.00000000000E+00 -0.45593999997E+02  0.45594000000E+02  0.51100000000E-03 0. -1.
    9900012    2    1    2    0    0  0.10020172077E+01  0.51226353302E+00  0.35563448666E+00  0.90007776165E+02  0.90000038011E+02 0.  0.
        -12    1    1    2    0    0 -0.10020172077E+01 -0.51226353302E+00 -0.35563448666E+00  0.11802238347E+01  0.00000000000E+00 0.  1.
         11    1    3    3    0    0 -0.78873490747E+00 -0.87477890841E+01  0.14305276073E+01  0.88990070295E+01  0.51100000000E-03 0. -1.
        -11    1    3    3    0    0  0.11732093298E+02 -0.33429244035E+02  0.80646178654E+01  0.36334479926E+02  0.51100000000E-03 0.  1.
         12    1    3    3    0    0 -0.99413411828E+01  0.42689296652E+02 -0.91395109861E+01  0.44774289210E+02  0.00000000000E+00 0. -1.
</event>
<event>
 7    1  0.2578619E-015  0.9000774E+02  0.7816164E-02  0.1186339E+00
        -11   -1    0    0    0    0  0.00000000000E+00  0.00000000000E+00  0.45593999997E+02  0.45594000000E+02  0.51100000000E-03 0.  1.
         11   -1    0    0    0    0 -0.00000000000E+00 -0.00000000000E+00 -0.45593999997E+02  0.45594000000E+02  0.51100000000E-03 0. -1.
    9900012    2    1    2    0    0  0.91912489346E+00  0.70440741526E+00  0.22808686502E+00  0.90007744098E+02  0.90000005520E+02 0.  0.
        -12    1    1    2    0    0 -0.91912489346E+00 -0.70440741526E+00 -0.22808686502E+00  0.11802559021E+01  0.00000000000E+00 0.  1.
         11    1    3    3    0    0  0.24361465185E+02 -0.24745654270E+02 -0.19038459128E+02  0.39601658013E+02  0.51100000000E-03 0. -1.
        -11    1    3    3    0    0  0.40476286354E+01  0.64887256745E+01 -0.49896659469E+01  0.91314634628E+01  0.51100000000E-03 0.  1.
        -12    1    3    3    0    0 -0.27489968927E+02  0.18961336010E+02  0.24256211940E+02  0.41274622622E+02  0.00000000000E+00 0.  1.
</event>
<event>
 7    1  0.2578619E-015  0.9000774E+02  0.7816164E-02  0.1186339E+00
        -11   -1    0    0    0    0  0.00000000000E+00  0.00000000000E+00  0.45593999997E+02  0.45594000000E+02  0.51100000000E-03 0. -1.
         11   -1    0    0    0    0 -0.00000000000E+00 -0.00000000000E+00 -0.45593999997E+02  0.45594000000E+02  0.51100000000E-03 0.  1.
    9900012    2    1    2    0    0  0.89192039973E-01 -0.77057904369E+00  0.88953213479E+00  0.90007739562E+02  0.90000000924E+02 0.  0.
        -12    1    1    2    0    0 -0.89192039973E-01  0.77057904369E+00 -0.88953213479E+00  0.11802604380E+01  0.00000000000E+00 0.  1.
         11    1    3    3    0    0 -0.15774375572E+02 -0.91680391142E+01 -0.30099669307E+01  0.18491721582E+02  0.51100000000E-03 0. -1.
        -11    1    3    3    0    0 -0.18850650545E+02 -0.34579631465E+01 -0.20027059253E+02  0.27719805874E+02  0.51100000000E-03 0.  1.
         12    1    3    3    0    0  0.34714218157E+02  0.11855423217E+02  0.23926558319E+02  0.43796212106E+02  0.00000000000E+00 0. -1.
</event>
<event>
 7    1  0.2578619E-015  0.9000773E+02  0.7816164E-02  0.1186339E+00
        -11   -1    0    0    0    0  0.00000000000E+00  0.00000000000E+00  0.45593999997E+02  0.45594000000E+02  0.51100000000E-03 0.  1.
         11   -1    0    0    0    0 -0.00000000000E+00 -0.00000000000E+00 -0.45593999997E+02  0.45594000000E+02  0.51100000000E-03 0. -1.
    9900012    2    1    2    0    0 -0.12562590539E+00 -0.79392032167E+00 -0.86425523242E+00  0.90007733737E+02  0.89999995022E+02 0.  0.
        -12    1    1    2    0    0  0.12562590539E+00  0.79392032167E+00  0.86425523242E+00  0.11802662632E+01  0.00000000000E+00 0.  1.
         11    1    3    3    0    0 -0.20593572004E+02  0.11250767232E+02 -0.26961512131E+02  0.35743504415E+02  0.51100000000E-03 0. -1.
        -11    1    3    3    0    0 -0.42261958255E+01  0.12499539653E+01 -0.85917847163E+01  0.96561835599E+01  0.51100000000E-03 0.  1.
        -12    1    3    3    0    0  0.24694141924E+02 -0.13294641519E+02  0.34689041615E+02  0.44608045762E+02  0.00000000000E+00 0.  1.
</event>
<event>
 7    1  0.2578619E-015  0.9000748E+02  0.7816164E-02  0.1186340E+00
        -11   -1    0    0    0    0  0.00000000000E+00  0.00000000000E+00  0.45593999997E+02  0.45594000000E+02  0.51100000000E-03 0.  1.
         11   -1    0    0    0    0 -0.00000000000E+00 -0.00000000000E+00 -0.45593999997E+02  0.45594000000E+02  0.51100000000E-03 0. -1.
    9900012    2    1    2    0    0  0.65675616339E+00 -0.87108845893E+00  0.45110373455E+00  0.90007483867E+02  0.89999741853E+02 0.  0.
        -12    1    1    2    0    0 -0.65675616339E+00  0.87108845893E+00 -0.45110373455E+00  0.11805161332E+01  0.00000000000E+00 0.  1.
         11    1    3    3    0    0  0.91688600433E+01  0.40023644021E+01 -0.67273977900E+01  0.12055902977E+02  0.51100000000E-03 0. -1.
        -11    1    3    3    0    0  0.12697346746E+02  0.13712564507E+01  0.37960998943E+02  0.40051721556E+02  0.51100000000E-03 0.  1.
         12    1    3    3    0    0 -0.21209450625E+02 -0.62447093117E+01 -0.30782497418E+02  0.37899859334E+02  0.00000000000E+00 0. -1.
</event>
<event>
 7    1  0.2578619E-015  0.9000762E+02  0.7816164E-02  0.1186339E+00
        -11   -1    0    0    0    0  0.00000000000E+00  0.00000000000E+00  0.45593999997E+02  0.45594000000E+02  0.51100000000E-03 0. -1.
         11   -1    0    0    0    0 -0.00000000000E+00 -0.00000000000E+00 -0.45593999997E+02  0.45594000000E+02  0.51100000000E-03 0.  1.
    9900012    2    1    2    0    0 -0.50770253719E+00 -0.10550511317E+01  0.14965942604E+00  0.90007621798E+02  0.89999881605E+02 0.  0.
        -12    1    1    2    0    0  0.50770253719E+00  0.10550511317E+01 -0.14965942604E+00  0.11803782024E+01  0.00000000000E+00 0.  1.
         11    1    3    3    0    0  0.12148826895E+01  0.65313264495E+00 -0.13020491175E+02  0.13093346131E+02  0.51100000000E-03 0. -1.
        -11    1    3    3    0    0  0.91600647162E+00  0.95360200160E+01 -0.30382076704E+02  0.31856637153E+02  0.51100000000E-03 0.  1.
         12    1    3    3    0    0 -0.26385916983E+01 -0.11244203793E+02  0.43552227306E+02  0.45057638513E+02  0.00000000000E+00 0. -1.
</event>
<event>
 7    1  0.2811843E-015  0.9000790E+02  0.7816164E-02  0.1186339E+00
        -11   -1    0    0    0    0  0.00000000000E+00  0.00000000000E+00  0.45593999997E+02  0.45594000000E+02  0.51100000000E-03 0.  1.
         11   -1    0    0    0    0 -0.00000000000E+00 -0.00000000000E+00 -0.45593999997E+02  0.45594000000E+02  0.51100000000E-03 0. -1.
    9900012    2    1    2    0    0  0.11494615294E+01  0.16510251100E+00  0.21004885854E+00  0.90007897814E+02  0.90000161265E+02 0.  0.
        -12    1    1    2    0    0 -0.11494615294E+01 -0.16510251100E+00 -0.21004885854E+00  0.11801021861E+01  0.00000000000E+00 0.  1.
         11    1    3    3    0    0 -0.72534315520E+01 -0.10993910929E+01  0.60934793691E+01  0.95368454501E+01  0.51100000000E-03 0. -1.
        -11    1    3    3    0    0  0.31349378764E+02 -0.79675683166E+01  0.25016374167E+02  0.40891131930E+02  0.51100000000E-03 0.  1.
         12    1    3    3    0    0 -0.22946485682E+02  0.92320619205E+01 -0.30899804678E+02  0.39579920434E+02  0.00000000000E+00 0. -1.
</event>
<event>
 7    1  0.2578619E-015  0.9000789E+02  0.7816164E-02  0.1186339E+00
        -11   -1    0    0    0    0  0.00000000000E+00  0.00000000000E+00  0.45593999997E+02  0.45594000000E+02  0.51100000000E-03 0. -1.
         11   -1    0    0    0    0 -0.00000000000E+00 -0.00000000000E+00 -0.45593999997E+02  0.45594000000E+02  0.51100000000E-03 0.  1.
    9900012    2    1    2    0    0 -0.98313914045E+00  0.56576001410E+00 -0.32559322941E+00  0.90007890719E+02  0.90000154077E+02 0.  0.
        -12    1    1    2    0    0  0.98313914045E+00 -0.56576001410E+00  0.32559322941E+00  0.11801092806E+01  0.00000000000E+00 0.  1.
         11    1    3    3    0    0 -0.86837217690E+01  0.18276787417E+02 -0.65465775061E+01  0.21267478913E+02  0.51100000000E-03 0. -1.
        -11    1    3    3    0    0 -0.21614583063E+00  0.22233912701E+02 -0.10659954204E+02  0.24658228179E+02  0.51100000000E-03 0.  1.
         12    1    3    3    0    0  0.79167284592E+01 -0.39944940103E+02  0.16880938481E+02  0.44082183627E+02  0.00000000000E+00 0. -1.
</event>
<event>
 7    1  0.2877963E-015  0.9000770E+02  0.7816164E-02  0.1186339E+00
        -11   -1    0    0    0    0  0.00000000000E+00  0.00000000000E+00  0.45593999997E+02  0.45594000000E+02  0.51100000000E-03 0.  1.
         11   -1    0    0    0    0 -0.00000000000E+00 -0.00000000000E+00 -0.45593999997E+02  0.45594000000E+02  0.51100000000E-03 0. -1.
    9900012    2    1    2    0    0  0.38843745516E+00 -0.11106303388E+01  0.93439470950E-01  0.90007697352E+02  0.89999958157E+02 0.  0.
        -12    1    1    2    0    0 -0.38843745516E+00  0.11106303388E+01 -0.93439470949E-01  0.11803026479E+01  0.00000000000E+00 0.  1.
         11    1    3    3    0    0 -0.41009485312E+01  0.59634321423E+01 -0.63517171388E+01  0.96293620060E+01  0.51100000000E-03 0. -1.
        -11    1    3    3    0    0 -0.26298901978E+02  0.54945569231E+01 -0.23450069780E+02  0.35661297985E+02  0.51100000000E-03 0.  1.
         12    1    3    3    0    0  0.30788287964E+02 -0.12568619404E+02  0.29895226389E+02  0.44717037361E+02  0.00000000000E+00 0. -1.
</event>
<event>
 7    1  0.2578619E-015  0.9000771E+02  0.7816164E-02  0.1186339E+00
        -11   -1    0    0    0    0  0.00000000000E+00  0.00000000000E+00  0.45593999997E+02  0.45594000000E+02  0.51100000000E-03 0.  1.
         11   -1    0    0    0    0 -0.00000000000E+00 -0.00000000000E+00 -0.45593999997E+02  0.45594000000E+02  0.51100000000E-03 0. -1.
    9900012    2    1    2    0    0  0.75804781744E+00 -0.64999496740E-01 -0.90234558246E+00  0.90007708096E+02  0.89999969043E+02 0.  0.
        -12    1    1    2    0    0 -0.75804781744E+00  0.64999496740E-01  0.90234558246E+00  0.11802919038E+01  0.00000000000E+00 0.  1.
         11    1    3    3    0    0 -0.50977305536E+01  0.31009252207E+01 -0.10845009045E+02  0.12378078020E+02  0.51100000000E-03 0. -1.
        -11    1    3    3    0    0 -0.14521336584E+02  0.21519312933E+01  0.39041169300E+02  0.41709866040E+02  0.51100000000E-03 0.  1.
         12    1    3    3    0    0  0.20377114955E+02 -0.53178560108E+01 -0.29098505837E+02  0.35919764036E+02  0.00000000000E+00 0. -1.
</event>
<event>
 7    1  0.2578619E-015  0.9000772E+02  0.7816164E-02  0.1186339E+00
        -11   -1    0    0    0    0  0.00000000000E+00  0.00000000000E+00  0.45593999997E+02  0.45594000000E+02  0.51100000000E-03 0. -1.
         11   -1    0    0    0    0 -0.00000000000E+00 -0.00000000000E+00 -0.45593999997E+02  0.45594000000E+02  0.51100000000E-03 0.  1.
    9900012    2    1    2    0    0  0.86081246898E+00  0.46045589374E+00  0.66336092456E+00  0.90007718062E+02  0.89999979140E+02 0.  0.
        -12    1    1    2    0    0 -0.86081246898E+00 -0.46045589374E+00 -0.66336092456E+00  0.11802819380E+01  0.00000000000E+00 0.  1.
         11    1    3    3    0    0  0.28709018173E+02 -0.24520388319E+02  0.43327243659E+01  0.38003021833E+02  0.51100000000E-03 0. -1.
        -11    1    3    3    0    0  0.13512939260E+01 -0.37746473681E+01  0.83789664132E+01  0.92887586061E+01  0.51100000000E-03 0.  1.
        -12    1    3    3    0    0 -0.29199499630E+02  0.28755491581E+02 -0.12048329855E+02  0.42715937623E+02  0.00000000000E+00 0.  1.
</event>
<event>
 7    1  0.2578619E-015  0.9000778E+02  0.7816164E-02  0.1186339E+00
        -11   -1    0    0    0    0  0.00000000000E+00  0.00000000000E+00  0.45593999997E+02  0.45594000000E+02  0.51100000000E-03 0.  1.
         11   -1    0    0    0    0 -0.00000000000E+00 -0.00000000000E+00 -0.45593999997E+02  0.45594000000E+02  0.51100000000E-03 0. -1.
    9900012    2    1    2    0    0 -0.93426269301E+00  0.34743256554E+00 -0.63194900131E+00  0.90007781500E+02  0.90000043416E+02 0.  0.
        -12    1    1    2    0    0  0.93426269301E+00 -0.34743256554E+00  0.63194900131E+00  0.11802184999E+01  0.00000000000E+00 0.  1.
         11    1    3    3    0    0 -0.13414454474E+02 -0.30289162781E+02 -0.14779446883E+02  0.36274137085E+02  0.51100000000E-03 0. -1.
        -11    1    3    3    0    0 -0.71922777331E+01 -0.65566902404E+01  0.19497843159E+01  0.99257596706E+01  0.51100000000E-03 0.  1.
        -12    1    3    3    0    0  0.19672469515E+02  0.37193285587E+02  0.12197713566E+02  0.43807884745E+02  0.00000000000E+00 0.  1.
</event>
<event>
 7    1  0.2578619E-015  0.9000783E+02  0.7816164E-02  0.1186339E+00
        -11   -1    0    0    0    0  0.00000000000E+00  0.00000000000E+00  0.45593999997E+02  0.45594000000E+02  0.51100000000E-03 0.  1.
         11   -1    0    0    0    0 -0.00000000000E+00 -0.00000000000E+00 -0.45593999997E+02  0.45594000000E+02  0.51100000000E-03 0. -1.
    9900012    2    1    2    0    0 -0.62510709834E+00  0.56628801047E+00 -0.82545084949E+00  0.90007826242E+02  0.90000088748E+02 0.  0.
        -12    1    1    2    0    0  0.62510709834E+00 -0.56628801047E+00  0.82545084949E+00  0.11801737584E+01  0.00000000000E+00 0.  1.
         11    1    3    3    0    0 -0.46216616309E+01  0.39952097273E+02 -0.10324049827E+02  0.41522473889E+02  0.51100000000E-03 0. -1.
        -11    1    3    3    0    0  0.41953233160E+01 -0.53411690289E-01  0.81063881588E+01  0.91278211955E+01  0.51100000000E-03 0.  1.
        -12    1    3    3    0    0 -0.19876878342E+00 -0.39332397572E+02  0.13922108191E+01  0.39357531157E+02  0.00000000000E+00 0.  1.
</event>
<event>
 7    1  0.2578619E-015  0.9000775E+02  0.7816164E-02  0.1186339E+00
        -11   -1    0    0    0    0  0.00000000000E+00  0.00000000000E+00  0.45593999997E+02  0.45594000000E+02  0.51100000000E-03 0.  1.
         11   -1    0    0    0    0 -0.00000000000E+00 -0.00000000000E+00 -0.45593999997E+02  0.45594000000E+02  0.51100000000E-03 0. -1.
    9900012    2    1    2    0    0  0.49800860080E+00 -0.37922237878E+00 -0.10005780082E+01  0.90007754886E+02  0.90000016450E+02 0.  0.
        -12    1    1    2    0    0 -0.49800860080E+00  0.37922237878E+00  0.10005780082E+01  0.11802451142E+01  0.00000000000E+00 0.  1.
         11    1    3    3    0    0  0.30070494736E+01  0.83813914472E+01 -0.17027084175E+01  0.90658306484E+01  0.51100000000E-03 0. -1.
        -11    1    3    3    0    0 -0.15684852458E+02 -0.11031297601E+01  0.37743766545E+02  0.40887937160E+02  0.51100000000E-03 0.  1.
         12    1    3    3    0    0  0.13175811586E+02 -0.76574840659E+01 -0.37041636136E+02  0.40053987077E+02  0.00000000000E+00 0. -1.
</event>
<event>
 7    1  0.2578619E-015  0.9000777E+02  0.7816164E-02  0.1186339E+00
        -11   -1    0    0    0    0  0.00000000000E+00  0.00000000000E+00  0.45593999997E+02  0.45594000000E+02  0.51100000000E-03 0.  1.
         11   -1    0    0    0    0 -0.00000000000E+00 -0.00000000000E+00 -0.45593999997E+02  0.45594000000E+02  0.51100000000E-03 0. -1.
    9900012    2    1    2    0    0 -0.59439173312E+00  0.10058290654E+01  0.16717438840E+00  0.90007770820E+02  0.90000032595E+02 0.  0.
        -12    1    1    2    0    0  0.59439173312E+00 -0.10058290654E+01 -0.16717438840E+00  0.11802291800E+01  0.00000000000E+00 0.  1.
         11    1    3    3    0    0  0.21106224943E+02  0.18145894919E+01 -0.30563301836E+02  0.37187106444E+02  0.51100000000E-03 0. -1.
        -11    1    3    3    0    0  0.23141256055E+01 -0.92796252737E+01 -0.34762914831E+01  0.10176012248E+02  0.51100000000E-03 0.  1.
        -12    1    3    3    0    0 -0.24014742281E+02  0.84708648472E+01  0.34206767707E+02  0.42644652127E+02  0.00000000000E+00 0.  1.
</event>
<event>
 7    1  0.2578619E-015  0.9000782E+02  0.7816164E-02  0.1186339E+00
        -11   -1    0    0    0    0  0.00000000000E+00  0.00000000000E+00  0.45593999997E+02  0.45594000000E+02  0.51100000000E-03 0. -1.
         11   -1    0    0    0    0 -0.00000000000E+00 -0.00000000000E+00 -0.45593999997E+02  0.45594000000E+02  0.51100000000E-03 0.  1.
    9900012    2    1    2    0    0  0.10631184602E+01  0.74211080854E-01  0.50704622874E+00  0.90007820343E+02  0.90000082771E+02 0.  0.
        -12    1    1    2    0    0 -0.10631184602E+01 -0.74211080854E-01 -0.50704622874E+00  0.11801796571E+01  0.00000000000E+00 0.  1.
         11    1    3    3    0    0  0.15260806727E+02  0.10484907684E+02  0.28914876797E+02  0.34335049316E+02  0.51100000000E-03 0. -1.
        -11    1    3    3    0    0 -0.14859174594E+02 -0.46373825239E+01  0.88894713010E+01  0.17925487066E+02  0.51100000000E-03 0.  1.
        -12    1    3    3    0    0  0.66148632735E+00 -0.57733140791E+01 -0.37297301870E+02  0.37747283960E+02  0.00000000000E+00 0.  1.
</event>
<event>
 7    1  0.6489853E-015  0.9000745E+02  0.7816164E-02  0.1186340E+00
        -11   -1    0    0    0    0  0.00000000000E+00  0.00000000000E+00  0.45593999997E+02  0.45594000000E+02  0.51100000000E-03 0. -1.
         11   -1    0    0    0    0 -0.00000000000E+00 -0.00000000000E+00 -0.45593999997E+02  0.45594000000E+02  0.51100000000E-03 0.  1.
    9900012    2    1    2    0    0 -0.86738054870E+00 -0.46971487132E+00  0.64863373953E+00  0.90007446399E+02  0.89999703891E+02 0.  0.
        -12    1    1    2    0    0  0.86738054870E+00  0.46971487132E+00 -0.64863373953E+00  0.11805536009E+01  0.00000000000E+00 0.  1.
         11    1    3    3    0    0 -0.73361955806E+01  0.12494024393E+01 -0.62275657449E+01  0.97037800583E+01  0.51100000000E-03 0. -1.
        -11    1    3    3    0    0 -0.12617111918E+02  0.14494743933E+02 -0.30060262242E+02  0.35677843000E+02  0.51100000000E-03 0.  1.
         12    1    3    3    0    0  0.19085926950E+02 -0.16213861244E+02  0.36936461726E+02  0.44625823341E+02  0.00000000000E+00 0. -1.
</event>
<event>
 7    1  0.2578619E-015  0.9000771E+02  0.7816164E-02  0.1186339E+00
        -11   -1    0    0    0    0  0.00000000000E+00  0.00000000000E+00  0.45593999997E+02  0.45594000000E+02  0.51100000000E-03 0.  1.
         11   -1    0    0    0    0 -0.00000000000E+00 -0.00000000000E+00 -0.45593999997E+02  0.45594000000E+02  0.51100000000E-03 0. -1.
    9900012    2    1    2    0    0  0.49385672782E+00  0.87529072024E+00 -0.61891002982E+00  0.90007712773E+02  0.89999973782E+02 0.  0.
        -12    1    1    2    0    0 -0.49385672782E+00 -0.87529072024E+00  0.61891002982E+00  0.11802872267E+01  0.00000000000E+00 0.  1.
         11    1    3    3    0    0 -0.40429357934E+01 -0.26064073670E+01  0.81980522096E+01  0.95050907142E+01  0.51100000000E-03 0. -1.
        -11    1    3    3    0    0 -0.25058512828E+02 -0.19869801182E+02  0.15605385907E+02  0.35584633393E+02  0.51100000000E-03 0.  1.
         12    1    3    3    0    0  0.29595305349E+02  0.23351499269E+02 -0.24422348147E+02  0.44917988666E+02  0.00000000000E+00 0. -1.
</event>
<event>
 7    1  0.2578619E-015  0.9000769E+02  0.7816164E-02  0.1186339E+00
        -11   -1    0    0    0    0  0.00000000000E+00  0.00000000000E+00  0.45593999997E+02  0.45594000000E+02  0.51100000000E-03 0.  1.
         11   -1    0    0    0    0 -0.00000000000E+00 -0.00000000000E+00 -0.45593999997E+02  0.45594000000E+02  0.51100000000E-03 0. -1.
    9900012    2    1    2    0    0  0.72086542621E+00 -0.87944218189E+00 -0.31632223418E+00  0.90007692722E+02  0.89999953466E+02 0.  0.
        -12    1    1    2    0    0 -0.72086542621E+00  0.87944218189E+00  0.31632223418E+00  0.11803072777E+01  0.00000000000E+00 0.  1.
         11    1    3    3    0    0  0.67489480619E+01  0.41013334083E+01  0.73606708867E+01  0.10795772869E+02  0.51100000000E-03 0. -1.
        -11    1    3    3    0    0 -0.10677562529E+02  0.34391892280E+02 -0.14794490456E+02  0.38931857704E+02  0.51100000000E-03 0.  1.
         12    1    3    3    0    0  0.46494798935E+01 -0.39372667870E+02  0.71174973356E+01  0.40280062150E+02  0.00000000000E+00 0. -1.
</event>
<event>
 7    1  0.2578619E-015  0.9000846E+02  0.7816164E-02  0.1186338E+00
        -11   -1    0    0    0    0  0.00000000000E+00  0.00000000000E+00  0.45593999997E+02  0.45594000000E+02  0.51100000000E-03 0.  1.
         11   -1    0    0    0    0 -0.00000000000E+00 -0.00000000000E+00 -0.45593999997E+02  0.45594000000E+02  0.51100000000E-03 0. -1.
    9900012    2    1    2    0    0 -0.44062056290E-02 -0.66898612025E+00 -0.97146538584E+00  0.90008463295E+02  0.90000734207E+02 0.  0.
        -12    1    1    2    0    0  0.44062056290E-02  0.66898612025E+00  0.97146538584E+00  0.11795367055E+01  0.00000000000E+00 0.  1.
         11    1    3    3    0    0  0.31927070811E+02 -0.25542212223E+02 -0.56501786802E+00  0.40890851071E+02  0.51100000000E-03 0. -1.
        -11    1    3    3    0    0 -0.57304348561E+01 -0.14721468839E+01  0.90173821262E+01  0.10785095306E+02  0.51100000000E-03 0.  1.
        -12    1    3    3    0    0 -0.26201042161E+02  0.26345372986E+02 -0.94238296440E+01  0.38332516918E+02  0.00000000000E+00 0.  1.
</event>
<event>
 7    1  0.2578619E-015  0.9000769E+02  0.7816164E-02  0.1186339E+00
        -11   -1    0    0    0    0  0.00000000000E+00  0.00000000000E+00  0.45593999997E+02  0.45594000000E+02  0.51100000000E-03 0. -1.
         11   -1    0    0    0    0 -0.00000000000E+00 -0.00000000000E+00 -0.45593999997E+02  0.45594000000E+02  0.51100000000E-03 0.  1.
    9900012    2    1    2    0    0 -0.97258968442E+00  0.71584264952E-01  0.66488969858E+00  0.90007689315E+02  0.89999950014E+02 0.  0.
        -12    1    1    2    0    0  0.97258968442E+00 -0.71584264952E-01 -0.66488969858E+00  0.11803106847E+01  0.00000000000E+00 0.  1.
         11    1    3    3    0    0  0.14331770973E+02  0.38633044467E+02  0.76753444413E+01  0.41914468821E+02  0.51100000000E-03 0. -1.
        -11    1    3    3    0    0  0.57559832041E-01 -0.41802525561E+01 -0.94742338731E+01  0.10355623222E+02  0.51100000000E-03 0.  1.
        -12    1    3    3    0    0 -0.15361920490E+02 -0.34381207646E+02  0.24637791304E+01  0.37737597273E+02  0.00000000000E+00 0.  1.
</event>
<event>
 7    1  0.2578619E-015  0.9000775E+02  0.7816164E-02  0.1186339E+00
        -11   -1    0    0    0    0  0.00000000000E+00  0.00000000000E+00  0.45593999997E+02  0.45594000000E+02  0.51100000000E-03 0. -1.
         11   -1    0    0    0    0 -0.00000000000E+00 -0.00000000000E+00 -0.45593999997E+02  0.45594000000E+02  0.51100000000E-03 0.  1.
    9900012    2    1    2    0    0 -0.11639549289E+01  0.26260253417E-01  0.19365166849E+00  0.90007753566E+02  0.90000015113E+02 0.  0.
        -12    1    1    2    0    0  0.11639549289E+01 -0.26260253417E-01 -0.19365166849E+00  0.11802464344E+01  0.00000000000E+00 0.  1.
         11    1    3    3    0    0  0.31310626360E+01  0.62317569346E+01  0.47870605198E+01  0.84589772670E+01  0.51100000000E-03 0. -1.
        -11    1    3    3    0    0  0.54084411142E+01  0.26471207645E+02  0.24697845969E+02  0.36605459500E+02  0.51100000000E-03 0.  1.
         12    1    3    3    0    0 -0.97034586790E+01 -0.32676704326E+02 -0.29291254820E+02  0.44943316799E+02  0.00000000000E+00 0. -1.
</event>
<event>
 7    1  0.2578619E-015  0.9000780E+02  0.7816164E-02  0.1186339E+00
        -11   -1    0    0    0    0  0.00000000000E+00  0.00000000000E+00  0.45593999997E+02  0.45594000000E+02  0.51100000000E-03 0. -1.
         11   -1    0    0    0    0 -0.00000000000E+00 -0.00000000000E+00 -0.45593999997E+02  0.45594000000E+02  0.51100000000E-03 0.  1.
    9900012    2    1    2    0    0  0.10087461940E+01 -0.37103441602E+00  0.48748413791E+00  0.90007798235E+02  0.90000060372E+02 0.  0.
        -12    1    1    2    0    0 -0.10087461940E+01  0.37103441602E+00 -0.48748413791E+00  0.11802017651E+01  0.00000000000E+00 0.  1.
         11    1    3    3    0    0 -0.28424958444E+01  0.40059828975E+02  0.75304462167E-01  0.40160619408E+02  0.51100000000E-03 0. -1.
        -11    1    3    3    0    0  0.64790788882E+01  0.11248822201E+01  0.45600128260E+01  0.80023459362E+01  0.51100000000E-03 0.  1.
        -12    1    3    3    0    0 -0.26278368498E+01 -0.41555745612E+02 -0.41478331502E+01  0.41844832891E+02  0.00000000000E+00 0.  1.
</event>
<event>
 7    1  0.2578619E-015  0.9000777E+02  0.7816164E-02  0.1186339E+00
        -11   -1    0    0    0    0  0.00000000000E+00  0.00000000000E+00  0.45593999997E+02  0.45594000000E+02  0.51100000000E-03 0.  1.
         11   -1    0    0    0    0 -0.00000000000E+00 -0.00000000000E+00 -0.45593999997E+02  0.45594000000E+02  0.51100000000E-03 0. -1.
    9900012    2    1    2    0    0 -0.10676369577E+01 -0.34070516925E+00 -0.37016126900E+00  0.90007767798E+02  0.90000029533E+02 0.  0.
        -12    1    1    2    0    0  0.10676369577E+01  0.34070516925E+00  0.37016126900E+00  0.11802322021E+01  0.00000000000E+00 0.  1.
         11    1    3    3    0    0  0.16411108463E+00  0.72565793689E+01 -0.70524632897E+01  0.10120381183E+02  0.51100000000E-03 0. -1.
        -11    1    3    3    0    0  0.33922002831E+02  0.10754150378E+02 -0.98496485440E+01  0.36923835162E+02  0.51100000000E-03 0.  1.
         12    1    3    3    0    0 -0.35153750873E+02 -0.18351434916E+02  0.16531950565E+02  0.42963551452E+02  0.00000000000E+00 0. -1.
</event>
<event>
 7    1  0.3289608E-015  0.9000773E+02  0.7816164E-02  0.1186339E+00
        -11   -1    0    0    0    0  0.00000000000E+00  0.00000000000E+00  0.45593999997E+02  0.45594000000E+02  0.51100000000E-03 0.  1.
         11   -1    0    0    0    0 -0.00000000000E+00 -0.00000000000E+00 -0.45593999997E+02  0.45594000000E+02  0.51100000000E-03 0. -1.
    9900012    2    1    2    0    0 -0.84743684556E+00  0.20080603716E+00 -0.79659475689E+00  0.90007730760E+02  0.89999992006E+02 0.  0.
        -12    1    1    2    0    0  0.84743684556E+00 -0.20080603716E+00  0.79659475689E+00  0.11802692398E+01  0.00000000000E+00 0.  1.
         11    1    3    3    0    0 -0.28567656127E+01  0.84590859148E+01  0.45597810170E+01  0.10025410090E+02  0.51100000000E-03 0. -1.
        -11    1    3    3    0    0 -0.22168436207E+02  0.18467458295E+02  0.20700024510E+02  0.35510246334E+02  0.51100000000E-03 0.  1.
         12    1    3    3    0    0  0.24177764974E+02 -0.26725738173E+02 -0.26056400284E+02  0.44472074336E+02  0.00000000000E+00 0. -1.
</event>
<event>
 7    1  0.2578619E-015  0.9000726E+02  0.7816164E-02  0.1186340E+00
        -11   -1    0    0    0    0  0.00000000000E+00  0.00000000000E+00  0.45593999997E+02  0.45594000000E+02  0.51100000000E-03 0.  1.
         11   -1    0    0    0    0 -0.00000000000E+00 -0.00000000000E+00 -0.45593999997E+02  0.45594000000E+02  0.51100000000E-03 0. -1.
    9900012    2    1    2    0    0  0.46821221101E+00 -0.92340587481E+00  0.56766648380E+00  0.90007260265E+02  0.89999515300E+02 0.  0.
        -12    1    1    2    0    0 -0.46821221101E+00  0.92340587481E+00 -0.56766648380E+00  0.11807397347E+01  0.00000000000E+00 0.  1.
         11    1    3    3    0    0  0.26628174774E+01  0.22074008256E+01  0.90822989829E+01  0.97186094890E+01  0.51100000000E-03 0. -1.
        -11    1    3    3    0    0  0.26383057081E+02 -0.15411234435E+02  0.21265709492E+02  0.37226364961E+02  0.51100000000E-03 0.  1.
         12    1    3    3    0    0 -0.28577662347E+02  0.12280427735E+02 -0.29780341991E+02  0.43062285816E+02  0.00000000000E+00 0. -1.
</event>
<event>
 7    1  0.2578619E-015  0.9000749E+02  0.7816164E-02  0.1186340E+00
        -11   -1    0    0    0    0  0.00000000000E+00  0.00000000000E+00  0.45593999997E+02  0.45594000000E+02  0.51100000000E-03 0. -1.
         11   -1    0    0    0    0 -0.00000000000E+00 -0.00000000000E+00 -0.45593999997E+02  0.45594000000E+02  0.51100000000E-03 0.  1.
    9900012    2    1    2    0    0  0.10298635965E+01 -0.57672423355E+00 -0.19423332898E-01  0.90007488613E+02  0.89999746662E+02 0.  0.
        -12    1    1    2    0    0 -0.10298635965E+01  0.57672423355E+00  0.19423332898E-01  0.11805113870E+01  0.00000000000E+00 0.  1.
         11    1    3    3    0    0  0.11188409734E+02 -0.16081252814E+02  0.35100130505E+02  0.40197094002E+02  0.51100000000E-03 0. -1.
        -11    1    3    3    0    0 -0.60974337449E+01  0.66487583357E+01  0.37269056473E+01  0.97608663368E+01  0.51100000000E-03 0.  1.
        -12    1    3    3    0    0 -0.40611123928E+01  0.88557702448E+01 -0.38846459485E+02  0.40049528275E+02  0.00000000000E+00 0.  1.
</event>
<event>
 7    1  0.2578619E-015  0.9000802E+02  0.7816164E-02  0.1186338E+00
        -11   -1    0    0    0    0  0.00000000000E+00  0.00000000000E+00  0.45593999997E+02  0.45594000000E+02  0.51100000000E-03 0.  1.
         11   -1    0    0    0    0 -0.00000000000E+00 -0.00000000000E+00 -0.45593999997E+02  0.45594000000E+02  0.51100000000E-03 0. -1.
    9900012    2    1    2    0    0 -0.33213766743E-02  0.11168453423E+01  0.38077261843E+00  0.90008024434E+02  0.90000289556E+02 0.  0.
        -12    1    1    2    0    0  0.33213766743E-02 -0.11168453423E+01 -0.38077261843E+00  0.11799755663E+01  0.00000000000E+00 0.  1.
         11    1    3    3    0    0  0.52794765197E+01  0.95166912687E+01  0.15230229702E+01  0.10989080228E+02  0.51100000000E-03 0. -1.
        -11    1    3    3    0    0 -0.27173188552E+02  0.21534247590E+02  0.15975205262E+02  0.38174771496E+02  0.51100000000E-03 0.  1.
         12    1    3    3    0    0  0.21890390656E+02 -0.29934093516E+02 -0.17117455613E+02  0.40844172710E+02  0.00000000000E+00 0. -1.
</event>
<event>
 7    1  0.2819981E-015  0.9000770E+02  0.7816164E-02  0.1186339E+00
        -11   -1    0    0    0    0  0.00000000000E+00  0.00000000000E+00  0.45593999997E+02  0.45594000000E+02  0.51100000000E-03 0. -1.
         11   -1    0    0    0    0 -0.00000000000E+00 -0.00000000000E+00 -0.45593999997E+02  0.45594000000E+02  0.51100000000E-03 0.  1.
    9900012    2    1    2    0    0 -0.35092522943E+00 -0.49160857258E+00  0.10140431017E+01  0.90007698802E+02  0.89999959626E+02 0.  0.
        -12    1    1    2    0    0  0.35092522943E+00  0.49160857258E+00 -0.10140431017E+01  0.11803011978E+01  0.00000000000E+00 0.  1.
         11    1    3    3    0    0  0.71287742699E+01  0.60093170197E+01 -0.31879641744E+01  0.98536505658E+01  0.51100000000E-03 0. -1.
        -11    1    3    3    0    0 -0.20057365103E+02 -0.45475257413E+01 -0.34083666782E+02  0.39807966876E+02  0.51100000000E-03 0.  1.
         12    1    3    3    0    0  0.12577665604E+02 -0.19533998510E+01  0.38285674058E+02  0.40346081360E+02  0.00000000000E+00 0. -1.
</event>
<event>
 7    1  0.2578619E-015  0.9000775E+02  0.7816164E-02  0.1186339E+00
        -11   -1    0    0    0    0  0.00000000000E+00  0.00000000000E+00  0.45593999997E+02  0.45594000000E+02  0.51100000000E-03 0.  1.
         11   -1    0    0    0    0 -0.00000000000E+00 -0.00000000000E+00 -0.45593999997E+02  0.45594000000E+02  0.51100000000E-03 0. -1.
    9900012    2    1    2    0    0 -0.17629484630E+00  0.11148932822E+01  0.34486626246E+00  0.90007745942E+02  0.90000007388E+02 0.  0.
        -12    1    1    2    0    0  0.17629484630E+00 -0.11148932822E+01 -0.34486626246E+00  0.11802540585E+01  0.00000000000E+00 0.  1.
         11    1    3    3    0    0 -0.32020286585E+02 -0.34995351954E+01 -0.28400626617E+02  0.42943463904E+02  0.51100000000E-03 0. -1.
        -11    1    3    3    0    0  0.10444921971E+02 -0.19422452822E+01 -0.11867774827E-01  0.10623975377E+02  0.51100000000E-03 0.  1.
        -12    1    3    3    0    0  0.21399069768E+02  0.65566737598E+01  0.28757360654E+02  0.36440306660E+02  0.00000000000E+00 0.  1.
</event>
<event>
 7    1  0.2578619E-015  0.9000773E+02  0.7816164E-02  0.1186339E+00
        -11   -1    0    0    0    0  0.00000000000E+00  0.00000000000E+00  0.45593999997E+02  0.45594000000E+02  0.51100000000E-03 0. -1.
         11   -1    0    0    0    0 -0.00000000000E+00 -0.00000000000E+00 -0.45593999997E+02  0.45594000000E+02  0.51100000000E-03 0.  1.
    9900012    2    1    2    0    0  0.79973048566E+00 -0.61290431624E+00  0.61467313271E+00  0.90007727315E+02  0.89999988516E+02 0.  0.
        -12    1    1    2    0    0 -0.79973048566E+00  0.61290431624E+00 -0.61467313271E+00  0.11802726849E+01  0.00000000000E+00 0.  1.
         11    1    3    3    0    0 -0.56583291286E+01  0.45504532557E+01 -0.68240104794E+01  0.99644584722E+01  0.51100000000E-03 0. -1.
        -11    1    3    3    0    0 -0.33732978510E+02 -0.91507339680E+01 -0.95408678878E+01  0.36230897472E+02  0.51100000000E-03 0.  1.
         12    1    3    3    0    0  0.40191038124E+02  0.39873763960E+01  0.16979551500E+02  0.43812371371E+02  0.00000000000E+00 0. -1.
</event>
<event>
 7    1  0.2578619E-015  0.9000866E+02  0.7816164E-02  0.1186337E+00
        -11   -1    0    0    0    0  0.00000000000E+00  0.00000000000E+00  0.45593999997E+02  0.45594000000E+02  0.51100000000E-03 0.  1.
         11   -1    0    0    0    0 -0.00000000000E+00 -0.00000000000E+00 -0.45593999997E+02  0.45594000000E+02  0.51100000000E-03 0. -1.
    9900012    2    1    2    0    0 -0.64540918527E+00  0.31576653054E-01 -0.98655095818E+00  0.90008664215E+02  0.90000937777E+02 0.  0.
        -12    1    1    2    0    0  0.64540918527E+00 -0.31576653054E-01  0.98655095818E+00  0.11793357853E+01  0.00000000000E+00 0.  1.
         11    1    3    3    0    0 -0.23806008142E+02 -0.13804613324E+02  0.20705193066E+02  0.34438327381E+02  0.51100000000E-03 0. -1.
        -11    1    3    3    0    0 -0.38754101648E+01 -0.62613578560E+00  0.10441942025E+02  0.11155492077E+02  0.51100000000E-03 0.  1.
        -12    1    3    3    0    0  0.27036009121E+02  0.14462325763E+02 -0.32133686049E+02  0.44414844757E+02  0.00000000000E+00 0.  1.
</event>
<event>
 7    1  0.2578619E-015  0.9000751E+02  0.7816164E-02  0.1186340E+00
        -11   -1    0    0    0    0  0.00000000000E+00  0.00000000000E+00  0.45593999997E+02  0.45594000000E+02  0.51100000000E-03 0.  1.
         11   -1    0    0    0    0 -0.00000000000E+00 -0.00000000000E+00 -0.45593999997E+02  0.45594000000E+02  0.51100000000E-03 0. -1.
    9900012    2    1    2    0    0  0.51269289656E+00  0.82186106956E+00 -0.67472137007E+00  0.90007509191E+02  0.89999767512E+02 0.  0.
        -12    1    1    2    0    0 -0.51269289656E+00 -0.82186106956E+00  0.67472137007E+00  0.11804908094E+01  0.00000000000E+00 0.  1.
         11    1    3    3    0    0  0.14511841461E+02  0.13096102361E+01 -0.33342273827E+02  0.36387028538E+02  0.51100000000E-03 0. -1.
        -11    1    3    3    0    0  0.56456070464E+01  0.78144881772E+00 -0.71850037479E+01  0.91710315830E+01  0.51100000000E-03 0.  1.
        -12    1    3    3    0    0 -0.19644755611E+02 -0.12691979843E+01  0.39852556205E+02  0.44449449070E+02  0.00000000000E+00 0.  1.
</event>
<event>
 8    1  0.2578619E-015  0.9000767E+02  0.7816164E-02  0.1186339E+00
        -11   -1    0    0    0    0  0.00000000000E+00  0.00000000000E+00  0.45593999997E+02  0.45594000000E+02  0.51100000000E-03 0.  1.
         11   -1    0    0    0    0 -0.00000000000E+00 -0.00000000000E+00 -0.45593999997E+02  0.45594000000E+02  0.51100000000E-03 0. -1.
    9900012    2    1    2    0    0 -0.78595123411E+00 -0.69147678874E+00 -0.54527123094E+00  0.90007669450E+02  0.89999929887E+02 0.  0.
         23    2    3    3    0    0 -0.11824005463E+02 -0.10550082846E+02 -0.21978745657E+02  0.63961084635E+02  0.57938275205E+02 0.  0.
        -12    1    1    2    0    0  0.78595123411E+00  0.69147678874E+00  0.54527123094E+00  0.11803305499E+01  0.00000000000E+00 0.  1.
         11    1    4    4    0    0  0.69775046272E+01 -0.31111794493E+02 -0.15009808128E+02  0.35240937384E+02  0.51100000000E-03 0. -1.
        -11    1    4    4    0    0 -0.18801510090E+02  0.20561711648E+02 -0.69689375297E+01  0.28720147251E+02  0.51100000000E-03 0.  1.
        -12    1    3    3    0    0  0.11038054229E+02  0.98586060570E+01  0.21433474426E+02  0.26046584815E+02  0.00000000000E+00 0.  1.
</event>
<event>
 7    1  0.2578619E-015  0.9000761E+02  0.7816164E-02  0.1186339E+00
        -11   -1    0    0    0    0  0.00000000000E+00  0.00000000000E+00  0.45593999997E+02  0.45594000000E+02  0.51100000000E-03 0.  1.
         11   -1    0    0    0    0 -0.00000000000E+00 -0.00000000000E+00 -0.45593999997E+02  0.45594000000E+02  0.51100000000E-03 0. -1.
    9900012    2    1    2    0    0  0.97265353400E+00 -0.11991621296E+00 -0.65793426558E+00  0.90007613498E+02  0.89999873196E+02 0.  0.
        -12    1    1    2    0    0 -0.97265353400E+00  0.11991621296E+00  0.65793426558E+00  0.11803865016E+01  0.00000000000E+00 0.  1.
         11    1    3    3    0    0  0.49773307645E+01  0.27971279018E+01  0.84176848096E+01  0.10171291160E+02  0.51100000000E-03 0. -1.
        -11    1    3    3    0    0 -0.11800986499E+02  0.17083451947E+02  0.29272685908E+02  0.35888685588E+02  0.51100000000E-03 0.  1.
         12    1    3    3    0    0  0.77963092682E+01 -0.20000496061E+02 -0.38348304983E+02  0.43947636750E+02  0.00000000000E+00 0. -1.
</event>
<event>
 7    1  0.2578619E-015  0.9000780E+02  0.7816164E-02  0.1186339E+00
        -11   -1    0    0    0    0  0.00000000000E+00  0.00000000000E+00  0.45593999997E+02  0.45594000000E+02  0.51100000000E-03 0.  1.
         11   -1    0    0    0    0 -0.00000000000E+00 -0.00000000000E+00 -0.45593999997E+02  0.45594000000E+02  0.51100000000E-03 0. -1.
    9900012    2    1    2    0    0  0.50099502094E-01 -0.79704087577E+00 -0.86896129068E+00  0.90007797542E+02  0.90000059669E+02 0.  0.
        -12    1    1    2    0    0 -0.50099502094E-01  0.79704087577E+00  0.86896129068E+00  0.11802024582E+01  0.00000000000E+00 0.  1.
         11    1    3    3    0    0  0.88919445425E+01 -0.11151317630E+01 -0.36308252875E+02  0.37397853196E+02  0.51100000000E-03 0. -1.
        -11    1    3    3    0    0  0.78147795364E+01 -0.27412963771E+01 -0.43586500419E+01  0.93585958070E+01  0.51100000000E-03 0.  1.
        -12    1    3    3    0    0 -0.16656624577E+02  0.30593872643E+01  0.39797941626E+02  0.43251348539E+02  0.00000000000E+00 0.  1.
</event>
<event>
 7    1  0.2578619E-015  0.9000779E+02  0.7816164E-02  0.1186339E+00
        -11   -1    0    0    0    0  0.00000000000E+00  0.00000000000E+00  0.45593999997E+02  0.45594000000E+02  0.51100000000E-03 0. -1.
         11   -1    0    0    0    0 -0.00000000000E+00 -0.00000000000E+00 -0.45593999997E+02  0.45594000000E+02  0.51100000000E-03 0.  1.
    9900012    2    1    2    0    0  0.34626796124E+00  0.10778428082E+01  0.33352769805E+00  0.90007793516E+02  0.90000055590E+02 0.  0.
        -12    1    1    2    0    0 -0.34626796124E+00 -0.10778428082E+01 -0.33352769805E+00  0.11802064842E+01  0.00000000000E+00 0.  1.
         11    1    3    3    0    0 -0.61087669172E+01 -0.62503930678E+01 -0.14907157770E+01  0.88660408605E+01  0.51100000000E-03 0. -1.
        -11    1    3    3    0    0  0.29837906990E+02  0.71602340887E+01 -0.29155663154E+02  0.42327560051E+02  0.51100000000E-03 0.  1.
         12    1    3    3    0    0 -0.23382872111E+02  0.16800178728E+00  0.30979906629E+02  0.38814192604E+02  0.00000000000E+00 0. -1.
</event>
<event>
 7    1  0.2578619E-015  0.9000773E+02  0.7816164E-02  0.1186339E+00
        -11   -1    0    0    0    0  0.00000000000E+00  0.00000000000E+00  0.45593999997E+02  0.45594000000E+02  0.51100000000E-03 0.  1.
         11   -1    0    0    0    0 -0.00000000000E+00 -0.00000000000E+00 -0.45593999997E+02  0.45594000000E+02  0.51100000000E-03 0. -1.
    9900012    2    1    2    0    0 -0.30336084730E+00  0.28979222399E-01 -0.11402524441E+01  0.90007727474E+02  0.89999988677E+02 0.  0.
        -12    1    1    2    0    0  0.30336084730E+00 -0.28979222399E-01  0.11402524441E+01  0.11802725258E+01  0.00000000000E+00 0.  1.
         11    1    3    3    0    0 -0.20878695720E+01 -0.14063510672E+01  0.59192111232E+01  0.64322689042E+01  0.51100000000E-03 0. -1.
        -11    1    3    3    0    0  0.34806008635E+02 -0.42099454943E+01  0.20131784320E+02  0.40428586648E+02  0.51100000000E-03 0.  1.
         12    1    3    3    0    0 -0.33021499910E+02  0.56452757839E+01 -0.27191247887E+02  0.43146871922E+02  0.00000000000E+00 0. -1.
</event>
<event>
 7    1  0.2578619E-015  0.9000718E+02  0.7816164E-02  0.1186340E+00
        -11   -1    0    0    0    0  0.00000000000E+00  0.00000000000E+00  0.45593999997E+02  0.45594000000E+02  0.51100000000E-03 0.  1.
         11   -1    0    0    0    0 -0.00000000000E+00 -0.00000000000E+00 -0.45593999997E+02  0.45594000000E+02  0.51100000000E-03 0. -1.
    9900012    2    1    2    0    0  0.41280528821E+00  0.14098017354E+00 -0.10972977224E+01  0.90007175751E+02  0.89999429669E+02 0.  0.
        -12    1    1    2    0    0 -0.41280528821E+00 -0.14098017354E+00  0.10972977224E+01  0.11808242490E+01  0.00000000000E+00 0.  1.
         11    1    3    3    0    0 -0.23403938586E+02  0.25196997057E+02 -0.19884661950E+02  0.39724460766E+02  0.51100000000E-03 0. -1.
        -11    1    3    3    0    0 -0.56282207666E+01 -0.10625623605E+02 -0.86235871778E+00  0.12055057396E+02  0.51100000000E-03 0.  1.
        -12    1    3    3    0    0  0.29444964641E+02 -0.14430393278E+02  0.19649722945E+02  0.38227657589E+02  0.00000000000E+00 0.  1.
</event>
<event>
 7    1  0.2578619E-015  0.9000773E+02  0.7816164E-02  0.1186339E+00
        -11   -1    0    0    0    0  0.00000000000E+00  0.00000000000E+00  0.45593999997E+02  0.45594000000E+02  0.51100000000E-03 0.  1.
         11   -1    0    0    0    0 -0.00000000000E+00 -0.00000000000E+00 -0.45593999997E+02  0.45594000000E+02  0.51100000000E-03 0. -1.
    9900012    2    1    2    0    0 -0.43712017189E+00 -0.81275284383E+00 -0.73579450449E+00  0.90007731055E+02  0.89999992305E+02 0.  0.
        -12    1    1    2    0    0  0.43712017189E+00  0.81275284383E+00  0.73579450449E+00  0.11802689451E+01  0.00000000000E+00 0.  1.
         11    1    3    3    0    0 -0.12789558636E+01  0.21101745937E+01  0.10170873689E+02  0.10465908311E+02  0.51100000000E-03 0. -1.
        -11    1    3    3    0    0  0.34168832734E+02  0.13700696615E+02  0.81528238458E+01  0.37705261636E+02  0.51100000000E-03 0.  1.
         12    1    3    3    0    0 -0.33326997042E+02 -0.16623624053E+02 -0.19059492039E+02  0.41836561108E+02  0.00000000000E+00 0. -1.
</event>
<event>
 7    1  0.2578619E-015  0.9000879E+02  0.7816164E-02  0.1186337E+00
        -11   -1    0    0    0    0  0.00000000000E+00  0.00000000000E+00  0.45593999997E+02  0.45594000000E+02  0.51100000000E-03 0.  1.
         11   -1    0    0    0    0 -0.00000000000E+00 -0.00000000000E+00 -0.45593999997E+02  0.45594000000E+02  0.51100000000E-03 0. -1.
    9900012    2    1    2    0    0 -0.88650063340E+00  0.62522661744E+00 -0.46231286913E+00  0.90008794808E+02  0.90001070093E+02 0.  0.
        -12    1    1    2    0    0  0.88650063340E+00 -0.62522661744E+00  0.46231286913E+00  0.11792051921E+01  0.00000000000E+00 0.  1.
         11    1    3    3    0    0 -0.15674928471E+02 -0.48115253184E+01  0.98931931550E+01  0.19150180927E+02  0.51100000000E-03 0. -1.
        -11    1    3    3    0    0  0.17582366838E+02  0.23162640121E+02  0.20211152831E+02  0.35413813971E+02  0.51100000000E-03 0.  1.
         12    1    3    3    0    0 -0.27939390001E+01 -0.17725888185E+02 -0.30566658855E+02  0.35444799909E+02  0.00000000000E+00 0. -1.
</event>
<event>
 7    1  0.3446480E-015  0.9000773E+02  0.7816164E-02  0.1186339E+00
        -11   -1    0    0    0    0  0.00000000000E+00  0.00000000000E+00  0.45593999997E+02  0.45594000000E+02  0.51100000000E-03 0. -1.
         11   -1    0    0    0    0 -0.00000000000E+00 -0.00000000000E+00 -0.45593999997E+02  0.45594000000E+02  0.51100000000E-03 0.  1.
    9900012    2    1    2    0    0 -0.47036957357E+00 -0.40024108906E+00  0.10057802500E+01  0.90007731227E+02  0.89999992479E+02 0.  0.
        -12    1    1    2    0    0  0.47036957357E+00  0.40024108906E+00 -0.10057802500E+01  0.11802687730E+01  0.00000000000E+00 0.  1.
         11    1    3    3    0    0 -0.92192608932E+01  0.12873686956E+01 -0.43810100954E+01  0.10288116411E+02  0.51100000000E-03 0. -1.
        -11    1    3    3    0    0 -0.87529299090E+01  0.88673502608E+01 -0.33525735970E+02  0.35766166348E+02  0.51100000000E-03 0.  1.
         12    1    3    3    0    0  0.17501821229E+02 -0.10554960046E+02  0.38912526316E+02  0.43953448467E+02  0.00000000000E+00 0. -1.
</event>
<event>
 7    1  0.3376619E-015  0.9000754E+02  0.7816164E-02  0.1186339E+00
        -11   -1    0    0    0    0  0.00000000000E+00  0.00000000000E+00  0.45593999997E+02  0.45594000000E+02  0.51100000000E-03 0. -1.
         11   -1    0    0    0    0 -0.00000000000E+00 -0.00000000000E+00 -0.45593999997E+02  0.45594000000E+02  0.51100000000E-03 0.  1.
    9900012    2    1    2    0    0 -0.10109918134E+01 -0.53631071075E+00  0.28938862628E+00  0.90007542715E+02  0.89999801478E+02 0.  0.
        -12    1    1    2    0    0  0.10109918134E+01  0.53631071075E+00 -0.28938862628E+00  0.11804572853E+01  0.00000000000E+00 0.  1.
         11    1    3    3    0    0  0.35212791098E+01 -0.88239283189E+01 -0.10568252766E+01  0.95591839334E+01  0.51100000000E-03 0. -1.
        -11    1    3    3    0    0  0.43512333085E+01  0.22947313650E+02 -0.33951070481E+02  0.41209072086E+02  0.51100000000E-03 0.  1.
         12    1    3    3    0    0 -0.88835042317E+01 -0.14659696042E+02  0.35297284384E+02  0.39239286696E+02  0.00000000000E+00 0. -1.
</event>
<event>
 7    1  0.2578619E-015  0.9000769E+02  0.7816164E-02  0.1186339E+00
        -11   -1    0    0    0    0  0.00000000000E+00  0.00000000000E+00  0.45593999997E+02  0.45594000000E+02  0.51100000000E-03 0.  1.
         11   -1    0    0    0    0 -0.00000000000E+00 -0.00000000000E+00 -0.45593999997E+02  0.45594000000E+02  0.51100000000E-03 0. -1.
    9900012    2    1    2    0    0 -0.25837253938E+00 -0.11009926555E+01  0.33792848430E+00  0.90007687814E+02  0.89999948493E+02 0.  0.
        -12    1    1    2    0    0  0.25837253938E+00  0.11009926555E+01 -0.33792848430E+00  0.11803121863E+01  0.00000000000E+00 0.  1.
         11    1    3    3    0    0  0.36341161862E+02  0.21947286184E+02 -0.10261043249E+02  0.43676680565E+02  0.51100000000E-03 0. -1.
        -11    1    3    3    0    0 -0.82935488639E+01  0.15603250519E+00  0.37098891111E+01  0.90868353335E+01  0.51100000000E-03 0.  1.
        -12    1    3    3    0    0 -0.28305985538E+02 -0.23204311345E+02  0.68890826225E+01  0.37244171915E+02  0.00000000000E+00 0.  1.
</event>
<event>
 7    1  0.2578619E-015  0.9000778E+02  0.7816164E-02  0.1186339E+00
        -11   -1    0    0    0    0  0.00000000000E+00  0.00000000000E+00  0.45593999997E+02  0.45594000000E+02  0.51100000000E-03 0.  1.
         11   -1    0    0    0    0 -0.00000000000E+00 -0.00000000000E+00 -0.45593999997E+02  0.45594000000E+02  0.51100000000E-03 0. -1.
    9900012    2    1    2    0    0  0.10566897224E+01 -0.23700626923E+00 -0.46921568584E+00  0.90007776080E+02  0.90000037924E+02 0.  0.
        -12    1    1    2    0    0 -0.10566897224E+01  0.23700626923E+00  0.46921568584E+00  0.11802239198E+01  0.00000000000E+00 0.  1.
         11    1    3    3    0    0 -0.56169429616E+01  0.28965527831E+01  0.88165835032E+01  0.10847682296E+02  0.51100000000E-03 0. -1.
        -11    1    3    3    0    0 -0.17116062999E+02  0.31546159730E+02  0.85133691770E+00  0.35900481628E+02  0.51100000000E-03 0.  1.
         12    1    3    3    0    0  0.23789695683E+02 -0.34679718782E+02 -0.10137136107E+02  0.43259612157E+02  0.00000000000E+00 0. -1.
</event>
<event>
 7    1  0.2578619E-015  0.9000751E+02  0.7816164E-02  0.1186339E+00
        -11   -1    0    0    0    0  0.00000000000E+00  0.00000000000E+00  0.45593999997E+02  0.45594000000E+02  0.51100000000E-03 0.  1.
         11   -1    0    0    0    0 -0.00000000000E+00 -0.00000000000E+00 -0.45593999997E+02  0.45594000000E+02  0.51100000000E-03 0. -1.
    9900012    2    1    2    0    0 -0.21556760289E+00 -0.79495101239E+00 -0.84565534797E+00  0.90007513036E+02  0.89999771408E+02 0.  0.
        -12    1    1    2    0    0  0.21556760289E+00  0.79495101239E+00  0.84565534797E+00  0.11804869635E+01  0.00000000000E+00 0.  1.
         11    1    3    3    0    0  0.14616465863E+01 -0.61897094257E+01  0.58557886448E+01  0.86451821514E+01  0.51100000000E-03 0. -1.
        -11    1    3    3    0    0 -0.30074398197E+02 -0.91489036505E+01  0.22063155419E+02  0.38405138878E+02  0.51100000000E-03 0.  1.
         12    1    3    3    0    0  0.28397184008E+02  0.14543662064E+02 -0.28764599412E+02  0.42957192007E+02  0.00000000000E+00 0. -1.
</event>
<event>
 7    1  0.2578619E-015  0.9000808E+02  0.7816164E-02  0.1186338E+00
        -11   -1    0    0    0    0  0.00000000000E+00  0.00000000000E+00  0.45593999997E+02  0.45594000000E+02  0.51100000000E-03 0.  1.
         11   -1    0    0    0    0 -0.00000000000E+00 -0.00000000000E+00 -0.45593999997E+02  0.45594000000E+02  0.51100000000E-03 0. -1.
    9900012    2    1    2    0    0  0.23914218680E+00  0.10841763154E+01  0.39948999328E+00  0.90008076476E+02  0.90000342285E+02 0.  0.
        -12    1    1    2    0    0 -0.23914218680E+00 -0.10841763154E+01 -0.39948999328E+00  0.11799235242E+01  0.00000000000E+00 0.  1.
         11    1    3    3    0    0 -0.39873351905E+01 -0.30227108875E+01  0.62103786380E+01  0.79752383111E+01  0.51100000000E-03 0. -1.
        -11    1    3    3    0    0  0.27671156245E+02 -0.12478894437E+02  0.25428932883E+02  0.39598564648E+02  0.51100000000E-03 0.  1.
         12    1    3    3    0    0 -0.23444678867E+02  0.16585781640E+02 -0.31239821528E+02  0.42434273517E+02  0.00000000000E+00 0. -1.
</event>
<event>
 7    1  0.2578619E-015  0.9000770E+02  0.7816164E-02  0.1186339E+00
        -11   -1    0    0    0    0  0.00000000000E+00  0.00000000000E+00  0.45593999997E+02  0.45594000000E+02  0.51100000000E-03 0.  1.
         11   -1    0    0    0    0 -0.00000000000E+00 -0.00000000000E+00 -0.45593999997E+02  0.45594000000E+02  0.51100000000E-03 0. -1.
    9900012    2    1    2    0    0  0.38877829892E+00 -0.49570948713E+00 -0.99811493525E+00  0.90007699239E+02  0.89999960069E+02 0.  0.
        -12    1    1    2    0    0 -0.38877829892E+00  0.49570948713E+00  0.99811493525E+00  0.11803007605E+01  0.00000000000E+00 0.  1.
         11    1    3    3    0    0  0.32554522110E+02 -0.51116495653E+01 -0.12194677476E+02  0.35137387923E+02  0.51100000000E-03 0. -1.
        -11    1    3    3    0    0  0.39361089038E+01 -0.56132940242E+01 -0.97327762528E+01  0.11904997142E+02  0.51100000000E-03 0.  1.
        -12    1    3    3    0    0 -0.36101852715E+02  0.10229234102E+02  0.20929338793E+02  0.42965314174E+02  0.00000000000E+00 0.  1.
</event>
<event>
 7    1  0.2578619E-015  0.9000866E+02  0.7816164E-02  0.1186337E+00
        -11   -1    0    0    0    0  0.00000000000E+00  0.00000000000E+00  0.45593999997E+02  0.45594000000E+02  0.51100000000E-03 0.  1.
         11   -1    0    0    0    0 -0.00000000000E+00 -0.00000000000E+00 -0.45593999997E+02  0.45594000000E+02  0.51100000000E-03 0. -1.
    9900012    2    1    2    0    0 -0.98384147128E+00  0.60734863542E+00 -0.23244801070E+00  0.90008657606E+02  0.90000931081E+02 0.  0.
        -12    1    1    2    0    0  0.98384147128E+00 -0.60734863542E+00  0.23244801070E+00  0.11793423944E+01  0.00000000000E+00 0.  1.
         11    1    3    3    0    0 -0.64441602093E+01 -0.17334880490E+01  0.56293900852E+01  0.87305334667E+01  0.51100000000E-03 0. -1.
        -11    1    3    3    0    0 -0.26489132166E+02  0.22727408598E+02  0.15030289226E+02  0.38001563375E+02  0.51100000000E-03 0.  1.
         12    1    3    3    0    0  0.31949450904E+02 -0.20386571914E+02 -0.20892127322E+02  0.43276560763E+02  0.00000000000E+00 0. -1.
</event>
<event>
 7    1  0.2578619E-015  0.9000773E+02  0.7816164E-02  0.1186339E+00
        -11   -1    0    0    0    0  0.00000000000E+00  0.00000000000E+00  0.45593999997E+02  0.45594000000E+02  0.51100000000E-03 0.  1.
         11   -1    0    0    0    0 -0.00000000000E+00 -0.00000000000E+00 -0.45593999997E+02  0.45594000000E+02  0.51100000000E-03 0. -1.
    9900012    2    1    2    0    0  0.34976326330E+00  0.13349956370E+00 -0.11193196061E+01  0.90007731872E+02  0.89999993133E+02 0.  0.
        -12    1    1    2    0    0 -0.34976326330E+00 -0.13349956370E+00  0.11193196061E+01  0.11802681282E+01  0.00000000000E+00 0.  1.
         11    1    3    3    0    0 -0.22292836869E+02  0.16941835173E+02 -0.26974687096E+02  0.38879687485E+02  0.51100000000E-03 0. -1.
        -11    1    3    3    0    0 -0.40458495119E+01  0.70199632950E+01  0.68812510653E+01  0.10630164600E+02  0.51100000000E-03 0.  1.
        -12    1    3    3    0    0  0.26688449645E+02 -0.23828298905E+02  0.18974116425E+02  0.40497879787E+02  0.00000000000E+00 0.  1.
</event>
<event>
 7    1  0.2578619E-015  0.9000786E+02  0.7816164E-02  0.1186339E+00
        -11   -1    0    0    0    0  0.00000000000E+00  0.00000000000E+00  0.45593999997E+02  0.45594000000E+02  0.51100000000E-03 0. -1.
         11   -1    0    0    0    0 -0.00000000000E+00 -0.00000000000E+00 -0.45593999997E+02  0.45594000000E+02  0.51100000000E-03 0.  1.
    9900012    2    1    2    0    0 -0.15545748826E+00  0.50274247514E+00  0.10563220551E+01  0.90007858775E+02  0.90000121711E+02 0.  0.
        -12    1    1    2    0    0  0.15545748826E+00 -0.50274247514E+00 -0.10563220551E+01  0.11801412250E+01  0.00000000000E+00 0.  1.
         11    1    3    3    0    0  0.25795184719E+02 -0.18827708210E+02  0.18433798626E+02  0.36873826533E+02  0.51100000000E-03 0. -1.
        -11    1    3    3    0    0 -0.64792625230E+01 -0.98950873950E+01  0.34296584375E+01  0.12314875341E+02  0.51100000000E-03 0.  1.
        -12    1    3    3    0    0 -0.19471379684E+02  0.29225538080E+02 -0.20807135009E+02  0.40819156901E+02  0.00000000000E+00 0.  1.
</event>
<event>
 7    1  0.2578619E-015  0.9000778E+02  0.7816164E-02  0.1186339E+00
        -11   -1    0    0    0    0  0.00000000000E+00  0.00000000000E+00  0.45593999997E+02  0.45594000000E+02  0.51100000000E-03 0. -1.
         11   -1    0    0    0    0 -0.00000000000E+00 -0.00000000000E+00 -0.45593999997E+02  0.45594000000E+02  0.51100000000E-03 0.  1.
    9900012    2    1    2    0    0  0.10787098507E+01  0.23565925483E+00  0.41686867498E+00  0.90007775564E+02  0.90000037402E+02 0.  0.
        -12    1    1    2    0    0 -0.10787098507E+01 -0.23565925483E+00 -0.41686867498E+00  0.11802244357E+01  0.00000000000E+00 0.  1.
         11    1    3    3    0    0  0.78615390031E+01 -0.46072328797E+01 -0.25473274165E+01  0.94614622302E+01  0.51100000000E-03 0. -1.
        -11    1    3    3    0    0  0.27325298577E+02 -0.21307450111E+02 -0.92520766980E+01  0.35864750049E+02  0.51100000000E-03 0.  1.
         12    1    3    3    0    0 -0.34108127730E+02  0.26150342245E+02  0.12216272790E+02  0.44681563286E+02  0.00000000000E+00 0. -1.
</event>
<event>
 7    1  0.2578619E-015  0.9000781E+02  0.7816164E-02  0.1186339E+00
        -11   -1    0    0    0    0  0.00000000000E+00  0.00000000000E+00  0.45593999997E+02  0.45594000000E+02  0.51100000000E-03 0. -1.
         11   -1    0    0    0    0 -0.00000000000E+00 -0.00000000000E+00 -0.45593999997E+02  0.45594000000E+02  0.51100000000E-03 0.  1.
    9900012    2    1    2    0    0 -0.59325551034E-01 -0.66911870337E+00  0.97036614094E+00  0.90007809419E+02  0.90000071703E+02 0.  0.
        -12    1    1    2    0    0  0.59325551034E-01  0.66911870337E+00 -0.97036614094E+00  0.11801905811E+01  0.00000000000E+00 0.  1.
         11    1    3    3    0    0  0.18982981801E+02  0.29163210422E+02  0.22911445804E+02  0.41662702616E+02  0.51100000000E-03 0. -1.
        -11    1    3    3    0    0 -0.83425705583E+01  0.23176696181E+01 -0.15419803542E+01  0.87947586466E+01  0.51100000000E-03 0.  1.
        -12    1    3    3    0    0 -0.10699736793E+02 -0.32149998744E+02 -0.20399099309E+02  0.39550348156E+02  0.00000000000E+00 0.  1.
</event>
<event>
 7    1  0.2578619E-015  0.9000772E+02  0.7816164E-02  0.1186339E+00
        -11   -1    0    0    0    0  0.00000000000E+00  0.00000000000E+00  0.45593999997E+02  0.45594000000E+02  0.51100000000E-03 0.  1.
         11   -1    0    0    0    0 -0.00000000000E+00 -0.00000000000E+00 -0.45593999997E+02  0.45594000000E+02  0.51100000000E-03 0. -1.
    9900012    2    1    2    0    0  0.10469643432E+01 -0.29672374597E+00 -0.45704479855E+00  0.90007716447E+02  0.89999977504E+02 0.  0.
        -12    1    1    2    0    0 -0.10469643432E+01  0.29672374597E+00  0.45704479855E+00  0.11802835529E+01  0.00000000000E+00 0.  1.
         11    1    3    3    0    0 -0.25859997058E+02  0.17955402231E+02 -0.64199296929E+01  0.32130225873E+02  0.51100000000E-03 0. -1.
        -11    1    3    3    0    0 -0.38327959562E+01 -0.23931770970E+02 -0.50069492044E+01  0.24748525758E+02  0.51100000000E-03 0.  1.
        -12    1    3    3    0    0  0.30739757358E+02  0.56796449928E+01  0.10969834099E+02  0.33128964816E+02  0.00000000000E+00 0.  1.
</event>
<event>
 7    1  0.2578619E-015  0.9000776E+02  0.7816164E-02  0.1186339E+00
        -11   -1    0    0    0    0  0.00000000000E+00  0.00000000000E+00  0.45593999997E+02  0.45594000000E+02  0.51100000000E-03 0.  1.
         11   -1    0    0    0    0 -0.00000000000E+00 -0.00000000000E+00 -0.45593999997E+02  0.45594000000E+02  0.51100000000E-03 0. -1.
    9900012    2    1    2    0    0  0.84565801462E+00  0.82169277064E+00  0.51486835228E-01  0.90007759609E+02  0.90000021236E+02 0.  0.
        -12    1    1    2    0    0 -0.84565801462E+00 -0.82169277064E+00 -0.51486835228E-01  0.11802403913E+01  0.00000000000E+00 0.  1.
         11    1    3    3    0    0 -0.12446467483E+02 -0.20087597842E+01  0.10789026336E+02  0.16593756603E+02  0.51100000000E-03 0. -1.
        -11    1    3    3    0    0 -0.15922651834E+02 -0.20081085412E+02  0.13607881761E+02  0.29016465653E+02  0.51100000000E-03 0.  1.
         12    1    3    3    0    0  0.29214777331E+02  0.22911537967E+02 -0.24345421261E+02  0.44397537352E+02  0.00000000000E+00 0. -1.
</event>
<event>
 7    1  0.2578619E-015  0.9000783E+02  0.7816164E-02  0.1186339E+00
        -11   -1    0    0    0    0  0.00000000000E+00  0.00000000000E+00  0.45593999997E+02  0.45594000000E+02  0.51100000000E-03 0. -1.
         11   -1    0    0    0    0 -0.00000000000E+00 -0.00000000000E+00 -0.45593999997E+02  0.45594000000E+02  0.51100000000E-03 0.  1.
    9900012    2    1    2    0    0 -0.10878315049E+01  0.33956972270E+00 -0.30676489160E+00  0.90007834894E+02  0.90000097514E+02 0.  0.
        -12    1    1    2    0    0  0.10878315049E+01 -0.33956972270E+00  0.30676489160E+00  0.11801651064E+01  0.00000000000E+00 0.  1.
         11    1    3    3    0    0  0.36360344254E+01 -0.38192049304E+02  0.12000292804E+02  0.40197766157E+02  0.51100000000E-03 0. -1.
        -11    1    3    3    0    0 -0.81092485029E+01  0.36766920323E+01  0.55592474292E+01  0.10496818938E+02  0.51100000000E-03 0.  1.
        -12    1    3    3    0    0  0.33853825726E+01  0.34854926994E+02 -0.17866305125E+02  0.39313249799E+02  0.00000000000E+00 0.  1.
</event>
<event>
 7    1  0.2578619E-015  0.9000766E+02  0.7816164E-02  0.1186339E+00
        -11   -1    0    0    0    0  0.00000000000E+00  0.00000000000E+00  0.45593999997E+02  0.45594000000E+02  0.51100000000E-03 0. -1.
         11   -1    0    0    0    0 -0.00000000000E+00 -0.00000000000E+00 -0.45593999997E+02  0.45594000000E+02  0.51100000000E-03 0.  1.
    9900012    2    1    2    0    0  0.67960127987E+00  0.82352229130E+00  0.50314721312E+00  0.90007659379E+02  0.89999919683E+02 0.  0.
        -12    1    1    2    0    0 -0.67960127987E+00 -0.82352229130E+00 -0.50314721312E+00  0.11803406212E+01  0.00000000000E+00 0.  1.
         11    1    3    3    0    0 -0.28342901304E+02  0.92876114914E+01  0.19948981463E+02  0.35882330515E+02  0.51100000000E-03 0. -1.
        -11    1    3    3    0    0 -0.79254190549E+01  0.47573464385E+01  0.19239726777E+01  0.94417309567E+01  0.51100000000E-03 0.  1.
        -12    1    3    3    0    0  0.36947921639E+02 -0.13221435639E+02 -0.21369806927E+02  0.44683597907E+02  0.00000000000E+00 0.  1.
</event>
<event>
 7    1  0.2578619E-015  0.9000751E+02  0.7816164E-02  0.1186340E+00
        -11   -1    0    0    0    0  0.00000000000E+00  0.00000000000E+00  0.45593999997E+02  0.45594000000E+02  0.51100000000E-03 0. -1.
         11   -1    0    0    0    0 -0.00000000000E+00 -0.00000000000E+00 -0.45593999997E+02  0.45594000000E+02  0.51100000000E-03 0.  1.
    9900012    2    1    2    0    0 -0.21905028857E+00  0.74376652400E+00  0.89016567090E+00  0.90007505785E+02  0.89999764061E+02 0.  0.
        -12    1    1    2    0    0  0.21905028857E+00 -0.74376652400E+00 -0.89016567090E+00  0.11804942155E+01  0.00000000000E+00 0.  1.
         11    1    3    3    0    0  0.17116350672E+01  0.42408913707E+02 -0.37922720826E+00  0.42445134820E+02  0.51100000000E-03 0. -1.
        -11    1    3    3    0    0  0.51427446084E+01 -0.38948550573E+01  0.60438041970E+01  0.88399823222E+01  0.51100000000E-03 0.  1.
        -12    1    3    3    0    0 -0.70734299641E+01 -0.37770292125E+02 -0.47744113178E+01  0.38722388642E+02  0.00000000000E+00 0.  1.
</event>
<event>
 7    1  0.2578619E-015  0.9000773E+02  0.7816164E-02  0.1186339E+00
        -11   -1    0    0    0    0  0.00000000000E+00  0.00000000000E+00  0.45593999997E+02  0.45594000000E+02  0.51100000000E-03 0.  1.
         11   -1    0    0    0    0 -0.00000000000E+00 -0.00000000000E+00 -0.45593999997E+02  0.45594000000E+02  0.51100000000E-03 0. -1.
    9900012    2    1    2    0    0 -0.11261953581E+01 -0.35182118317E+00  0.30830171364E-01  0.90007726884E+02  0.89999988079E+02 0.  0.
        -12    1    1    2    0    0  0.11261953581E+01  0.35182118317E+00 -0.30830171364E-01  0.11802731163E+01  0.00000000000E+00 0.  1.
         11    1    3    3    0    0  0.17026578417E+02  0.32975182817E+01 -0.12892759465E+02  0.21610211620E+02  0.51100000000E-03 0. -1.
        -11    1    3    3    0    0  0.16193389688E+02 -0.18202292317E+02 -0.79814274212E+01  0.25636936227E+02  0.51100000000E-03 0.  1.
         12    1    3    3    0    0 -0.34346163463E+02  0.14552952852E+02  0.20905017057E+02  0.42760579036E+02  0.00000000000E+00 0. -1.
</event>
<event>
 7    1  0.2578619E-015  0.9000770E+02  0.7816164E-02  0.1186339E+00
        -11   -1    0    0    0    0  0.00000000000E+00  0.00000000000E+00  0.45593999997E+02  0.45594000000E+02  0.51100000000E-03 0.  1.
         11   -1    0    0    0    0 -0.00000000000E+00 -0.00000000000E+00 -0.45593999997E+02  0.45594000000E+02  0.51100000000E-03 0. -1.
    9900012    2    1    2    0    0 -0.23681905264E+00  0.10530948429E+01 -0.47750948194E+00  0.90007700327E+02  0.89999961172E+02 0.  0.
        -12    1    1    2    0    0  0.23681905264E+00 -0.10530948429E+01  0.47750948194E+00  0.11802996726E+01  0.00000000000E+00 0.  1.
         11    1    3    3    0    0 -0.54809154592E+01 -0.49961269151E+01  0.56522140739E+01  0.93246577750E+01  0.51100000000E-03 0. -1.
        -11    1    3    3    0    0 -0.82973471168E+01 -0.20106037416E+02  0.28094554934E+02  0.35530307161E+02  0.51100000000E-03 0.  1.
         12    1    3    3    0    0  0.13541443523E+02  0.26155259174E+02 -0.34224278490E+02  0.45152735391E+02  0.00000000000E+00 0. -1.
</event>
<event>
 7    1  0.2578619E-015  0.9000762E+02  0.7816164E-02  0.1186339E+00
        -11   -1    0    0    0    0  0.00000000000E+00  0.00000000000E+00  0.45593999997E+02  0.45594000000E+02  0.51100000000E-03 0.  1.
         11   -1    0    0    0    0 -0.00000000000E+00 -0.00000000000E+00 -0.45593999997E+02  0.45594000000E+02  0.51100000000E-03 0. -1.
    9900012    2    1    2    0    0  0.21073546169E-01 -0.23413798572E+00 -0.11567337714E+01  0.90007619676E+02  0.89999879456E+02 0.  0.
        -12    1    1    2    0    0 -0.21073546169E-01  0.23413798572E+00  0.11567337714E+01  0.11803803237E+01  0.00000000000E+00 0.  1.
         11    1    3    3    0    0 -0.23794098827E+01  0.38193395838E+01  0.66817100418E+01  0.80556933649E+01  0.51100000000E-03 0. -1.
        -11    1    3    3    0    0 -0.20129895852E+02 -0.29109633943E+02  0.17795254070E+02  0.39613817829E+02  0.51100000000E-03 0.  1.
         12    1    3    3    0    0  0.22530379281E+02  0.25056156373E+02 -0.25633697884E+02  0.42338108483E+02  0.00000000000E+00 0. -1.
</event>
<event>
 7    1  0.2578619E-015  0.9000777E+02  0.7816164E-02  0.1186339E+00
        -11   -1    0    0    0    0  0.00000000000E+00  0.00000000000E+00  0.45593999997E+02  0.45594000000E+02  0.51100000000E-03 0. -1.
         11   -1    0    0    0    0 -0.00000000000E+00 -0.00000000000E+00 -0.45593999997E+02  0.45594000000E+02  0.51100000000E-03 0.  1.
    9900012    2    1    2    0    0  0.25363796444E+00  0.89748671231E+00  0.72327414666E+00  0.90007771163E+02  0.90000032943E+02 0.  0.
        -12    1    1    2    0    0 -0.25363796444E+00 -0.89748671231E+00 -0.72327414666E+00  0.11802288367E+01  0.00000000000E+00 0.  1.
         11    1    3    3    0    0  0.20759868781E+02 -0.15695605103E+02  0.20929991234E+02  0.33397435601E+02  0.51100000000E-03 0. -1.
        -11    1    3    3    0    0  0.71901473186E+01  0.23297677775E+02 -0.96120430885E+01  0.26208231164E+02  0.51100000000E-03 0.  1.
        -12    1    3    3    0    0 -0.27696378136E+02 -0.67045859591E+01 -0.10594673999E+02  0.30402104399E+02  0.00000000000E+00 0.  1.
</event>
<event>
 7    1  0.3427286E-015  0.9000760E+02  0.7816164E-02  0.1186339E+00
        -11   -1    0    0    0    0  0.00000000000E+00  0.00000000000E+00  0.45593999997E+02  0.45594000000E+02  0.51100000000E-03 0.  1.
         11   -1    0    0    0    0 -0.00000000000E+00 -0.00000000000E+00 -0.45593999997E+02  0.45594000000E+02  0.51100000000E-03 0. -1.
    9900012    2    1    2    0    0  0.25665279932E+00 -0.11483166863E+01 -0.94058873899E-01  0.90007597974E+02  0.89999857467E+02 0.  0.
        -12    1    1    2    0    0 -0.25665279932E+00  0.11483166863E+01  0.94058873899E-01  0.11804020261E+01  0.00000000000E+00 0.  1.
         11    1    3    3    0    0 -0.41830294595E+01  0.54055902614E+01  0.67285899787E+01  0.95912493918E+01  0.51100000000E-03 0. -1.
        -11    1    3    3    0    0  0.12387352764E+01 -0.34797832699E+02  0.20982605054E+02  0.40653331238E+02  0.51100000000E-03 0.  1.
         12    1    3    3    0    0  0.32009469824E+01  0.28243925752E+02 -0.27805253907E+02  0.39763017344E+02  0.00000000000E+00 0. -1.
</event>
<event>
 7    1  0.2578619E-015  0.9000787E+02  0.7816164E-02  0.1186339E+00
        -11   -1    0    0    0    0  0.00000000000E+00  0.00000000000E+00  0.45593999997E+02  0.45594000000E+02  0.51100000000E-03 0. -1.
         11   -1    0    0    0    0 -0.00000000000E+00 -0.00000000000E+00 -0.45593999997E+02  0.45594000000E+02  0.51100000000E-03 0.  1.
    9900012    2    1    2    0    0 -0.10433729600E+01  0.25789338199E-01  0.55082028122E+00  0.90007874919E+02  0.90000138068E+02 0.  0.
        -12    1    1    2    0    0  0.10433729600E+01 -0.25789338199E-01 -0.55082028122E+00  0.11801250806E+01  0.00000000000E+00 0.  1.
         11    1    3    3    0    0  0.84674301606E+01  0.30465317730E+01  0.79203842158E+01  0.11987961284E+02  0.51100000000E-03 0. -1.
        -11    1    3    3    0    0  0.20237782206E+02  0.18800094007E+02  0.18246823423E+02  0.33105255302E+02  0.51100000000E-03 0.  1.
         12    1    3    3    0    0 -0.29748585327E+02 -0.21820836442E+02 -0.25616387357E+02  0.44914658333E+02  0.00000000000E+00 0. -1.
</event>
<event>
 7    1  0.2578619E-015  0.9000760E+02  0.7816164E-02  0.1186339E+00
        -11   -1    0    0    0    0  0.00000000000E+00  0.00000000000E+00  0.45593999997E+02  0.45594000000E+02  0.51100000000E-03 0. -1.
         11   -1    0    0    0    0 -0.00000000000E+00 -0.00000000000E+00 -0.45593999997E+02  0.45594000000E+02  0.51100000000E-03 0.  1.
    9900012    2    1    2    0    0 -0.74493993032E+00 -0.76449325730E+00  0.50393247679E+00  0.90007604566E+02  0.89999864146E+02 0.  0.
        -12    1    1    2    0    0  0.74493993032E+00  0.76449325730E+00 -0.50393247679E+00  0.11803954343E+01  0.00000000000E+00 0.  1.
         11    1    3    3    0    0  0.53602744149E+01  0.76083568590E+01  0.13350569630E+01  0.94022344819E+01  0.51100000000E-03 0. -1.
        -11    1    3    3    0    0  0.29245361414E+02 -0.39214291745E+01  0.23279343425E+02  0.37584526092E+02  0.51100000000E-03 0.  1.
         12    1    3    3    0    0 -0.35350575759E+02 -0.44514209418E+01 -0.24110467911E+02  0.43020843992E+02  0.00000000000E+00 0. -1.
</event>
<event>
 7    1  0.2578619E-015  0.9000787E+02  0.7816164E-02  0.1186339E+00
        -11   -1    0    0    0    0  0.00000000000E+00  0.00000000000E+00  0.45593999997E+02  0.45594000000E+02  0.51100000000E-03 0.  1.
         11   -1    0    0    0    0 -0.00000000000E+00 -0.00000000000E+00 -0.45593999997E+02  0.45594000000E+02  0.51100000000E-03 0. -1.
    9900012    2    1    2    0    0 -0.11464785711E+01  0.27629478587E+00 -0.44264748672E-01  0.90007868105E+02  0.90000131163E+02 0.  0.
        -12    1    1    2    0    0  0.11464785711E+01 -0.27629478587E+00  0.44264748672E-01  0.11801318954E+01  0.00000000000E+00 0.  1.
         11    1    3    3    0    0 -0.11705533876E+02  0.53903572998E+01  0.18714596827E+01  0.13022205526E+02  0.51100000000E-03 0. -1.
        -11    1    3    3    0    0 -0.27134513050E+01 -0.67997415941E+00  0.36238447707E+02  0.36346255314E+02  0.51100000000E-03 0.  1.
         12    1    3    3    0    0  0.13272506610E+02 -0.44340883545E+01 -0.38154172139E+02  0.40639407265E+02  0.00000000000E+00 0. -1.
</event>
<event>
 7    1  0.2578619E-015  0.9000765E+02  0.7816164E-02  0.1186339E+00
        -11   -1    0    0    0    0  0.00000000000E+00  0.00000000000E+00  0.45593999997E+02  0.45594000000E+02  0.51100000000E-03 0.  1.
         11   -1    0    0    0    0 -0.00000000000E+00 -0.00000000000E+00 -0.45593999997E+02  0.45594000000E+02  0.51100000000E-03 0. -1.
    9900012    2    1    2    0    0  0.56791842092E+00  0.66002657058E+00 -0.79691267521E+00  0.90007645723E+02  0.89999905847E+02 0.  0.
        -12    1    1    2    0    0 -0.56791842092E+00 -0.66002657058E+00  0.79691267521E+00  0.11803542767E+01  0.00000000000E+00 0.  1.
         11    1    3    3    0    0  0.18406079951E+01  0.11694721041E+02  0.26601172447E+01  0.12133860146E+02  0.51100000000E-03 0. -1.
        -11    1    3    3    0    0 -0.24484106089E+02  0.23820024893E+02  0.66368692406E+01  0.34798176252E+02  0.51100000000E-03 0.  1.
         12    1    3    3    0    0  0.23211416514E+02 -0.34854719364E+02 -0.10093899161E+02  0.43075609326E+02  0.00000000000E+00 0. -1.
</event>
<event>
 7    1  0.2578619E-015  0.9000775E+02  0.7816164E-02  0.1186339E+00
        -11   -1    0    0    0    0  0.00000000000E+00  0.00000000000E+00  0.45593999997E+02  0.45594000000E+02  0.51100000000E-03 0.  1.
         11   -1    0    0    0    0 -0.00000000000E+00 -0.00000000000E+00 -0.45593999997E+02  0.45594000000E+02  0.51100000000E-03 0. -1.
    9900012    2    1    2    0    0 -0.66789961460E+00 -0.55679238181E+00 -0.79805615069E+00  0.90007745252E+02  0.90000006689E+02 0.  0.
        -12    1    1    2    0    0  0.66789961460E+00  0.55679238181E+00  0.79805615069E+00  0.11802547485E+01  0.00000000000E+00 0.  1.
         11    1    3    3    0    0  0.19024385675E+02  0.24755968896E+02  0.28497802671E+02  0.42271858294E+02  0.51100000000E-03 0. -1.
        -11    1    3    3    0    0  0.28968164986E+01 -0.95046525722E+01 -0.57582322826E+01  0.11484215499E+02  0.51100000000E-03 0.  1.
        -12    1    3    3    0    0 -0.22589101788E+02 -0.15808108706E+02 -0.23537626539E+02  0.36251671459E+02  0.00000000000E+00 0.  1.
</event>
<event>
 7    1  0.2578619E-015  0.9000771E+02  0.7816164E-02  0.1186339E+00
        -11   -1    0    0    0    0  0.00000000000E+00  0.00000000000E+00  0.45593999997E+02  0.45594000000E+02  0.51100000000E-03 0. -1.
         11   -1    0    0    0    0 -0.00000000000E+00 -0.00000000000E+00 -0.45593999997E+02  0.45594000000E+02  0.51100000000E-03 0.  1.
    9900012    2    1    2    0    0 -0.11575986572E+01  0.11474159564E-01  0.23001456575E+00  0.90007714862E+02  0.89999975898E+02 0.  0.
        -12    1    1    2    0    0  0.11575986572E+01 -0.11474159564E-01 -0.23001456575E+00  0.11802851384E+01  0.00000000000E+00 0.  1.
         11    1    3    3    0    0  0.63254560682E+01 -0.25706027966E+02  0.33817152448E+02  0.42946607180E+02  0.51100000000E-03 0. -1.
        -11    1    3    3    0    0 -0.59316448896E+01  0.95134662251E+01 -0.18087351069E+01  0.11356142552E+02  0.51100000000E-03 0.  1.
        -12    1    3    3    0    0 -0.15514098358E+01  0.16204035901E+02 -0.31778402776E+02  0.35704965130E+02  0.00000000000E+00 0.  1.
</event>
<event>
 7    1  0.2578619E-015  0.9000762E+02  0.7816164E-02  0.1186339E+00
        -11   -1    0    0    0    0  0.00000000000E+00  0.00000000000E+00  0.45593999997E+02  0.45594000000E+02  0.51100000000E-03 0. -1.
         11   -1    0    0    0    0 -0.00000000000E+00 -0.00000000000E+00 -0.45593999997E+02  0.45594000000E+02  0.51100000000E-03 0.  1.
    9900012    2    1    2    0    0  0.80454573825E+00 -0.85879265619E+00 -0.92071996407E-01  0.90007620432E+02  0.89999880222E+02 0.  0.
        -12    1    1    2    0    0 -0.80454573825E+00  0.85879265619E+00  0.92071996407E-01  0.11803795677E+01  0.00000000000E+00 0.  1.
         11    1    3    3    0    0 -0.28762149439E+02 -0.22146975519E+02  0.19653035803E+02  0.41279432912E+02  0.51100000000E-03 0. -1.
        -11    1    3    3    0    0 -0.31447025845E+01  0.84386610403E+01 -0.14993187227E+01  0.91295186834E+01  0.51100000000E-03 0.  1.
        -12    1    3    3    0    0  0.32711397762E+02  0.12849521822E+02 -0.18245789077E+02  0.39598668837E+02  0.00000000000E+00 0.  1.
</event>
<event>
 7    1  0.2578619E-015  0.9000775E+02  0.7816164E-02  0.1186339E+00
        -11   -1    0    0    0    0  0.00000000000E+00  0.00000000000E+00  0.45593999997E+02  0.45594000000E+02  0.51100000000E-03 0.  1.
         11   -1    0    0    0    0 -0.00000000000E+00 -0.00000000000E+00 -0.45593999997E+02  0.45594000000E+02  0.51100000000E-03 0. -1.
    9900012    2    1    2    0    0  0.27908342145E+00 -0.15180358867E+00 -0.11366829067E+01  0.90007754298E+02  0.90000015855E+02 0.  0.
        -12    1    1    2    0    0 -0.27908342145E+00  0.15180358867E+00  0.11366829067E+01  0.11802457016E+01  0.00000000000E+00 0.  1.
         11    1    3    3    0    0 -0.26782856588E+02  0.19269179889E+02 -0.20312986958E+02  0.38745840293E+02  0.51100000000E-03 0. -1.
        -11    1    3    3    0    0  0.18856007359E+01  0.87004854639E+01 -0.49869571613E-01  0.89026077459E+01  0.51100000000E-03 0.  1.
        -12    1    3    3    0    0  0.25176339274E+02 -0.28121468941E+02  0.19226173622E+02  0.42359306260E+02  0.00000000000E+00 0.  1.
</event>
<event>
 7    1  0.2578619E-015  0.9000772E+02  0.7816164E-02  0.1186339E+00
        -11   -1    0    0    0    0  0.00000000000E+00  0.00000000000E+00  0.45593999997E+02  0.45594000000E+02  0.51100000000E-03 0.  1.
         11   -1    0    0    0    0 -0.00000000000E+00 -0.00000000000E+00 -0.45593999997E+02  0.45594000000E+02  0.51100000000E-03 0. -1.
    9900012    2    1    2    0    0  0.72858436805E-01  0.10133612679E+01 -0.60070329272E+00  0.90007722974E+02  0.89999984118E+02 0.  0.
        -12    1    1    2    0    0 -0.72858436805E-01 -0.10133612679E+01  0.60070329272E+00  0.11802770255E+01  0.00000000000E+00 0.  1.
         11    1    3    3    0    0  0.64978985365E+00  0.26287501504E+01 -0.40234639638E+02  0.40325659092E+02  0.51100000000E-03 0. -1.
        -11    1    3    3    0    0  0.81704323465E+01 -0.55282611320E+01  0.10438997722E+01  0.99200485315E+01  0.51100000000E-03 0.  1.
        -12    1    3    3    0    0 -0.87473637633E+01  0.39128722495E+01  0.38590036573E+02  0.39762015350E+02  0.00000000000E+00 0.  1.
</event>
<event>
 7    1  0.2578619E-015  0.9000768E+02  0.7816164E-02  0.1186339E+00
        -11   -1    0    0    0    0  0.00000000000E+00  0.00000000000E+00  0.45593999997E+02  0.45594000000E+02  0.51100000000E-03 0. -1.
         11   -1    0    0    0    0 -0.00000000000E+00 -0.00000000000E+00 -0.45593999997E+02  0.45594000000E+02  0.51100000000E-03 0.  1.
    9900012    2    1    2    0    0  0.80492792848E+00 -0.29492094768E+00  0.81134241950E+00  0.90007676376E+02  0.89999936904E+02 0.  0.
        -12    1    1    2    0    0 -0.80492792848E+00  0.29492094768E+00 -0.81134241950E+00  0.11803236239E+01  0.00000000000E+00 0.  1.
         11    1    3    3    0    0 -0.30078255776E+01 -0.31806048631E+02 -0.20268809674E+02  0.37835121119E+02  0.51100000000E-03 0. -1.
        -11    1    3    3    0    0  0.25948618754E+01 -0.20028459150E+00 -0.84389687171E+01  0.88311729312E+01  0.51100000000E-03 0.  1.
        -12    1    3    3    0    0  0.12178916307E+01  0.31711412275E+02  0.29519120810E+02  0.43341382326E+02  0.00000000000E+00 0.  1.
</event>
<event>
 7    1  0.2578619E-015  0.9000773E+02  0.7816164E-02  0.1186339E+00
        -11   -1    0    0    0    0  0.00000000000E+00  0.00000000000E+00  0.45593999997E+02  0.45594000000E+02  0.51100000000E-03 0. -1.
         11   -1    0    0    0    0 -0.00000000000E+00 -0.00000000000E+00 -0.45593999997E+02  0.45594000000E+02  0.51100000000E-03 0.  1.
    9900012    2    1    2    0    0  0.11262032640E+01 -0.30826175293E+00 -0.17224188683E+00  0.90007734620E+02  0.89999995917E+02 0.  0.
        -12    1    1    2    0    0 -0.11262032640E+01  0.30826175293E+00  0.17224188683E+00  0.11802653803E+01  0.00000000000E+00 0.  1.
         11    1    3    3    0    0 -0.11657757320E+00  0.31878154949E+01  0.73167934576E+01  0.79819311399E+01  0.51100000000E-03 0. -1.
        -11    1    3    3    0    0 -0.36267642255E+02 -0.10074544721E+02 -0.19103533103E+02  0.42211175100E+02  0.51100000000E-03 0.  1.
         12    1    3    3    0    0  0.37510423092E+02  0.65784674729E+01  0.11614497758E+02  0.39814628380E+02  0.00000000000E+00 0. -1.
</event>
<event>
 7    1  0.2578619E-015  0.9000798E+02  0.7816164E-02  0.1186339E+00
        -11   -1    0    0    0    0  0.00000000000E+00  0.00000000000E+00  0.45593999997E+02  0.45594000000E+02  0.51100000000E-03 0.  1.
         11   -1    0    0    0    0 -0.00000000000E+00 -0.00000000000E+00 -0.45593999997E+02  0.45594000000E+02  0.51100000000E-03 0. -1.
    9900012    2    1    2    0    0 -0.11108670134E+01 -0.22399594140E+00  0.32900303410E+00  0.90007981907E+02  0.90000246468E+02 0.  0.
        -12    1    1    2    0    0  0.11108670134E+01  0.22399594140E+00 -0.32900303410E+00  0.11800180930E+01  0.00000000000E+00 0.  1.
         11    1    3    3    0    0  0.24008782203E+01 -0.76128645103E+01  0.47947224869E+01  0.93117821210E+01  0.51100000000E-03 0. -1.
        -11    1    3    3    0    0 -0.17444186675E+02  0.80188691363E+01  0.34404934124E+02  0.39399256380E+02  0.51100000000E-03 0.  1.
         12    1    3    3    0    0  0.13932441441E+02 -0.63000056738E+00 -0.38870653577E+02  0.41296943406E+02  0.00000000000E+00 0. -1.
</event>
<event>
 7    1  0.2578619E-015  0.9000769E+02  0.7816164E-02  0.1186339E+00
        -11   -1    0    0    0    0  0.00000000000E+00  0.00000000000E+00  0.45593999997E+02  0.45594000000E+02  0.51100000000E-03 0. -1.
         11   -1    0    0    0    0 -0.00000000000E+00 -0.00000000000E+00 -0.45593999997E+02  0.45594000000E+02  0.51100000000E-03 0.  1.
    9900012    2    1    2    0    0 -0.70731969672E+00 -0.91544485482E+00  0.23406454400E+00  0.90007692139E+02  0.89999952875E+02 0.  0.
        -12    1    1    2    0    0  0.70731969672E+00  0.91544485482E+00 -0.23406454400E+00  0.11803078608E+01  0.00000000000E+00 0.  1.
         11    1    3    3    0    0  0.20120659964E+02 -0.25175715103E+02  0.28723713307E+02  0.43170699493E+02  0.51100000000E-03 0. -1.
        -11    1    3    3    0    0 -0.96428481913E+01  0.31688138040E+01 -0.66187128995E+00  0.10171724339E+02  0.51100000000E-03 0.  1.
        -12    1    3    3    0    0 -0.11185131469E+02  0.21091456444E+02 -0.27827777473E+02  0.36665268307E+02  0.00000000000E+00 0.  1.
</event>
<event>
 7    1  0.2578619E-015  0.9000779E+02  0.7816164E-02  0.1186339E+00
        -11   -1    0    0    0    0  0.00000000000E+00  0.00000000000E+00  0.45593999997E+02  0.45594000000E+02  0.51100000000E-03 0.  1.
         11   -1    0    0    0    0 -0.00000000000E+00 -0.00000000000E+00 -0.45593999997E+02  0.45594000000E+02  0.51100000000E-03 0. -1.
    9900012    2    1    2    0    0  0.77475930927E+00 -0.25177174128E+00 -0.85396173274E+00  0.90007791697E+02  0.90000053748E+02 0.  0.
        -12    1    1    2    0    0 -0.77475930927E+00  0.25177174128E+00  0.85396173274E+00  0.11802083028E+01  0.00000000000E+00 0.  1.
         11    1    3    3    0    0 -0.15800164921E+02  0.24372587966E+02 -0.22684760981E+02  0.36854669131E+02  0.51100000000E-03 0. -1.
        -11    1    3    3    0    0  0.15019596633E+01  0.30524200350E+00 -0.99344359556E+01  0.10051968639E+02  0.51100000000E-03 0.  1.
        -12    1    3    3    0    0  0.15072964567E+02 -0.24929601711E+02  0.31765235204E+02  0.43101153927E+02  0.00000000000E+00 0.  1.
</event>
<event>
 7    1  0.2578619E-015  0.9000784E+02  0.7816164E-02  0.1186339E+00
        -11   -1    0    0    0    0  0.00000000000E+00  0.00000000000E+00  0.45593999997E+02  0.45594000000E+02  0.51100000000E-03 0. -1.
         11   -1    0    0    0    0 -0.00000000000E+00 -0.00000000000E+00 -0.45593999997E+02  0.45594000000E+02  0.51100000000E-03 0.  1.
    9900012    2    1    2    0    0 -0.37024974229E-02 -0.98336286586E+00 -0.65250025100E+00  0.90007842039E+02  0.90000104754E+02 0.  0.
        -12    1    1    2    0    0  0.37024974229E-02  0.98336286586E+00  0.65250025100E+00  0.11801579606E+01  0.00000000000E+00 0.  1.
         11    1    3    3    0    0  0.69856150053E+01 -0.66634876143E+01 -0.31278140458E+01  0.10148108452E+02  0.51100000000E-03 0. -1.
        -11    1    3    3    0    0 -0.38227208882E+02 -0.36040936089E+01  0.19530260006E+02  0.43078301334E+02  0.51100000000E-03 0.  1.
         12    1    3    3    0    0  0.31237891380E+02  0.92842183573E+01 -0.17054946211E+02  0.36781432253E+02  0.00000000000E+00 0. -1.
</event>
<event>
 7    1  0.2578619E-015  0.9000772E+02  0.7816164E-02  0.1186339E+00
        -11   -1    0    0    0    0  0.00000000000E+00  0.00000000000E+00  0.45593999997E+02  0.45594000000E+02  0.51100000000E-03 0.  1.
         11   -1    0    0    0    0 -0.00000000000E+00 -0.00000000000E+00 -0.45593999997E+02  0.45594000000E+02  0.51100000000E-03 0. -1.
    9900012    2    1    2    0    0 -0.38881565058E+00 -0.11059378856E+01  0.13709983500E+00  0.90007715042E+02  0.89999976081E+02 0.  0.
        -12    1    1    2    0    0  0.38881565058E+00  0.11059378856E+01 -0.13709983500E+00  0.11802849578E+01  0.00000000000E+00 0.  1.
         11    1    3    3    0    0  0.39237480790E+02 -0.10080919596E+02 -0.40302819969E+01  0.40711767487E+02  0.51100000000E-03 0. -1.
        -11    1    3    3    0    0 -0.41814480356E+01  0.90844437496E+00 -0.95325448725E+01  0.10448884671E+02  0.51100000000E-03 0.  1.
        -12    1    3    3    0    0 -0.35444848405E+02  0.80665373353E+01  0.13699926704E+02  0.38847062885E+02  0.00000000000E+00 0.  1.
</event>
<event>
 7    1  0.2578619E-015  0.9000779E+02  0.7816164E-02  0.1186339E+00
        -11   -1    0    0    0    0  0.00000000000E+00  0.00000000000E+00  0.45593999997E+02  0.45594000000E+02  0.51100000000E-03 0. -1.
         11   -1    0    0    0    0 -0.00000000000E+00 -0.00000000000E+00 -0.45593999997E+02  0.45594000000E+02  0.51100000000E-03 0.  1.
    9900012    2    1    2    0    0 -0.54618441103E+00 -0.32048967664E+00 -0.99592643295E+00  0.90007787941E+02  0.90000049942E+02 0.  0.
        -12    1    1    2    0    0  0.54618441103E+00  0.32048967664E+00  0.99592643295E+00  0.11802120587E+01  0.00000000000E+00 0.  1.
         11    1    3    3    0    0  0.64560993783E+01  0.17753375900E+02  0.29177850874E+02  0.34759323310E+02  0.51100000000E-03 0. -1.
        -11    1    3    3    0    0  0.50718800520E+01  0.75938654687E+01  0.47200871957E+01  0.10279590625E+02  0.51100000000E-03 0.  1.
        -12    1    3    3    0    0 -0.12074163841E+02 -0.25667731045E+02 -0.34893864503E+02  0.44968874007E+02  0.00000000000E+00 0.  1.
</event>
<event>
 7    1  0.2578619E-015  0.9000774E+02  0.7816164E-02  0.1186339E+00
        -11   -1    0    0    0    0  0.00000000000E+00  0.00000000000E+00  0.45593999997E+02  0.45594000000E+02  0.51100000000E-03 0. -1.
         11   -1    0    0    0    0 -0.00000000000E+00 -0.00000000000E+00 -0.45593999997E+02  0.45594000000E+02  0.51100000000E-03 0.  1.
    9900012    2    1    2    0    0 -0.90303336112E+00  0.60792790611E+00  0.45604545123E+00  0.90007736028E+02  0.89999997343E+02 0.  0.
        -12    1    1    2    0    0  0.90303336112E+00 -0.60792790611E+00 -0.45604545123E+00  0.11802639721E+01  0.00000000000E+00 0.  1.
         11    1    3    3    0    0  0.11566747314E+02 -0.37081891589E+02 -0.18909280678E+01  0.38889997897E+02  0.51100000000E-03 0. -1.
        -11    1    3    3    0    0 -0.35334082155E+01 -0.88929762701E+00  0.10124894627E+02  0.10760544380E+02  0.51100000000E-03 0.  1.
        -12    1    3    3    0    0 -0.89363724601E+01  0.38579117122E+02 -0.77779211081E+01  0.40357193750E+02  0.00000000000E+00 0.  1.
</event>
<event>
 7    1  0.2578619E-015  0.9000765E+02  0.7816164E-02  0.1186339E+00
        -11   -1    0    0    0    0  0.00000000000E+00  0.00000000000E+00  0.45593999997E+02  0.45594000000E+02  0.51100000000E-03 0.  1.
         11   -1    0    0    0    0 -0.00000000000E+00 -0.00000000000E+00 -0.45593999997E+02  0.45594000000E+02  0.51100000000E-03 0. -1.
    9900012    2    1    2    0    0  0.33840203224E+00 -0.10916852850E+00 -0.11255165842E+01  0.90007652049E+02  0.89999912256E+02 0.  0.
        -12    1    1    2    0    0 -0.33840203224E+00  0.10916852850E+00  0.11255165842E+01  0.11803479506E+01  0.00000000000E+00 0.  1.
         11    1    3    3    0    0  0.27682389018E+02 -0.44824232608E+01 -0.27674639455E+02  0.39399142748E+02  0.51100000000E-03 0. -1.
        -11    1    3    3    0    0  0.27588390278E+01 -0.79341554144E+01 -0.34507058251E+00  0.84072045823E+01  0.51100000000E-03 0.  1.
        -12    1    3    3    0    0 -0.30102826013E+02  0.12307410147E+02  0.26894193454E+02  0.42201304719E+02  0.00000000000E+00 0.  1.
</event>
<event>
 7    1  0.2578619E-015  0.9000789E+02  0.7816164E-02  0.1186339E+00
        -11   -1    0    0    0    0  0.00000000000E+00  0.00000000000E+00  0.45593999997E+02  0.45594000000E+02  0.51100000000E-03 0.  1.
         11   -1    0    0    0    0 -0.00000000000E+00 -0.00000000000E+00 -0.45593999997E+02  0.45594000000E+02  0.51100000000E-03 0. -1.
    9900012    2    1    2    0    0 -0.68396584452E+00  0.92709260390E+00  0.25564823297E+00  0.90007887297E+02  0.90000150609E+02 0.  0.
        -12    1    1    2    0    0  0.68396584452E+00 -0.92709260390E+00 -0.25564823297E+00  0.11801127030E+01  0.00000000000E+00 0.  1.
         11    1    3    3    0    0  0.28692735274E+02  0.10742683410E+02 -0.23583981646E+02  0.38663710309E+02  0.51100000000E-03 0. -1.
        -11    1    3    3    0    0  0.74794483055E+01 -0.22447360676E+01  0.49175988077E+01  0.92284216019E+01  0.51100000000E-03 0.  1.
        -12    1    3    3    0    0 -0.36856149424E+02 -0.75708547381E+01  0.18922031071E+02  0.42115755386E+02  0.00000000000E+00 0.  1.
</event>
<event>
 7    1  0.2578619E-015  0.9000782E+02  0.7816164E-02  0.1186339E+00
        -11   -1    0    0    0    0  0.00000000000E+00  0.00000000000E+00  0.45593999997E+02  0.45594000000E+02  0.51100000000E-03 0.  1.
         11   -1    0    0    0    0 -0.00000000000E+00 -0.00000000000E+00 -0.45593999997E+02  0.45594000000E+02  0.51100000000E-03 0. -1.
    9900012    2    1    2    0    0 -0.94732673504E-01  0.11729614606E+01 -0.89552835638E-01  0.90007816719E+02  0.90000079099E+02 0.  0.
        -12    1    1    2    0    0  0.94732673504E-01 -0.11729614606E+01  0.89552835638E-01  0.11801832815E+01  0.00000000000E+00 0.  1.
         11    1    3    3    0    0  0.70362205844E+01  0.19800658476E+01  0.48231743810E+01  0.87574009983E+01  0.51100000000E-03 0. -1.
        -11    1    3    3    0    0  0.14014462979E+02 -0.34958603662E+02  0.90319239282E+01  0.38730928116E+02  0.51100000000E-03 0.  1.
         12    1    3    3    0    0 -0.21145416237E+02  0.34151499275E+02 -0.13944651145E+02  0.42519487604E+02  0.00000000000E+00 0. -1.
</event>
<event>
 7    1  0.2578619E-015  0.9000771E+02  0.7816164E-02  0.1186339E+00
        -11   -1    0    0    0    0  0.00000000000E+00  0.00000000000E+00  0.45593999997E+02  0.45594000000E+02  0.51100000000E-03 0. -1.
         11   -1    0    0    0    0 -0.00000000000E+00 -0.00000000000E+00 -0.45593999997E+02  0.45594000000E+02  0.51100000000E-03 0.  1.
    9900012    2    1    2    0    0 -0.99149770592E+00 -0.72901473551E-01 -0.63615944249E+00  0.90007711407E+02  0.89999972398E+02 0.  0.
        -12    1    1    2    0    0  0.99149770592E+00  0.72901473551E-01  0.63615944249E+00  0.11802885927E+01  0.00000000000E+00 0.  1.
         11    1    3    3    0    0 -0.82496169698E+01  0.28801965655E+01 -0.14114598551E+01  0.88512107414E+01  0.51100000000E-03 0. -1.
        -11    1    3    3    0    0 -0.36887207860E+02 -0.24714027452E+00 -0.86062002132E+00  0.36898073785E+02  0.51100000000E-03 0.  1.
         12    1    3    3    0    0  0.44145327124E+02 -0.27059577646E+01  0.16359204340E+01  0.44258426880E+02  0.00000000000E+00 0. -1.
</event>
<event>
 7    1  0.2578619E-015  0.9000775E+02  0.7816164E-02  0.1186339E+00
        -11   -1    0    0    0    0  0.00000000000E+00  0.00000000000E+00  0.45593999997E+02  0.45594000000E+02  0.51100000000E-03 0. -1.
         11   -1    0    0    0    0 -0.00000000000E+00 -0.00000000000E+00 -0.45593999997E+02  0.45594000000E+02  0.51100000000E-03 0.  1.
    9900012    2    1    2    0    0 -0.10029262678E+01  0.59346191689E+00  0.18690593640E+00  0.90007749190E+02  0.90000010679E+02 0.  0.
        -12    1    1    2    0    0  0.10029262678E+01 -0.59346191689E+00 -0.18690593640E+00  0.11802508100E+01  0.00000000000E+00 0.  1.
         11    1    3    3    0    0  0.75865409917E+01  0.21694407761E+02  0.88897756812E+01  0.24642058442E+02  0.51100000000E-03 0. -1.
        -11    1    3    3    0    0  0.40476424966E+01  0.19858916884E+02  0.39998269947E+01  0.20658136553E+02  0.51100000000E-03 0.  1.
        -12    1    3    3    0    0 -0.12637109756E+02 -0.40959862728E+02 -0.12702696740E+02  0.44707554196E+02  0.00000000000E+00 0.  1.
</event>
<event>
 7    1  0.2578619E-015  0.9000775E+02  0.7816164E-02  0.1186339E+00
        -11   -1    0    0    0    0  0.00000000000E+00  0.00000000000E+00  0.45593999997E+02  0.45594000000E+02  0.51100000000E-03 0.  1.
         11   -1    0    0    0    0 -0.00000000000E+00 -0.00000000000E+00 -0.45593999997E+02  0.45594000000E+02  0.51100000000E-03 0. -1.
    9900012    2    1    2    0    0 -0.36758790912E+00  0.98214373234E+00 -0.54153212952E+00  0.90007752471E+02  0.90000014004E+02 0.  0.
        -12    1    1    2    0    0  0.36758790912E+00 -0.98214373234E+00  0.54153212952E+00  0.11802475288E+01  0.00000000000E+00 0.  1.
         11    1    3    3    0    0  0.26251547558E+02  0.23704571081E+01 -0.30703059426E+02  0.40465302106E+02  0.51100000000E-03 0. -1.
        -11    1    3    3    0    0 -0.44575979074E+01 -0.48703323657E+01 -0.46875377612E+01  0.80971184368E+01  0.51100000000E-03 0.  1.
        -12    1    3    3    0    0 -0.22161537560E+02  0.34820189899E+01  0.34849065058E+02  0.41445331929E+02  0.00000000000E+00 0.  1.
</event>
<event>
 7    1  0.2578619E-015  0.9000772E+02  0.7816164E-02  0.1186339E+00
        -11   -1    0    0    0    0  0.00000000000E+00  0.00000000000E+00  0.45593999997E+02  0.45594000000E+02  0.51100000000E-03 0. -1.
         11   -1    0    0    0    0 -0.00000000000E+00 -0.00000000000E+00 -0.45593999997E+02  0.45594000000E+02  0.51100000000E-03 0.  1.
    9900012    2    1    2    0    0 -0.81064376194E+00  0.70210889141E+00  0.49290195693E+00  0.90007723531E+02  0.89999984682E+02 0.  0.
        -12    1    1    2    0    0  0.81064376194E+00 -0.70210889141E+00 -0.49290195693E+00  0.11802764690E+01  0.00000000000E+00 0.  1.
         11    1    3    3    0    0  0.20467221045E+01  0.85067945452E+01  0.35898561861E+01  0.94573618153E+01  0.51100000000E-03 0. -1.
        -11    1    3    3    0    0 -0.28706217622E+02  0.25113339085E+02  0.29815759714E+01  0.38257241481E+02  0.51100000000E-03 0.  1.
         12    1    3    3    0    0  0.25848851755E+02 -0.32918024739E+02 -0.60785302006E+01  0.42293120235E+02  0.00000000000E+00 0. -1.
</event>
<event>
 7    1  0.2578619E-015  0.9000775E+02  0.7816164E-02  0.1186339E+00
        -11   -1    0    0    0    0  0.00000000000E+00  0.00000000000E+00  0.45593999997E+02  0.45594000000E+02  0.51100000000E-03 0. -1.
         11   -1    0    0    0    0 -0.00000000000E+00 -0.00000000000E+00 -0.45593999997E+02  0.45594000000E+02  0.51100000000E-03 0.  1.
    9900012    2    1    2    0    0 -0.11646213885E+01 -0.93030505675E-02  0.19123874138E+00  0.90007745035E+02  0.90000006470E+02 0.  0.
        -12    1    1    2    0    0  0.11646213885E+01  0.93030505675E-02 -0.19123874138E+00  0.11802549646E+01  0.00000000000E+00 0.  1.
         11    1    3    3    0    0  0.31393743889E+01 -0.84414545097E+01 -0.21078002664E+01  0.92496836712E+01  0.51100000000E-03 0. -1.
        -11    1    3    3    0    0 -0.20306778997E+02 -0.13475327678E+02 -0.29951474931E+02  0.38613994614E+02  0.51100000000E-03 0.  1.
         12    1    3    3    0    0  0.16002783219E+02  0.21907479137E+02  0.32250513939E+02  0.42144066750E+02  0.00000000000E+00 0. -1.
</event>
<event>
 7    1  0.2578619E-015  0.9000773E+02  0.7816164E-02  0.1186339E+00
        -11   -1    0    0    0    0  0.00000000000E+00  0.00000000000E+00  0.45593999997E+02  0.45594000000E+02  0.51100000000E-03 0. -1.
         11   -1    0    0    0    0 -0.00000000000E+00 -0.00000000000E+00 -0.45593999997E+02  0.45594000000E+02  0.51100000000E-03 0.  1.
    9900012    2    1    2    0    0 -0.27199884681E+00  0.15445421880E+00  0.11380678502E+01  0.90007729730E+02  0.89999990962E+02 0.  0.
        -12    1    1    2    0    0  0.27199884681E+00 -0.15445421880E+00 -0.11380678502E+01  0.11802702699E+01  0.00000000000E+00 0.  1.
         11    1    3    3    0    0  0.19805316203E+02 -0.12168589726E+02  0.34323068935E+02  0.41453566640E+02  0.51100000000E-03 0. -1.
        -11    1    3    3    0    0 -0.45250189609E+01  0.79327352097E+01  0.24248717288E+01  0.94490257522E+01  0.51100000000E-03 0.  1.
        -12    1    3    3    0    0 -0.15552296089E+02  0.43903087351E+01 -0.35609872813E+02  0.39105137338E+02  0.00000000000E+00 0.  1.
</event>
<event>
 7    1  0.2578619E-015  0.9000793E+02  0.7816164E-02  0.1186339E+00
        -11   -1    0    0    0    0  0.00000000000E+00  0.00000000000E+00  0.45593999997E+02  0.45594000000E+02  0.51100000000E-03 0. -1.
         11   -1    0    0    0    0 -0.00000000000E+00 -0.00000000000E+00 -0.45593999997E+02  0.45594000000E+02  0.51100000000E-03 0.  1.
    9900012    2    1    2    0    0  0.41043233218E+00  0.10542252544E+01  0.33574315578E+00  0.90007928370E+02  0.90000192224E+02 0.  0.
        -12    1    1    2    0    0 -0.41043233218E+00 -0.10542252544E+01 -0.33574315578E+00  0.11800716305E+01  0.00000000000E+00 0.  1.
         11    1    3    3    0    0  0.25956622750E+02  0.15621665582E+02 -0.12745148633E+02  0.32866723506E+02  0.51100000000E-03 0. -1.
        -11    1    3    3    0    0 -0.11778879282E+01  0.12241886588E+02 -0.85198744389E+01  0.14961265585E+02  0.51100000000E-03 0.  1.
        -12    1    3    3    0    0 -0.24368302489E+02 -0.26809326915E+02  0.21600766228E+02  0.42179939278E+02  0.00000000000E+00 0.  1.
</event>
<event>
 7    1  0.2578619E-015  0.9000776E+02  0.7816164E-02  0.1186339E+00
        -11   -1    0    0    0    0  0.00000000000E+00  0.00000000000E+00  0.45593999997E+02  0.45594000000E+02  0.51100000000E-03 0. -1.
         11   -1    0    0    0    0 -0.00000000000E+00 -0.00000000000E+00 -0.45593999997E+02  0.45594000000E+02  0.51100000000E-03 0.  1.
    9900012    2    1    2    0    0 -0.18245116156E+00  0.59455717810E+00  0.10030814711E+01  0.90007763116E+02  0.90000024789E+02 0.  0.
        -12    1    1    2    0    0  0.18245116156E+00 -0.59455717810E+00 -0.10030814711E+01  0.11802368838E+01  0.00000000000E+00 0.  1.
         11    1    3    3    0    0 -0.35283089555E+01 -0.60233488674E+01 -0.60560067094E+01  0.92414778682E+01  0.51100000000E-03 0. -1.
        -11    1    3    3    0    0 -0.36724422634E+02  0.75576899864E+01  0.14125977170E+02  0.40066758379E+02  0.51100000000E-03 0.  1.
         12    1    3    3    0    0  0.40070280427E+02 -0.93978394089E+00 -0.70668889897E+01  0.40699526869E+02  0.00000000000E+00 0. -1.
</event>
<event>
 7    1  0.2578619E-015  0.9000774E+02  0.7816164E-02  0.1186339E+00
        -11   -1    0    0    0    0  0.00000000000E+00  0.00000000000E+00  0.45593999997E+02  0.45594000000E+02  0.51100000000E-03 0.  1.
         11   -1    0    0    0    0 -0.00000000000E+00 -0.00000000000E+00 -0.45593999997E+02  0.45594000000E+02  0.51100000000E-03 0. -1.
    9900012    2    1    2    0    0  0.76301444078E-01 -0.52955664333E+00 -0.10520247451E+01  0.90007742311E+02  0.90000003709E+02 0.  0.
        -12    1    1    2    0    0 -0.76301444078E-01  0.52955664333E+00  0.10520247451E+01  0.11802576893E+01  0.00000000000E+00 0.  1.
         11    1    3    3    0    0  0.23577033237E+02  0.55400012671E+01 -0.28884782048E+02  0.37694810578E+02  0.51100000000E-03 0. -1.
        -11    1    3    3    0    0  0.89952167253E+01  0.31903134133E+01  0.19302481748E+01  0.97374474010E+01  0.51100000000E-03 0.  1.
        -12    1    3    3    0    0 -0.32495948518E+02 -0.92598713237E+01  0.25902509128E+02  0.42575484332E+02  0.00000000000E+00 0.  1.
</event>
<event>
 7    1  0.2578619E-015  0.9000767E+02  0.7816164E-02  0.1186339E+00
        -11   -1    0    0    0    0  0.00000000000E+00  0.00000000000E+00  0.45593999997E+02  0.45594000000E+02  0.51100000000E-03 0. -1.
         11   -1    0    0    0    0 -0.00000000000E+00 -0.00000000000E+00 -0.45593999997E+02  0.45594000000E+02  0.51100000000E-03 0.  1.
    9900012    2    1    2    0    0 -0.83336351557E+00 -0.46609560001E+00 -0.69386223794E+00  0.90007667563E+02  0.89999927974E+02 0.  0.
        -12    1    1    2    0    0  0.83336351557E+00  0.46609560001E+00  0.69386223794E+00  0.11803324374E+01  0.00000000000E+00 0.  1.
         11    1    3    3    0    0 -0.99497789293E+01 -0.18324243550E+00  0.39607212392E+00  0.99593449544E+01  0.51100000000E-03 0. -1.
        -11    1    3    3    0    0 -0.35075736489E+02 -0.23006159268E+01 -0.55473347009E+01  0.35586135593E+02  0.51100000000E-03 0.  1.
         12    1    3    3    0    0  0.44192151903E+02  0.20177627623E+01  0.44574003391E+01  0.44462187015E+02  0.00000000000E+00 0. -1.
</event>
<event>
 7    1  0.2578619E-015  0.9000770E+02  0.7816164E-02  0.1186339E+00
        -11   -1    0    0    0    0  0.00000000000E+00  0.00000000000E+00  0.45593999997E+02  0.45594000000E+02  0.51100000000E-03 0. -1.
         11   -1    0    0    0    0 -0.00000000000E+00 -0.00000000000E+00 -0.45593999997E+02  0.45594000000E+02  0.51100000000E-03 0.  1.
    9900012    2    1    2    0    0 -0.60926016334E+00 -0.45718313168E+00  0.90161115036E+00  0.90007696213E+02  0.89999957003E+02 0.  0.
        -12    1    1    2    0    0  0.60926016334E+00  0.45718313168E+00 -0.90161115036E+00  0.11803037867E+01  0.00000000000E+00 0.  1.
         11    1    3    3    0    0  0.22347172615E+02 -0.77608019119E+01  0.32451057768E+02  0.40158402866E+02  0.51100000000E-03 0. -1.
        -11    1    3    3    0    0 -0.75260792768E+01 -0.44062602729E+01  0.38215187309E+01  0.95216072459E+01  0.51100000000E-03 0.  1.
        -12    1    3    3    0    0 -0.15430353501E+02  0.11709879053E+02 -0.35370965349E+02  0.40327686102E+02  0.00000000000E+00 0.  1.
</event>
<event>
 7    1  0.2578619E-015  0.9000741E+02  0.7816164E-02  0.1186340E+00
        -11   -1    0    0    0    0  0.00000000000E+00  0.00000000000E+00  0.45593999997E+02  0.45594000000E+02  0.51100000000E-03 0.  1.
         11   -1    0    0    0    0 -0.00000000000E+00 -0.00000000000E+00 -0.45593999997E+02  0.45594000000E+02  0.51100000000E-03 0. -1.
    9900012    2    1    2    0    0  0.42173901280E+00  0.93408761329E+00 -0.58602128241E+00  0.90007405062E+02  0.89999662008E+02 0.  0.
        -12    1    1    2    0    0 -0.42173901280E+00 -0.93408761329E+00  0.58602128241E+00  0.11805949380E+01  0.00000000000E+00 0.  1.
         11    1    3    3    0    0 -0.47512439476E+01 -0.24202874845E+02 -0.28690077048E+02  0.37834825109E+02  0.51100000000E-03 0. -1.
        -11    1    3    3    0    0  0.84031711847E+01 -0.32521174235E+01 -0.34100512463E+01  0.96342100589E+01  0.51100000000E-03 0.  1.
        -12    1    3    3    0    0 -0.32301882243E+01  0.28389079881E+02  0.31514107012E+02  0.42538369894E+02  0.00000000000E+00 0.  1.
</event>
<event>
 7    1  0.2578619E-015  0.9000794E+02  0.7816164E-02  0.1186339E+00
        -11   -1    0    0    0    0  0.00000000000E+00  0.00000000000E+00  0.45593999997E+02  0.45594000000E+02  0.51100000000E-03 0. -1.
         11   -1    0    0    0    0 -0.00000000000E+00 -0.00000000000E+00 -0.45593999997E+02  0.45594000000E+02  0.51100000000E-03 0.  1.
    9900012    2    1    2    0    0  0.33178650883E+00  0.10199922541E+01  0.49201639125E+00  0.90007937877E+02  0.90000201856E+02 0.  0.
        -12    1    1    2    0    0 -0.33178650883E+00 -0.10199922541E+01 -0.49201639125E+00  0.11800621234E+01  0.00000000000E+00 0.  1.
         11    1    3    3    0    0 -0.58579447458E+01  0.11938956212E+02  0.11372917775E+02  0.17498498538E+02  0.51100000000E-03 0. -1.
        -11    1    3    3    0    0 -0.11697280397E+02  0.23348940982E+02 -0.19879380388E+02  0.32820560302E+02  0.51100000000E-03 0.  1.
         12    1    3    3    0    0  0.17887011652E+02 -0.34267904940E+02  0.89984790040E+01  0.39688879037E+02  0.00000000000E+00 0. -1.
</event>
<event>
 7    1  0.2578619E-015  0.9000793E+02  0.7816164E-02  0.1186339E+00
        -11   -1    0    0    0    0  0.00000000000E+00  0.00000000000E+00  0.45593999997E+02  0.45594000000E+02  0.51100000000E-03 0.  1.
         11   -1    0    0    0    0 -0.00000000000E+00 -0.00000000000E+00 -0.45593999997E+02  0.45594000000E+02  0.51100000000E-03 0. -1.
    9900012    2    1    2    0    0  0.68957978589E+00 -0.94883105149E+00 -0.12945291685E+00  0.90007932755E+02  0.90000196667E+02 0.  0.
        -12    1    1    2    0    0 -0.68957978589E+00  0.94883105149E+00  0.12945291685E+00  0.11800672451E+01  0.00000000000E+00 0.  1.
         11    1    3    3    0    0  0.94869873796E+01 -0.57843702515E+01  0.21618487794E+00  0.11113442532E+02  0.51100000000E-03 0. -1.
        -11    1    3    3    0    0  0.18572818601E+02  0.16180425422E+02  0.28413139557E+02  0.37604019166E+02  0.51100000000E-03 0.  1.
         12    1    3    3    0    0 -0.27370226195E+02 -0.11344886222E+02 -0.28758777352E+02  0.41290471057E+02  0.00000000000E+00 0. -1.
</event>
<event>
 7    1  0.2578619E-015  0.9000785E+02  0.7816164E-02  0.1186339E+00
        -11   -1    0    0    0    0  0.00000000000E+00  0.00000000000E+00  0.45593999997E+02  0.45594000000E+02  0.51100000000E-03 0.  1.
         11   -1    0    0    0    0 -0.00000000000E+00 -0.00000000000E+00 -0.45593999997E+02  0.45594000000E+02  0.51100000000E-03 0. -1.
    9900012    2    1    2    0    0  0.57833345688E+00 -0.41276921370E+00 -0.94229102851E+00  0.90007847301E+02  0.90000110085E+02 0.  0.
        -12    1    1    2    0    0 -0.57833345688E+00  0.41276921370E+00  0.94229102851E+00  0.11801526992E+01  0.00000000000E+00 0.  1.
         11    1    3    3    0    0  0.85974922036E+01  0.26309511351E+01  0.15897967377E+01  0.91305109383E+01  0.51100000000E-03 0. -1.
        -11    1    3    3    0    0  0.30001533318E+02 -0.22941671338E+02 -0.37003802301E+01  0.37948716702E+02  0.51100000000E-03 0.  1.
         12    1    3    3    0    0 -0.38020692065E+02  0.19897950989E+02  0.11682924640E+01  0.42928619660E+02  0.00000000000E+00 0. -1.
</event>
<event>
 7    1  0.2578619E-015  0.9000774E+02  0.7816164E-02  0.1186339E+00
        -11   -1    0    0    0    0  0.00000000000E+00  0.00000000000E+00  0.45593999997E+02  0.45594000000E+02  0.51100000000E-03 0.  1.
         11   -1    0    0    0    0 -0.00000000000E+00 -0.00000000000E+00 -0.45593999997E+02  0.45594000000E+02  0.51100000000E-03 0. -1.
    9900012    2    1    2    0    0  0.87035060755E+00 -0.20549523681E+00  0.77024771494E+00  0.90007737311E+02  0.89999998644E+02 0.  0.
        -12    1    1    2    0    0 -0.87035060755E+00  0.20549523681E+00 -0.77024771494E+00  0.11802626889E+01  0.00000000000E+00 0.  1.
         11    1    3    3    0    0  0.42769899756E+01  0.72861255857E+01  0.44665924903E+01  0.95567106285E+01  0.51100000000E-03 0. -1.
        -11    1    3    3    0    0 -0.11821245434E+02  0.28203058217E+02  0.20227181178E+02  0.36664604118E+02  0.51100000000E-03 0.  1.
         12    1    3    3    0    0  0.84146060662E+01 -0.35694679040E+02 -0.23923525954E+02  0.43786422565E+02  0.00000000000E+00 0. -1.
</event>
<event>
 7    1  0.2578619E-015  0.9000772E+02  0.7816164E-02  0.1186339E+00
        -11   -1    0    0    0    0  0.00000000000E+00  0.00000000000E+00  0.45593999997E+02  0.45594000000E+02  0.51100000000E-03 0.  1.
         11   -1    0    0    0    0 -0.00000000000E+00 -0.00000000000E+00 -0.45593999997E+02  0.45594000000E+02  0.51100000000E-03 0. -1.
    9900012    2    1    2    0    0 -0.27592838906E+00  0.54662084169E+00 -0.10090235592E+01  0.90007720642E+02  0.89999981754E+02 0.  0.
        -12    1    1    2    0    0  0.27592838906E+00 -0.54662084169E+00  0.10090235592E+01  0.11802793583E+01  0.00000000000E+00 0.  1.
         11    1    3    3    0    0  0.20967537357E+02  0.25654314347E+02 -0.13862790461E+02  0.35915991244E+02  0.51100000000E-03 0. -1.
        -11    1    3    3    0    0  0.41824085921E+01  0.62796376708E+01 -0.58798061309E+01  0.95654854193E+01  0.51100000000E-03 0.  1.
        -12    1    3    3    0    0 -0.25425874338E+02 -0.31387331176E+02  0.18733573032E+02  0.44526243978E+02  0.00000000000E+00 0.  1.
</event>
<event>
 7    1  0.2578619E-015  0.9000771E+02  0.7816164E-02  0.1186339E+00
        -11   -1    0    0    0    0  0.00000000000E+00  0.00000000000E+00  0.45593999997E+02  0.45594000000E+02  0.51100000000E-03 0.  1.
         11   -1    0    0    0    0 -0.00000000000E+00 -0.00000000000E+00 -0.45593999997E+02  0.45594000000E+02  0.51100000000E-03 0. -1.
    9900012    2    1    2    0    0 -0.10491629450E+01 -0.53601538704E+00 -0.70908329006E-01  0.90007710471E+02  0.89999971450E+02 0.  0.
        -12    1    1    2    0    0  0.10491629450E+01  0.53601538704E+00  0.70908329006E-01  0.11802895286E+01  0.00000000000E+00 0.  1.
         11    1    3    3    0    0  0.71510552223E+00  0.40946797306E+01 -0.13129326783E+02  0.13771601216E+02  0.51100000000E-03 0. -1.
        -11    1    3    3    0    0  0.12359808463E+02 -0.30774337875E+02 -0.14046816203E+02  0.36015799069E+02  0.51100000000E-03 0.  1.
         12    1    3    3    0    0 -0.14124076930E+02  0.26143642757E+02  0.27105234657E+02  0.40220310187E+02  0.00000000000E+00 0. -1.
</event>
<event>
 7    1  0.2578619E-015  0.9000769E+02  0.7816164E-02  0.1186339E+00
        -11   -1    0    0    0    0  0.00000000000E+00  0.00000000000E+00  0.45593999997E+02  0.45594000000E+02  0.51100000000E-03 0. -1.
         11   -1    0    0    0    0 -0.00000000000E+00 -0.00000000000E+00 -0.45593999997E+02  0.45594000000E+02  0.51100000000E-03 0.  1.
    9900012    2    1    2    0    0 -0.11429215118E+01  0.10127589743E+00  0.27677561831E+00  0.90007690239E+02  0.89999950950E+02 0.  0.
        -12    1    1    2    0    0  0.11429215118E+01 -0.10127589743E+00 -0.27677561831E+00  0.11803097612E+01  0.00000000000E+00 0.  1.
         11    1    3    3    0    0  0.19797258952E+02  0.16912644027E+02 -0.15183708828E+02  0.30141566052E+02  0.51100000000E-03 0. -1.
        -11    1    3    3    0    0  0.51355511883E+01 -0.84886136295E+00  0.26767318752E+02  0.27268733103E+02  0.51100000000E-03 0.  1.
        -12    1    3    3    0    0 -0.26075731652E+02 -0.15962506767E+02 -0.11306834305E+02  0.32597391084E+02  0.00000000000E+00 0.  1.
</event>
<event>
 7    1  0.2578619E-015  0.9000782E+02  0.7816164E-02  0.1186339E+00
        -11   -1    0    0    0    0  0.00000000000E+00  0.00000000000E+00  0.45593999997E+02  0.45594000000E+02  0.51100000000E-03 0.  1.
         11   -1    0    0    0    0 -0.00000000000E+00 -0.00000000000E+00 -0.45593999997E+02  0.45594000000E+02  0.51100000000E-03 0. -1.
    9900012    2    1    2    0    0  0.42318742353E-01 -0.27235039933E+00 -0.11475485976E+01  0.90007816370E+02  0.90000078746E+02 0.  0.
        -12    1    1    2    0    0 -0.42318742353E-01  0.27235039933E+00  0.11475485976E+01  0.11801836297E+01  0.00000000000E+00 0.  1.
         11    1    3    3    0    0  0.65635309709E+01 -0.98018899020E+01  0.36538595302E+02  0.38395649901E+02  0.51100000000E-03 0. -1.
        -11    1    3    3    0    0 -0.23873097853E+01 -0.10340020004E+02 -0.23601067866E+01  0.10871309305E+02  0.51100000000E-03 0.  1.
        -12    1    3    3    0    0 -0.41339024432E+01  0.19869559506E+02 -0.35326037113E+02  0.40740857164E+02  0.00000000000E+00 0.  1.
</event>
<event>
 7    1  0.2578619E-015  0.9000795E+02  0.7816164E-02  0.1186339E+00
        -11   -1    0    0    0    0  0.00000000000E+00  0.00000000000E+00  0.45593999997E+02  0.45594000000E+02  0.51100000000E-03 0.  1.
         11   -1    0    0    0    0 -0.00000000000E+00 -0.00000000000E+00 -0.45593999997E+02  0.45594000000E+02  0.51100000000E-03 0. -1.
    9900012    2    1    2    0    0 -0.60564482910E+00  0.10106222106E+01  0.66007371872E-01  0.90007949202E+02  0.90000213332E+02 0.  0.
        -12    1    1    2    0    0  0.60564482910E+00 -0.10106222106E+01 -0.66007371872E-01  0.11800507975E+01  0.00000000000E+00 0.  1.
         11    1    3    3    0    0 -0.36847946292E+01  0.49624948410E+01 -0.62963181192E+01  0.88231337191E+01  0.51100000000E-03 0. -1.
        -11    1    3    3    0    0 -0.22057440466E+01  0.93551537291E+01  0.41838432644E+02  0.42928296664E+02  0.51100000000E-03 0.  1.
         12    1    3    3    0    0  0.52848938467E+01 -0.13307026359E+02 -0.35476107153E+02  0.38256518820E+02  0.00000000000E+00 0. -1.
</event>
<event>
 7    1  0.2578619E-015  0.9000773E+02  0.7816164E-02  0.1186339E+00
        -11   -1    0    0    0    0  0.00000000000E+00  0.00000000000E+00  0.45593999997E+02  0.45594000000E+02  0.51100000000E-03 0.  1.
         11   -1    0    0    0    0 -0.00000000000E+00 -0.00000000000E+00 -0.45593999997E+02  0.45594000000E+02  0.51100000000E-03 0. -1.
    9900012    2    1    2    0    0  0.93016894352E+00  0.48590711574E+00 -0.54010841414E+00  0.90007730078E+02  0.89999991316E+02 0.  0.
        -12    1    1    2    0    0 -0.93016894352E+00 -0.48590711574E+00  0.54010841414E+00  0.11802699215E+01  0.00000000000E+00 0.  1.
         11    1    3    3    0    0 -0.11925349311E+01  0.11641489392E+02 -0.38001805942E+02  0.39762842830E+02  0.51100000000E-03 0. -1.
        -11    1    3    3    0    0 -0.38994186823E+01 -0.72885476570E+01 -0.32698737337E+01  0.88893457298E+01  0.51100000000E-03 0.  1.
        -12    1    3    3    0    0  0.60221225569E+01 -0.38670346189E+01  0.40731571262E+02  0.41355541518E+02  0.00000000000E+00 0.  1.
</event>
<event>
 7    1  0.2578619E-015  0.9000772E+02  0.7816164E-02  0.1186339E+00
        -11   -1    0    0    0    0  0.00000000000E+00  0.00000000000E+00  0.45593999997E+02  0.45594000000E+02  0.51100000000E-03 0. -1.
         11   -1    0    0    0    0 -0.00000000000E+00 -0.00000000000E+00 -0.45593999997E+02  0.45594000000E+02  0.51100000000E-03 0.  1.
    9900012    2    1    2    0    0  0.65130001285E-01 -0.11772098986E+01 -0.54684827577E-01  0.90007722281E+02  0.89999983416E+02 0.  0.
        -12    1    1    2    0    0 -0.65130001285E-01  0.11772098986E+01  0.54684827577E-01  0.11802777185E+01  0.00000000000E+00 0.  1.
         11    1    3    3    0    0  0.47003843532E+01 -0.29101654097E+01 -0.37404279666E+01  0.66748391302E+01  0.51100000000E-03 0. -1.
        -11    1    3    3    0    0 -0.17323516881E+02 -0.30365416465E+02  0.24808243169E+02  0.42867373183E+02  0.51100000000E-03 0.  1.
         12    1    3    3    0    0  0.12688262529E+02  0.32098371976E+02 -0.21122500030E+02  0.40465509969E+02  0.00000000000E+00 0. -1.
</event>
<event>
 7    1  0.2578619E-015  0.9000751E+02  0.7816164E-02  0.1186340E+00
        -11   -1    0    0    0    0  0.00000000000E+00  0.00000000000E+00  0.45593999997E+02  0.45594000000E+02  0.51100000000E-03 0. -1.
         11   -1    0    0    0    0 -0.00000000000E+00 -0.00000000000E+00 -0.45593999997E+02  0.45594000000E+02  0.51100000000E-03 0.  1.
    9900012    2    1    2    0    0  0.83046329942E+00  0.52743929154E+00  0.65245586108E+00  0.90007508514E+02  0.89999766826E+02 0.  0.
        -12    1    1    2    0    0 -0.83046329942E+00 -0.52743929154E+00 -0.65245586108E+00  0.11804914860E+01  0.00000000000E+00 0.  1.
         11    1    3    3    0    0  0.34046754629E+02  0.60392342715E+01  0.77703739179E+01  0.35440549692E+02  0.51100000000E-03 0. -1.
        -11    1    3    3    0    0  0.85273710663E+01 -0.70059464697E+00  0.61103370785E+01  0.10513948337E+02  0.51100000000E-03 0.  1.
        -12    1    3    3    0    0 -0.41743662396E+02 -0.48112003330E+01 -0.13228255135E+02  0.44053010485E+02  0.00000000000E+00 0.  1.
</event>
<event>
 7    1  0.2578619E-015  0.9000773E+02  0.7816164E-02  0.1186339E+00
        -11   -1    0    0    0    0  0.00000000000E+00  0.00000000000E+00  0.45593999997E+02  0.45594000000E+02  0.51100000000E-03 0.  1.
         11   -1    0    0    0    0 -0.00000000000E+00 -0.00000000000E+00 -0.45593999997E+02  0.45594000000E+02  0.51100000000E-03 0. -1.
    9900012    2    1    2    0    0  0.99003232457E+00  0.59922131898E+00 -0.23194377156E+00  0.90007733883E+02  0.89999995171E+02 0.  0.
        -12    1    1    2    0    0 -0.99003232457E+00 -0.59922131898E+00  0.23194377156E+00  0.11802661166E+01  0.00000000000E+00 0.  1.
         11    1    3    3    0    0  0.83045147998E+01  0.38945630723E+01 -0.27614022365E+01  0.95790359722E+01  0.51100000000E-03 0. -1.
        -11    1    3    3    0    0  0.89658627256E+01  0.34238354187E+02  0.13806666429E+02  0.37990467620E+02  0.51100000000E-03 0.  1.
         12    1    3    3    0    0 -0.16280345201E+02 -0.37533695940E+02 -0.11277207964E+02  0.42438230291E+02  0.00000000000E+00 0. -1.
</event>
<event>
 7    1  0.2578619E-015  0.9000764E+02  0.7816164E-02  0.1186339E+00
        -11   -1    0    0    0    0  0.00000000000E+00  0.00000000000E+00  0.45593999997E+02  0.45594000000E+02  0.51100000000E-03 0.  1.
         11   -1    0    0    0    0 -0.00000000000E+00 -0.00000000000E+00 -0.45593999997E+02  0.45594000000E+02  0.51100000000E-03 0. -1.
    9900012    2    1    2    0    0  0.59942462457E+00  0.60033625031E+00 -0.82069846269E+00  0.90007635878E+02  0.89999895871E+02 0.  0.
        -12    1    1    2    0    0 -0.59942462457E+00 -0.60033625031E+00  0.82069846269E+00  0.11803641221E+01  0.00000000000E+00 0.  1.
         11    1    3    3    0    0  0.19444764801E+01 -0.88563861991E+01 -0.22378734819E+01  0.93394134329E+01  0.51100000000E-03 0. -1.
        -11    1    3    3    0    0  0.23770893161E+02  0.17486606139E+02  0.29791779070E+02  0.41933123618E+02  0.51100000000E-03 0.  1.
         12    1    3    3    0    0 -0.25115945017E+02 -0.80298836895E+01 -0.28374604050E+02  0.38735098827E+02  0.00000000000E+00 0. -1.
</event>
<event>
 7    1  0.2990418E-015  0.9000757E+02  0.7816164E-02  0.1186339E+00
        -11   -1    0    0    0    0  0.00000000000E+00  0.00000000000E+00  0.45593999997E+02  0.45594000000E+02  0.51100000000E-03 0.  1.
         11   -1    0    0    0    0 -0.00000000000E+00 -0.00000000000E+00 -0.45593999997E+02  0.45594000000E+02  0.51100000000E-03 0. -1.
    9900012    2    1    2    0    0  0.67169634257E+00  0.97018497244E+00 -0.31377475134E-01  0.90007568128E+02  0.89999827228E+02 0.  0.
        -12    1    1    2    0    0 -0.67169634257E+00 -0.97018497244E+00  0.31377475134E-01  0.11804318715E+01  0.00000000000E+00 0.  1.
         11    1    3    3    0    0 -0.18527896458E+01 -0.69434386974E+01  0.65547872852E+01  0.97267367103E+01  0.51100000000E-03 0. -1.
        -11    1    3    3    0    0  0.67115951111E+01 -0.14171013789E+02  0.31994169998E+02  0.35629903941E+02  0.51100000000E-03 0.  1.
         12    1    3    3    0    0 -0.41871091228E+01  0.22084637459E+02 -0.38580334758E+02  0.44650927477E+02  0.00000000000E+00 0. -1.
</event>
<event>
 7    1  0.2578619E-015  0.9000775E+02  0.7816164E-02  0.1186339E+00
        -11   -1    0    0    0    0  0.00000000000E+00  0.00000000000E+00  0.45593999997E+02  0.45594000000E+02  0.51100000000E-03 0. -1.
         11   -1    0    0    0    0 -0.00000000000E+00 -0.00000000000E+00 -0.45593999997E+02  0.45594000000E+02  0.51100000000E-03 0.  1.
    9900012    2    1    2    0    0  0.59946385057E+00 -0.22973274603E+00 -0.99038485867E+00  0.90007747395E+02  0.90000008861E+02 0.  0.
        -12    1    1    2    0    0 -0.59946385057E+00  0.22973274603E+00  0.99038485867E+00  0.11802526047E+01  0.00000000000E+00 0.  1.
         11    1    3    3    0    0  0.76506901024E+01 -0.10099855079E+01  0.26008927458E+01  0.81435725026E+01  0.51100000000E-03 0. -1.
        -11    1    3    3    0    0  0.32983591269E+02  0.58016326210E+01 -0.19198229870E+02  0.38602438582E+02  0.51100000000E-03 0.  1.
         12    1    3    3    0    0 -0.40034817521E+02 -0.50213798592E+01  0.15606952265E+02  0.43261736311E+02  0.00000000000E+00 0. -1.
</event>
<event>
 7    1  0.2578619E-015  0.9000773E+02  0.7816164E-02  0.1186339E+00
        -11   -1    0    0    0    0  0.00000000000E+00  0.00000000000E+00  0.45593999997E+02  0.45594000000E+02  0.51100000000E-03 0. -1.
         11   -1    0    0    0    0 -0.00000000000E+00 -0.00000000000E+00 -0.45593999997E+02  0.45594000000E+02  0.51100000000E-03 0.  1.
    9900012    2    1    2    0    0 -0.66856256250E+00  0.52317412519E+00  0.81997673138E+00  0.90007725072E+02  0.89999986243E+02 0.  0.
        -12    1    1    2    0    0  0.66856256250E+00 -0.52317412519E+00 -0.81997673138E+00  0.11802749278E+01  0.00000000000E+00 0.  1.
         11    1    3    3    0    0 -0.28418797813E+01 -0.37355473132E+01 -0.87644296460E+01  0.99421236012E+01  0.51100000000E-03 0. -1.
        -11    1    3    3    0    0  0.15329740417E+02  0.33716348542E+02 -0.14531421413E+02  0.39786370893E+02  0.51100000000E-03 0.  1.
         12    1    3    3    0    0 -0.13156423198E+02 -0.29457627104E+02  0.24115827790E+02  0.40279230578E+02  0.00000000000E+00 0. -1.
</event>
<event>
 7    1  0.2578619E-015  0.9000775E+02  0.7816164E-02  0.1186339E+00
        -11   -1    0    0    0    0  0.00000000000E+00  0.00000000000E+00  0.45593999997E+02  0.45594000000E+02  0.51100000000E-03 0. -1.
         11   -1    0    0    0    0 -0.00000000000E+00 -0.00000000000E+00 -0.45593999997E+02  0.45594000000E+02  0.51100000000E-03 0.  1.
    9900012    2    1    2    0    0  0.43631619606E+00  0.60568381060E+00 -0.91420700754E+00  0.90007746148E+02  0.90000007598E+02 0.  0.
        -12    1    1    2    0    0 -0.43631619606E+00 -0.60568381060E+00  0.91420700754E+00  0.11802538515E+01  0.00000000000E+00 0.  1.
         11    1    3    3    0    0  0.81737377213E+01  0.10425498928E+01  0.20868573110E+01  0.85001101354E+01  0.51100000000E-03 0. -1.
        -11    1    3    3    0    0  0.34985393466E+02 -0.10283237708E+02  0.54124814925E+01  0.36864857112E+02  0.51100000000E-03 0.  1.
         12    1    3    3    0    0 -0.42722814991E+02  0.98463716257E+01 -0.84135458111E+01  0.44642778901E+02  0.00000000000E+00 0. -1.
</event>
<event>
 7    1  0.2578619E-015  0.9000776E+02  0.7816164E-02  0.1186339E+00
        -11   -1    0    0    0    0  0.00000000000E+00  0.00000000000E+00  0.45593999997E+02  0.45594000000E+02  0.51100000000E-03 0. -1.
         11   -1    0    0    0    0 -0.00000000000E+00 -0.00000000000E+00 -0.45593999997E+02  0.45594000000E+02  0.51100000000E-03 0.  1.
    9900012    2    1    2    0    0 -0.61939263657E+00 -0.92773950881E+00 -0.38550405311E+00  0.90007762223E+02  0.90000023885E+02 0.  0.
        -12    1    1    2    0    0  0.61939263657E+00  0.92773950881E+00  0.38550405311E+00  0.11802377766E+01  0.00000000000E+00 0.  1.
         11    1    3    3    0    0  0.65791599940E+01 -0.19867690308E+02  0.29565285125E+02  0.36223149355E+02  0.51100000000E-03 0. -1.
        -11    1    3    3    0    0  0.33612589409E+01 -0.92998914617E+01  0.17429819134E+01  0.10041116924E+02  0.51100000000E-03 0.  1.
        -12    1    3    3    0    0 -0.10559811571E+02  0.28239842261E+02 -0.31693771092E+02  0.43743495944E+02  0.00000000000E+00 0.  1.
</event>
<event>
 7    1  0.2578619E-015  0.9000775E+02  0.7816164E-02  0.1186339E+00
        -11   -1    0    0    0    0  0.00000000000E+00  0.00000000000E+00  0.45593999997E+02  0.45594000000E+02  0.51100000000E-03 0. -1.
         11   -1    0    0    0    0 -0.00000000000E+00 -0.00000000000E+00 -0.45593999997E+02  0.45594000000E+02  0.51100000000E-03 0.  1.
    9900012    2    1    2    0    0 -0.34879323702E+00  0.43347591419E+00  0.10408794006E+01  0.90007750867E+02  0.90000012378E+02 0.  0.
        -12    1    1    2    0    0  0.34879323702E+00 -0.43347591419E+00 -0.10408794006E+01  0.11802491334E+01  0.00000000000E+00 0.  1.
         11    1    3    3    0    0 -0.14863772406E+02 -0.22552602037E+02 -0.21599808930E+02  0.34584726901E+02  0.51100000000E-03 0. -1.
        -11    1    3    3    0    0 -0.52174726372E+01 -0.64645605384E+01 -0.56680432217E+01  0.10056802568E+02  0.51100000000E-03 0.  1.
        -12    1    3    3    0    0  0.19732451806E+02  0.29450638490E+02  0.28308731552E+02  0.45366221397E+02  0.00000000000E+00 0.  1.
</event>
<event>
 7    1  0.2578619E-015  0.9000784E+02  0.7816164E-02  0.1186339E+00
        -11   -1    0    0    0    0  0.00000000000E+00  0.00000000000E+00  0.45593999997E+02  0.45594000000E+02  0.51100000000E-03 0.  1.
         11   -1    0    0    0    0 -0.00000000000E+00 -0.00000000000E+00 -0.45593999997E+02  0.45594000000E+02  0.51100000000E-03 0. -1.
    9900012    2    1    2    0    0  0.34346470766E+00  0.83790587164E+00  0.75678589546E+00  0.90007839356E+02  0.90000102035E+02 0.  0.
        -12    1    1    2    0    0 -0.34346470766E+00 -0.83790587164E+00 -0.75678589546E+00  0.11801606444E+01  0.00000000000E+00 0.  1.
         11    1    3    3    0    0 -0.22342865877E+02 -0.60925993345E+01  0.83697182719E+01  0.24624695053E+02  0.51100000000E-03 0. -1.
        -11    1    3    3    0    0 -0.16490011617E+02 -0.27633040740E+01  0.11932722984E+02  0.20541329329E+02  0.51100000000E-03 0.  1.
         12    1    3    3    0    0  0.39176342202E+02  0.96938092801E+01 -0.19545655360E+02  0.44841814973E+02  0.00000000000E+00 0. -1.
</event>
<event>
 7    1  0.2578619E-015  0.9000777E+02  0.7816164E-02  0.1186339E+00
        -11   -1    0    0    0    0  0.00000000000E+00  0.00000000000E+00  0.45593999997E+02  0.45594000000E+02  0.51100000000E-03 0.  1.
         11   -1    0    0    0    0 -0.00000000000E+00 -0.00000000000E+00 -0.45593999997E+02  0.45594000000E+02  0.51100000000E-03 0. -1.
    9900012    2    1    2    0    0  0.25020431026E+00  0.25763377634E+00 -0.11242670198E+01  0.90007765408E+02  0.90000027112E+02 0.  0.
        -12    1    1    2    0    0 -0.25020431026E+00 -0.25763377634E+00  0.11242670198E+01  0.11802345917E+01  0.00000000000E+00 0.  1.
         11    1    3    3    0    0 -0.17663932743E+02 -0.74970529611E+01  0.31136612639E+02  0.36574703963E+02  0.51100000000E-03 0. -1.
        -11    1    3    3    0    0 -0.52979504510E+01 -0.37282266997E+01  0.49111694437E+01  0.81294242645E+01  0.51100000000E-03 0.  1.
        -12    1    3    3    0    0  0.23212087504E+02  0.11482913437E+02 -0.37172049103E+02  0.45303637181E+02  0.00000000000E+00 0.  1.
</event>
<event>
 7    1  0.2578619E-015  0.9000773E+02  0.7816164E-02  0.1186339E+00
        -11   -1    0    0    0    0  0.00000000000E+00  0.00000000000E+00  0.45593999997E+02  0.45594000000E+02  0.51100000000E-03 0. -1.
         11   -1    0    0    0    0 -0.00000000000E+00 -0.00000000000E+00 -0.45593999997E+02  0.45594000000E+02  0.51100000000E-03 0.  1.
    9900012    2    1    2    0    0 -0.73449559337E+00  0.90770068559E+00  0.17214412077E+00  0.90007729730E+02  0.89999990963E+02 0.  0.
        -12    1    1    2    0    0  0.73449559337E+00 -0.90770068559E+00 -0.17214412077E+00  0.11802702697E+01  0.00000000000E+00 0.  1.
         11    1    3    3    0    0 -0.53264364686E+01  0.58408252347E+01  0.40736792715E+01  0.88927514271E+01  0.51100000000E-03 0. -1.
        -11    1    3    3    0    0  0.89053856106E+01  0.29971786730E+02  0.21313011866E+02  0.37839904436E+02  0.51100000000E-03 0.  1.
         12    1    3    3    0    0 -0.43134447354E+01 -0.34904911279E+02 -0.25214547017E+02  0.43275073867E+02  0.00000000000E+00 0. -1.
</event>
<event>
 7    1  0.2578619E-015  0.9000755E+02  0.7816164E-02  0.1186339E+00
        -11   -1    0    0    0    0  0.00000000000E+00  0.00000000000E+00  0.45593999997E+02  0.45594000000E+02  0.51100000000E-03 0. -1.
         11   -1    0    0    0    0 -0.00000000000E+00 -0.00000000000E+00 -0.45593999997E+02  0.45594000000E+02  0.51100000000E-03 0.  1.
    9900012    2    1    2    0    0  0.97416371445E+00  0.62283052429E+00  0.23780410970E+00  0.90007549408E+02  0.89999808260E+02 0.  0.
        -12    1    1    2    0    0 -0.97416371445E+00 -0.62283052429E+00 -0.23780410970E+00  0.11804505916E+01  0.00000000000E+00 0.  1.
         11    1    3    3    0    0  0.52463970060E+01 -0.19000611047E+01  0.34828693221E+02  0.35272833534E+02  0.51100000000E-03 0. -1.
        -11    1    3    3    0    0  0.29840825355E+01 -0.17538202974E+00  0.95052199943E+01  0.99641715580E+01  0.51100000000E-03 0.  1.
        -12    1    3    3    0    0 -0.72563158271E+01  0.26982736587E+01 -0.44096109106E+02  0.44770544317E+02  0.00000000000E+00 0.  1.
</event>
<event>
 7    1  0.2578619E-015  0.9000775E+02  0.7816164E-02  0.1186339E+00
        -11   -1    0    0    0    0  0.00000000000E+00  0.00000000000E+00  0.45593999997E+02  0.45594000000E+02  0.51100000000E-03 0.  1.
         11   -1    0    0    0    0 -0.00000000000E+00 -0.00000000000E+00 -0.45593999997E+02  0.45594000000E+02  0.51100000000E-03 0. -1.
    9900012    2    1    2    0    0 -0.27090032155E+00  0.73610485062E-02 -0.11487120984E+01  0.90007753986E+02  0.90000015538E+02 0.  0.
        -12    1    1    2    0    0  0.27090032155E+00 -0.73610485062E-02  0.11487120984E+01  0.11802460143E+01  0.00000000000E+00 0.  1.
         11    1    3    3    0    0  0.29427447918E+01 -0.25252886659E+02 -0.80984609862E+01  0.26682449328E+02  0.51100000000E-03 0. -1.
        -11    1    3    3    0    0  0.31268491134E+01 -0.14090335933E+02 -0.12391131257E+02  0.19022483702E+02  0.51100000000E-03 0.  1.
        -12    1    3    3    0    0 -0.63404942268E+01  0.39350583641E+02  0.19340880144E+02  0.44302820956E+02  0.00000000000E+00 0.  1.
</event>
<event>
 7    1  0.2578619E-015  0.9000782E+02  0.7816164E-02  0.1186339E+00
        -11   -1    0    0    0    0  0.00000000000E+00  0.00000000000E+00  0.45593999997E+02  0.45594000000E+02  0.51100000000E-03 0.  1.
         11   -1    0    0    0    0 -0.00000000000E+00 -0.00000000000E+00 -0.45593999997E+02  0.45594000000E+02  0.51100000000E-03 0. -1.
    9900012    2    1    2    0    0 -0.22537586884E+00  0.44064288196E+00 -0.10713806530E+01  0.90007823346E+02  0.90000085814E+02 0.  0.
        -12    1    1    2    0    0  0.22537586884E+00 -0.44064288196E+00  0.10713806530E+01  0.11801766543E+01  0.00000000000E+00 0.  1.
         11    1    3    3    0    0 -0.90665719756E+01 -0.14278629915E+01  0.90155495236E+00  0.92224899949E+01  0.51100000000E-03 0. -1.
        -11    1    3    3    0    0 -0.31669955303E+02 -0.11945281074E+02  0.11763209835E+02  0.35833628267E+02  0.51100000000E-03 0.  1.
         12    1    3    3    0    0  0.40511151410E+02  0.13813786948E+02 -0.13736145440E+02  0.44951705084E+02  0.00000000000E+00 0. -1.
</event>
<event>
 7    1  0.2578619E-015  0.9000782E+02  0.7816164E-02  0.1186339E+00
        -11   -1    0    0    0    0  0.00000000000E+00  0.00000000000E+00  0.45593999997E+02  0.45594000000E+02  0.51100000000E-03 0. -1.
         11   -1    0    0    0    0 -0.00000000000E+00 -0.00000000000E+00 -0.45593999997E+02  0.45594000000E+02  0.51100000000E-03 0.  1.
    9900012    2    1    2    0    0 -0.69374527327E+00  0.54359161542E+00  0.78488553794E+00  0.90007822193E+02  0.90000084646E+02 0.  0.
        -12    1    1    2    0    0  0.69374527327E+00 -0.54359161542E+00 -0.78488553794E+00  0.11801778070E+01  0.00000000000E+00 0.  1.
         11    1    3    3    0    0 -0.26452038676E+02 -0.15295629172E+02  0.16715359659E+02  0.34829152598E+02  0.51100000000E-03 0. -1.
        -11    1    3    3    0    0 -0.91820666937E+01 -0.24943466673E+01  0.47443805472E+01  0.10632086395E+02  0.51100000000E-03 0.  1.
        -12    1    3    3    0    0  0.34940360096E+02  0.18333567455E+02 -0.20674854668E+02  0.44546583201E+02  0.00000000000E+00 0.  1.
</event>
<event>
 7    1  0.2578619E-015  0.9000780E+02  0.7816164E-02  0.1186339E+00
        -11   -1    0    0    0    0  0.00000000000E+00  0.00000000000E+00  0.45593999997E+02  0.45594000000E+02  0.51100000000E-03 0.  1.
         11   -1    0    0    0    0 -0.00000000000E+00 -0.00000000000E+00 -0.45593999997E+02  0.45594000000E+02  0.51100000000E-03 0. -1.
    9900012    2    1    2    0    0 -0.81763908412E+00 -0.24510263912E+00  0.81501978658E+00  0.90007802462E+02  0.90000064655E+02 0.  0.
        -12    1    1    2    0    0  0.81763908412E+00  0.24510263912E+00 -0.81501978658E+00  0.11801975377E+01  0.00000000000E+00 0.  1.
         11    1    3    3    0    0  0.32774955152E+02  0.13112343368E+02 -0.24372524915E+02  0.42896983633E+02  0.51100000000E-03 0. -1.
        -11    1    3    3    0    0 -0.87611054664E+01 -0.30226672147E+01 -0.13036096103E+01  0.93591070280E+01  0.51100000000E-03 0.  1.
        -12    1    3    3    0    0 -0.24831488770E+02 -0.10334778792E+02  0.26491154312E+02  0.37751711802E+02  0.00000000000E+00 0.  1.
</event>
<event>
 7    1  0.2578619E-015  0.9000778E+02  0.7816164E-02  0.1186339E+00
        -11   -1    0    0    0    0  0.00000000000E+00  0.00000000000E+00  0.45593999997E+02  0.45594000000E+02  0.51100000000E-03 0.  1.
         11   -1    0    0    0    0 -0.00000000000E+00 -0.00000000000E+00 -0.45593999997E+02  0.45594000000E+02  0.51100000000E-03 0. -1.
    9900012    2    1    2    0    0 -0.21855787089E+00  0.10585127567E+01 -0.47403557207E+00  0.90007776918E+02  0.90000038774E+02 0.  0.
        -12    1    1    2    0    0  0.21855787089E+00 -0.10585127567E+01  0.47403557207E+00  0.11802230817E+01  0.00000000000E+00 0.  1.
         11    1    3    3    0    0 -0.14193280859E+02  0.32794573399E+02 -0.24876628636E+02  0.43540554872E+02  0.51100000000E-03 0. -1.
        -11    1    3    3    0    0  0.74597047426E+01 -0.60478003123E+01 -0.11270493766E+01  0.96691945902E+01  0.51100000000E-03 0.  1.
        -12    1    3    3    0    0  0.65150182453E+01 -0.25688260330E+02  0.25529642441E+02  0.36798027456E+02  0.00000000000E+00 0.  1.
</event>
<event>
 7    1  0.2578619E-015  0.9000772E+02  0.7816164E-02  0.1186339E+00
        -11   -1    0    0    0    0  0.00000000000E+00  0.00000000000E+00  0.45593999997E+02  0.45594000000E+02  0.51100000000E-03 0.  1.
         11   -1    0    0    0    0 -0.00000000000E+00 -0.00000000000E+00 -0.45593999997E+02  0.45594000000E+02  0.51100000000E-03 0. -1.
    9900012    2    1    2    0    0 -0.52776397209E+00  0.10403884511E+01 -0.17924052177E+00  0.90007716092E+02  0.89999977144E+02 0.  0.
        -12    1    1    2    0    0  0.52776397209E+00 -0.10403884511E+01  0.17924052177E+00  0.11802839083E+01  0.00000000000E+00 0.  1.
         11    1    3    3    0    0 -0.15571450971E+02 -0.19318740215E+02  0.21997708276E+02  0.33159960472E+02  0.51100000000E-03 0. -1.
        -11    1    3    3    0    0 -0.13378205418E+02  0.27489286472E+00  0.32215516649E+01  0.13763369561E+02  0.51100000000E-03 0.  1.
        -12    1    3    3    0    0  0.28421892417E+02  0.20084235801E+02 -0.25398500463E+02  0.43084386059E+02  0.00000000000E+00 0.  1.
</event>
<event>
 7    1  0.2578619E-015  0.9000766E+02  0.7816164E-02  0.1186339E+00
        -11   -1    0    0    0    0  0.00000000000E+00  0.00000000000E+00  0.45593999997E+02  0.45594000000E+02  0.51100000000E-03 0.  1.
         11   -1    0    0    0    0 -0.00000000000E+00 -0.00000000000E+00 -0.45593999997E+02  0.45594000000E+02  0.51100000000E-03 0. -1.
    9900012    2    1    2    0    0 -0.11161958288E+01  0.27074705401E+00  0.27204095514E+00  0.90007659635E+02  0.89999919942E+02 0.  0.
        -12    1    1    2    0    0  0.11161958288E+01 -0.27074705401E+00 -0.27204095514E+00  0.11803403648E+01  0.00000000000E+00 0.  1.
         11    1    3    3    0    0 -0.62759489088E+01  0.83760159421E+01 -0.11893503755E+02  0.15842998756E+02  0.51100000000E-03 0. -1.
        -11    1    3    3    0    0 -0.18111202769E+02 -0.33862023146E+02  0.77097220217E+01  0.39167487681E+02  0.51100000000E-03 0.  1.
         12    1    3    3    0    0  0.23270955849E+02  0.25756754258E+02  0.44558226882E+01  0.34997173198E+02  0.00000000000E+00 0. -1.
</event>
<event>
 7    1  0.2578619E-015  0.9000740E+02  0.7816164E-02  0.1186340E+00
        -11   -1    0    0    0    0  0.00000000000E+00  0.00000000000E+00  0.45593999997E+02  0.45594000000E+02  0.51100000000E-03 0.  1.
         11   -1    0    0    0    0 -0.00000000000E+00 -0.00000000000E+00 -0.45593999997E+02  0.45594000000E+02  0.51100000000E-03 0. -1.
    9900012    2    1    2    0    0 -0.93099267963E+00 -0.59025778678E+00  0.42269411291E+00  0.90007397638E+02  0.89999654486E+02 0.  0.
        -12    1    1    2    0    0  0.93099267963E+00  0.59025778678E+00 -0.42269411291E+00  0.11806023621E+01  0.00000000000E+00 0.  1.
         11    1    3    3    0    0 -0.23351950507E+02 -0.13174587516E+02 -0.24017382988E+02  0.35996083601E+02  0.51100000000E-03 0. -1.
        -11    1    3    3    0    0 -0.85021843934E+01 -0.33455832793E+01 -0.30954118599E+01  0.96468462091E+01  0.51100000000E-03 0.  1.
        -12    1    3    3    0    0  0.30923142221E+02  0.15929913009E+02  0.27535488961E+02  0.44364467828E+02  0.00000000000E+00 0.  1.
</event>
<event>
 7    1  0.2578619E-015  0.9000771E+02  0.7816164E-02  0.1186339E+00
        -11   -1    0    0    0    0  0.00000000000E+00  0.00000000000E+00  0.45593999997E+02  0.45594000000E+02  0.51100000000E-03 0. -1.
         11   -1    0    0    0    0 -0.00000000000E+00 -0.00000000000E+00 -0.45593999997E+02  0.45594000000E+02  0.51100000000E-03 0.  1.
    9900012    2    1    2    0    0 -0.35472477911E+00 -0.11223523301E+01  0.87086860257E-01  0.90007708281E+02  0.89999969230E+02 0.  0.
        -12    1    1    2    0    0  0.35472477911E+00  0.11223523301E+01 -0.87086860257E-01  0.11802917195E+01  0.00000000000E+00 0.  1.
         11    1    3    3    0    0 -0.27818475687E+02 -0.86059848418E+01 -0.18881770241E+02  0.34705213042E+02  0.51100000000E-03 0. -1.
        -11    1    3    3    0    0 -0.10039362729E+02 -0.17820415493E+01 -0.32948108260E+01  0.10715421351E+02  0.51100000000E-03 0.  1.
        -12    1    3    3    0    0  0.37503113637E+02  0.92656740610E+01  0.22263667927E+02  0.44587073887E+02  0.00000000000E+00 0.  1.
</event>
<event>
 7    1  0.2578619E-015  0.9000766E+02  0.7816164E-02  0.1186339E+00
        -11   -1    0    0    0    0  0.00000000000E+00  0.00000000000E+00  0.45593999997E+02  0.45594000000E+02  0.51100000000E-03 0.  1.
         11   -1    0    0    0    0 -0.00000000000E+00 -0.00000000000E+00 -0.45593999997E+02  0.45594000000E+02  0.51100000000E-03 0. -1.
    9900012    2    1    2    0    0  0.18637597636E+00  0.97255401825E+00 -0.64234283129E+00  0.90007660373E+02  0.89999920690E+02 0.  0.
        -12    1    1    2    0    0 -0.18637597636E+00 -0.97255401825E+00  0.64234283129E+00  0.11803396273E+01  0.00000000000E+00 0.  1.
         11    1    3    3    0    0 -0.28403875914E+01  0.54609360985E+01 -0.31931684530E+01  0.69344033465E+01  0.51100000000E-03 0. -1.
        -11    1    3    3    0    0  0.14614997466E+02  0.36983290879E+02  0.41570933436E+01  0.39983038660E+02  0.51100000000E-03 0.  1.
         12    1    3    3    0    0 -0.11588233898E+02 -0.41471672959E+02 -0.16062677218E+01  0.43090218366E+02  0.00000000000E+00 0. -1.
</event>
<event>
 7    1  0.2578619E-015  0.9000772E+02  0.7816164E-02  0.1186339E+00
        -11   -1    0    0    0    0  0.00000000000E+00  0.00000000000E+00  0.45593999997E+02  0.45594000000E+02  0.51100000000E-03 0. -1.
         11   -1    0    0    0    0 -0.00000000000E+00 -0.00000000000E+00 -0.45593999997E+02  0.45594000000E+02  0.51100000000E-03 0.  1.
    9900012    2    1    2    0    0 -0.50870763325E+00 -0.41025650438E+00  0.98283722004E+00  0.90007719162E+02  0.89999980255E+02 0.  0.
        -12    1    1    2    0    0  0.50870763325E+00  0.41025650438E+00 -0.98283722004E+00  0.11802808380E+01  0.00000000000E+00 0.  1.
         11    1    3    3    0    0  0.11315522374E+02  0.65040356561E+01 -0.57678683993E+01  0.14269261808E+02  0.51100000000E-03 0. -1.
        -11    1    3    3    0    0  0.25720614652E+02 -0.88865016937E+01 -0.16220098221E+02  0.31679828234E+02  0.51100000000E-03 0.  1.
         12    1    3    3    0    0 -0.37544844658E+02  0.19722095332E+01  0.22970803840E+02  0.44058629120E+02  0.00000000000E+00 0. -1.
</event>
<event>
 7    1  0.2578619E-015  0.9000775E+02  0.7816164E-02  0.1186339E+00
        -11   -1    0    0    0    0  0.00000000000E+00  0.00000000000E+00  0.45593999997E+02  0.45594000000E+02  0.51100000000E-03 0. -1.
         11   -1    0    0    0    0 -0.00000000000E+00 -0.00000000000E+00 -0.45593999997E+02  0.45594000000E+02  0.51100000000E-03 0.  1.
    9900012    2    1    2    0    0  0.16900584919E+00 -0.11335686703E+01 -0.28184696357E+00  0.90007754848E+02  0.90000016412E+02 0.  0.
        -12    1    1    2    0    0 -0.16900584919E+00  0.11335686703E+01  0.28184696357E+00  0.11802451518E+01  0.00000000000E+00 0.  1.
         11    1    3    3    0    0 -0.95596067726E+01  0.11347662035E+02 -0.28164187935E+00  0.14840311240E+02  0.51100000000E-03 0. -1.
        -11    1    3    3    0    0 -0.61258291409E+01 -0.19885892250E+02 -0.32305892837E+02  0.38427141521E+02  0.51100000000E-03 0.  1.
         12    1    3    3    0    0  0.15854441763E+02  0.74046615447E+01  0.32305687753E+02  0.36740302086E+02  0.00000000000E+00 0. -1.
</event>
<event>
 7    1  0.2578619E-015  0.9000773E+02  0.7816164E-02  0.1186339E+00
        -11   -1    0    0    0    0  0.00000000000E+00  0.00000000000E+00  0.45593999997E+02  0.45594000000E+02  0.51100000000E-03 0. -1.
         11   -1    0    0    0    0 -0.00000000000E+00 -0.00000000000E+00 -0.45593999997E+02  0.45594000000E+02  0.51100000000E-03 0.  1.
    9900012    2    1    2    0    0 -0.77742672259E+00 -0.76600128435E+00  0.44932055527E+00  0.90007729168E+02  0.89999990393E+02 0.  0.
        -12    1    1    2    0    0  0.77742672259E+00  0.76600128435E+00 -0.44932055527E+00  0.11802708325E+01  0.00000000000E+00 0.  1.
         11    1    3    3    0    0  0.16707025227E+02 -0.27928848163E+02  0.22734214330E+02  0.39698737425E+02  0.51100000000E-03 0. -1.
        -11    1    3    3    0    0  0.75758708919E+01  0.99651766322E-01 -0.72238510935E+01  0.10468417986E+02  0.51100000000E-03 0.  1.
        -12    1    3    3    0    0 -0.25060322842E+02  0.27063195112E+02 -0.15061042681E+02  0.39840573757E+02  0.00000000000E+00 0.  1.
</event>
<event>
 7    1  0.2578619E-015  0.9000777E+02  0.7816164E-02  0.1186339E+00
        -11   -1    0    0    0    0  0.00000000000E+00  0.00000000000E+00  0.45593999997E+02  0.45594000000E+02  0.51100000000E-03 0. -1.
         11   -1    0    0    0    0 -0.00000000000E+00 -0.00000000000E+00 -0.45593999997E+02  0.45594000000E+02  0.51100000000E-03 0.  1.
    9900012    2    1    2    0    0 -0.54720913398E+00  0.23610415309E+00  0.10187101022E+01  0.90007765583E+02  0.90000027288E+02 0.  0.
        -12    1    1    2    0    0  0.54720913398E+00 -0.23610415309E+00 -0.10187101022E+01  0.11802344173E+01  0.00000000000E+00 0.  1.
         11    1    3    3    0    0  0.75358531152E+01  0.21857955822E+02  0.16143959662E+02  0.28199055813E+02  0.51100000000E-03 0. -1.
        -11    1    3    3    0    0  0.15248113924E+02  0.87694719593E+01  0.53250899628E+01  0.18378389485E+02  0.51100000000E-03 0.  1.
        -12    1    3    3    0    0 -0.23331176173E+02 -0.30391323628E+02 -0.20450339523E+02  0.43430320285E+02  0.00000000000E+00 0.  1.
</event>
<event>
 7    1  0.2578619E-015  0.9000776E+02  0.7816164E-02  0.1186339E+00
        -11   -1    0    0    0    0  0.00000000000E+00  0.00000000000E+00  0.45593999997E+02  0.45594000000E+02  0.51100000000E-03 0. -1.
         11   -1    0    0    0    0 -0.00000000000E+00 -0.00000000000E+00 -0.45593999997E+02  0.45594000000E+02  0.51100000000E-03 0.  1.
    9900012    2    1    2    0    0 -0.65243157299E+00 -0.85068553597E+00 -0.49358643585E+00  0.90007762563E+02  0.90000024229E+02 0.  0.
        -12    1    1    2    0    0  0.65243157299E+00  0.85068553597E+00  0.49358643585E+00  0.11802374372E+01  0.00000000000E+00 0.  1.
         11    1    3    3    0    0 -0.28991358549E+02 -0.21434244398E+02 -0.17378268863E+02  0.40024116884E+02  0.51100000000E-03 0. -1.
        -11    1    3    3    0    0  0.37098719820E+01 -0.82840389303E+01  0.26575761527E+01  0.94578624641E+01  0.51100000000E-03 0.  1.
        -12    1    3    3    0    0  0.24629054994E+02  0.28867597793E+02  0.14227106275E+02  0.40525783214E+02  0.00000000000E+00 0.  1.
</event>
<event>
 7    1  0.2578619E-015  0.9000774E+02  0.7816164E-02  0.1186339E+00
        -11   -1    0    0    0    0  0.00000000000E+00  0.00000000000E+00  0.45593999997E+02  0.45594000000E+02  0.51100000000E-03 0.  1.
         11   -1    0    0    0    0 -0.00000000000E+00 -0.00000000000E+00 -0.45593999997E+02  0.45594000000E+02  0.51100000000E-03 0. -1.
    9900012    2    1    2    0    0  0.10043319597E+01 -0.57204142108E+00  0.23896397153E+00  0.90007738227E+02  0.89999999572E+02 0.  0.
        -12    1    1    2    0    0 -0.10043319597E+01  0.57204142108E+00 -0.23896397153E+00  0.11802617728E+01  0.00000000000E+00 0.  1.
         11    1    3    3    0    0  0.14351171462E+02 -0.31210382395E+02 -0.23804190184E+02  0.41793343515E+02  0.51100000000E-03 0. -1.
        -11    1    3    3    0    0  0.54726688195E+01  0.72314825447E+00  0.71750398575E+01  0.90528583675E+01  0.51100000000E-03 0.  1.
        -12    1    3    3    0    0 -0.18819508321E+02  0.29915192720E+02  0.16868114298E+02  0.39161536345E+02  0.00000000000E+00 0.  1.
</event>
<event>
 7    1  0.2578619E-015  0.9000786E+02  0.7816164E-02  0.1186339E+00
        -11   -1    0    0    0    0  0.00000000000E+00  0.00000000000E+00  0.45593999997E+02  0.45594000000E+02  0.51100000000E-03 0.  1.
         11   -1    0    0    0    0 -0.00000000000E+00 -0.00000000000E+00 -0.45593999997E+02  0.45594000000E+02  0.51100000000E-03 0. -1.
    9900012    2    1    2    0    0 -0.12180427913E+00  0.40827088878E-01 -0.11731230540E+01  0.90007864061E+02  0.90000127067E+02 0.  0.
        -12    1    1    2    0    0  0.12180427913E+00 -0.40827088878E-01  0.11731230540E+01  0.11801359385E+01  0.00000000000E+00 0.  1.
         11    1    3    3    0    0 -0.16741141792E+01  0.47034083112E+01  0.68017004227E+01  0.84372884820E+01  0.51100000000E-03 0. -1.
        -11    1    3    3    0    0  0.60852667311E+01  0.89901133054E+01  0.34793464688E+02  0.36447740584E+02  0.51100000000E-03 0.  1.
         12    1    3    3    0    0 -0.45329568311E+01 -0.13652694528E+02 -0.42768288165E+02  0.45122834995E+02  0.00000000000E+00 0. -1.
</event>
<event>
 7    1  0.2578619E-015  0.9000769E+02  0.7816164E-02  0.1186339E+00
        -11   -1    0    0    0    0  0.00000000000E+00  0.00000000000E+00  0.45593999997E+02  0.45594000000E+02  0.51100000000E-03 0.  1.
         11   -1    0    0    0    0 -0.00000000000E+00 -0.00000000000E+00 -0.45593999997E+02  0.45594000000E+02  0.51100000000E-03 0. -1.
    9900012    2    1    2    0    0  0.33549763459E+00 -0.10192426619E+00 -0.11270242664E+01  0.90007690331E+02  0.89999951043E+02 0.  0.
        -12    1    1    2    0    0 -0.33549763459E+00  0.10192426619E+00  0.11270242664E+01  0.11803096695E+01  0.00000000000E+00 0.  1.
         11    1    3    3    0    0 -0.70684086259E+01 -0.34750462230E+02  0.70189686330E+01  0.36150006178E+02  0.51100000000E-03 0. -1.
        -11    1    3    3    0    0 -0.46000076639E+01 -0.76739156335E+01 -0.35531111385E+01  0.96267154670E+01  0.51100000000E-03 0.  1.
        -12    1    3    3    0    0  0.12003913924E+02  0.42322453598E+02 -0.45928817609E+01  0.44230968686E+02  0.00000000000E+00 0.  1.
</event>
<event>
 7    1  0.2578619E-015  0.9000768E+02  0.7816164E-02  0.1186339E+00
        -11   -1    0    0    0    0  0.00000000000E+00  0.00000000000E+00  0.45593999997E+02  0.45594000000E+02  0.51100000000E-03 0. -1.
         11   -1    0    0    0    0 -0.00000000000E+00 -0.00000000000E+00 -0.45593999997E+02  0.45594000000E+02  0.51100000000E-03 0.  1.
    9900012    2    1    2    0    0 -0.89364159036E+00 -0.74821052287E+00 -0.18639010793E+00  0.90007679895E+02  0.89999940469E+02 0.  0.
        -12    1    1    2    0    0  0.89364159036E+00  0.74821052287E+00  0.18639010793E+00  0.11803201053E+01  0.00000000000E+00 0.  1.
         11    1    3    3    0    0 -0.89775406641E+01  0.27415797091E+01 -0.19212011953E+01  0.95814148209E+01  0.51100000000E-03 0. -1.
        -11    1    3    3    0    0 -0.28632945806E+02  0.30428659995E+00 -0.22373189781E+02  0.36338654311E+02  0.51100000000E-03 0.  1.
         12    1    3    3    0    0  0.36716844880E+02 -0.37940768319E+01  0.24108000869E+02  0.44087610763E+02  0.00000000000E+00 0. -1.
</event>
<event>
 7    1  0.2578619E-015  0.9000772E+02  0.7816164E-02  0.1186339E+00
        -11   -1    0    0    0    0  0.00000000000E+00  0.00000000000E+00  0.45593999997E+02  0.45594000000E+02  0.51100000000E-03 0.  1.
         11   -1    0    0    0    0 -0.00000000000E+00 -0.00000000000E+00 -0.45593999997E+02  0.45594000000E+02  0.51100000000E-03 0. -1.
    9900012    2    1    2    0    0 -0.64215755135E+00 -0.72120426080E+00 -0.67864713489E+00  0.90007718745E+02  0.89999979833E+02 0.  0.
        -12    1    1    2    0    0  0.64215755135E+00  0.72120426080E+00  0.67864713489E+00  0.11802812547E+01  0.00000000000E+00 0.  1.
         11    1    3    3    0    0  0.11126125748E+02 -0.51305271185E+00 -0.12483570599E+02  0.16730015912E+02  0.51100000000E-03 0. -1.
        -11    1    3    3    0    0  0.20963364134E+02  0.22721320763E+02  0.12401026106E+02  0.33309255497E+02  0.51100000000E-03 0.  1.
         12    1    3    3    0    0 -0.32731647433E+02 -0.22929472312E+02 -0.59610264244E+00  0.39968447337E+02  0.00000000000E+00 0. -1.
</event>
<event>
 7    1  0.2578619E-015  0.9000790E+02  0.7816164E-02  0.1186339E+00
        -11   -1    0    0    0    0  0.00000000000E+00  0.00000000000E+00  0.45593999997E+02  0.45594000000E+02  0.51100000000E-03 0.  1.
         11   -1    0    0    0    0 -0.00000000000E+00 -0.00000000000E+00 -0.45593999997E+02  0.45594000000E+02  0.51100000000E-03 0. -1.
    9900012    2    1    2    0    0 -0.91795042485E+00  0.34924913800E+00 -0.65423415674E+00  0.90007902430E+02  0.90000165942E+02 0.  0.
        -12    1    1    2    0    0  0.91795042485E+00 -0.34924913800E+00  0.65423415674E+00  0.11800975700E+01  0.00000000000E+00 0.  1.
         11    1    3    3    0    0 -0.35620358165E+02 -0.12861804185E+02 -0.31073053288E+01  0.37998569307E+02  0.51100000000E-03 0. -1.
        -11    1    3    3    0    0 -0.28278326666E+01 -0.72642988082E+01  0.48653524975E+01  0.91890331348E+01  0.51100000000E-03 0.  1.
        -12    1    3    3    0    0  0.37530240407E+02  0.20475352131E+02 -0.24122813255E+01  0.42820299988E+02  0.00000000000E+00 0.  1.
</event>
<event>
 7    1  0.2578619E-015  0.9000775E+02  0.7816164E-02  0.1186339E+00
        -11   -1    0    0    0    0  0.00000000000E+00  0.00000000000E+00  0.45593999997E+02  0.45594000000E+02  0.51100000000E-03 0.  1.
         11   -1    0    0    0    0 -0.00000000000E+00 -0.00000000000E+00 -0.45593999997E+02  0.45594000000E+02  0.51100000000E-03 0. -1.
    9900012    2    1    2    0    0 -0.40531521400E+00  0.16874294014E+00 -0.10955574359E+01  0.90007745494E+02  0.90000006935E+02 0.  0.
        -12    1    1    2    0    0  0.40531521400E+00 -0.16874294014E+00  0.10955574359E+01  0.11802545056E+01  0.00000000000E+00 0.  1.
         11    1    3    3    0    0 -0.11343787957E+02 -0.66155901194E+01 -0.33433978997E+02  0.35920446959E+02  0.51100000000E-03 0. -1.
        -11    1    3    3    0    0 -0.19582863651E+01 -0.74967079719E+01 -0.69059734308E+01  0.10379209276E+02  0.51100000000E-03 0.  1.
        -12    1    3    3    0    0  0.12896759108E+02  0.14281041031E+02  0.39244394992E+02  0.43708089260E+02  0.00000000000E+00 0.  1.
</event>
<event>
 7    1  0.2578619E-015  0.9000721E+02  0.7816164E-02  0.1186340E+00
        -11   -1    0    0    0    0  0.00000000000E+00  0.00000000000E+00  0.45593999997E+02  0.45594000000E+02  0.51100000000E-03 0. -1.
         11   -1    0    0    0    0 -0.00000000000E+00 -0.00000000000E+00 -0.45593999997E+02  0.45594000000E+02  0.51100000000E-03 0.  1.
    9900012    2    1    2    0    0  0.87377516894E+00  0.33916518328E+00 -0.71814898893E+00  0.90007214652E+02  0.89999469084E+02 0.  0.
        -12    1    1    2    0    0 -0.87377516894E+00 -0.33916518328E+00  0.71814898893E+00  0.11807853479E+01  0.00000000000E+00 0.  1.
         11    1    3    3    0    0 -0.10072152979E+02 -0.80126682064E+01  0.31454114364E+02  0.33985473781E+02  0.51100000000E-03 0. -1.
        -11    1    3    3    0    0  0.10137282184E+01 -0.31731285118E+01  0.10343017586E+02  0.10866204604E+02  0.51100000000E-03 0.  1.
        -12    1    3    3    0    0  0.99321999290E+01  0.11524961902E+02 -0.42515280939E+02  0.45155536267E+02  0.00000000000E+00 0.  1.
</event>
<event>
 7    1  0.2578619E-015  0.9000774E+02  0.7816164E-02  0.1186339E+00
        -11   -1    0    0    0    0  0.00000000000E+00  0.00000000000E+00  0.45593999997E+02  0.45594000000E+02  0.51100000000E-03 0.  1.
         11   -1    0    0    0    0 -0.00000000000E+00 -0.00000000000E+00 -0.45593999997E+02  0.45594000000E+02  0.51100000000E-03 0. -1.
    9900012    2    1    2    0    0  0.78923840475E-01  0.45507770660E+00 -0.10861311597E+01  0.90007743423E+02  0.90000004836E+02 0.  0.
        -12    1    1    2    0    0 -0.78923840475E-01 -0.45507770660E+00  0.10861311597E+01  0.11802565771E+01  0.00000000000E+00 0.  1.
         11    1    3    3    0    0 -0.32341001578E+01  0.29931050842E+01  0.75566573350E+01  0.87476369504E+01  0.51100000000E-03 0. -1.
        -11    1    3    3    0    0 -0.31209323031E+02 -0.99297209840E+01  0.17683808419E+02  0.37220132769E+02  0.51100000000E-03 0.  1.
         12    1    3    3    0    0  0.34522347029E+02  0.73916936064E+01 -0.26326596914E+02  0.44039973704E+02  0.00000000000E+00 0. -1.
</event>
<event>
 7    1  0.2578619E-015  0.9000784E+02  0.7816164E-02  0.1186339E+00
        -11   -1    0    0    0    0  0.00000000000E+00  0.00000000000E+00  0.45593999997E+02  0.45594000000E+02  0.51100000000E-03 0. -1.
         11   -1    0    0    0    0 -0.00000000000E+00 -0.00000000000E+00 -0.45593999997E+02  0.45594000000E+02  0.51100000000E-03 0.  1.
    9900012    2    1    2    0    0 -0.66729953023E+00  0.76706665603E+00  0.59924158421E+00  0.90007843064E+02  0.90000105792E+02 0.  0.
        -12    1    1    2    0    0  0.66729953023E+00 -0.76706665603E+00 -0.59924158421E+00  0.11801569362E+01  0.00000000000E+00 0.  1.
         11    1    3    3    0    0  0.92629365594E+01  0.15150473754E+01  0.12860526518E+01  0.94737159519E+01  0.51100000000E-03 0. -1.
        -11    1    3    3    0    0  0.34104381762E+02  0.80003133507E+01 -0.51943238965E+01  0.35413201918E+02  0.51100000000E-03 0.  1.
         12    1    3    3    0    0 -0.44034617852E+02 -0.87482940701E+01  0.45075128289E+01  0.45120925194E+02  0.00000000000E+00 0. -1.
</event>
<event>
 7    1  0.2578619E-015  0.9000785E+02  0.7816164E-02  0.1186339E+00
        -11   -1    0    0    0    0  0.00000000000E+00  0.00000000000E+00  0.45593999997E+02  0.45594000000E+02  0.51100000000E-03 0.  1.
         11   -1    0    0    0    0 -0.00000000000E+00 -0.00000000000E+00 -0.45593999997E+02  0.45594000000E+02  0.51100000000E-03 0. -1.
    9900012    2    1    2    0    0 -0.43769474595E+00 -0.10299942299E+01 -0.37455140158E+00  0.90007850197E+02  0.90000113020E+02 0.  0.
        -12    1    1    2    0    0  0.43769474595E+00  0.10299942299E+01  0.37455140158E+00  0.11801498027E+01  0.00000000000E+00 0.  1.
         11    1    3    3    0    0  0.42517145500E+00 -0.70401157752E+01  0.85010167353E+01  0.11045871930E+02  0.51100000000E-03 0. -1.
        -11    1    3    3    0    0  0.67961486684E+01 -0.20524935757E+02  0.26423893571E+02  0.34142096835E+02  0.51100000000E-03 0.  1.
         12    1    3    3    0    0 -0.76590148694E+01  0.26535057303E+02 -0.35299461708E+02  0.44819881433E+02  0.00000000000E+00 0. -1.
</event>
<event>
 7    1  0.2578619E-015  0.9000797E+02  0.7816164E-02  0.1186339E+00
        -11   -1    0    0    0    0  0.00000000000E+00  0.00000000000E+00  0.45593999997E+02  0.45594000000E+02  0.51100000000E-03 0.  1.
         11   -1    0    0    0    0 -0.00000000000E+00 -0.00000000000E+00 -0.45593999997E+02  0.45594000000E+02  0.51100000000E-03 0. -1.
    9900012    2    1    2    0    0  0.82260624316E+00 -0.26056198467E+00 -0.80492032215E+00  0.90007970210E+02  0.90000234617E+02 0.  0.
        -12    1    1    2    0    0 -0.82260624316E+00  0.26056198467E+00  0.80492032215E+00  0.11800297895E+01  0.00000000000E+00 0.  1.
         11    1    3    3    0    0 -0.83907040710E+01 -0.31283866505E+02  0.76324189613E+01  0.33276689104E+02  0.51100000000E-03 0. -1.
        -11    1    3    3    0    0 -0.32663580879E+01  0.17429328163E+01  0.16113871489E+02  0.16533715994E+02  0.51100000000E-03 0.  1.
         12    1    3    3    0    0  0.12479668402E+02  0.29280371704E+02 -0.24551210772E+02  0.40197565112E+02  0.00000000000E+00 0. -1.
</event>
<event>
 7    1  0.2578619E-015  0.9000763E+02  0.7816164E-02  0.1186339E+00
        -11   -1    0    0    0    0  0.00000000000E+00  0.00000000000E+00  0.45593999997E+02  0.45594000000E+02  0.51100000000E-03 0.  1.
         11   -1    0    0    0    0 -0.00000000000E+00 -0.00000000000E+00 -0.45593999997E+02  0.45594000000E+02  0.51100000000E-03 0. -1.
    9900012    2    1    2    0    0 -0.32880900240E+00  0.10884769008E+01 -0.31683667575E+00  0.90007625990E+02  0.89999885853E+02 0.  0.
        -12    1    1    2    0    0  0.32880900240E+00 -0.10884769008E+01  0.31683667575E+00  0.11803740097E+01  0.00000000000E+00 0.  1.
         11    1    3    3    0    0  0.70964018438E+01  0.34494375206E+01 -0.49327642654E+01  0.93053587731E+01  0.51100000000E-03 0. -1.
        -11    1    3    3    0    0 -0.10898052087E+02  0.27803833540E+02  0.29099750102E+02  0.41696716358E+02  0.51100000000E-03 0.  1.
         12    1    3    3    0    0  0.34728412407E+01 -0.30164794159E+02 -0.24483822513E+02  0.39005550859E+02  0.00000000000E+00 0. -1.
</event>
<event>
 7    1  0.2578619E-015  0.9000774E+02  0.7816164E-02  0.1186339E+00
        -11   -1    0    0    0    0  0.00000000000E+00  0.00000000000E+00  0.45593999997E+02  0.45594000000E+02  0.51100000000E-03 0.  1.
         11   -1    0    0    0    0 -0.00000000000E+00 -0.00000000000E+00 -0.45593999997E+02  0.45594000000E+02  0.51100000000E-03 0. -1.
    9900012    2    1    2    0    0 -0.69333567727E+00 -0.91741709929E+00 -0.26578490151E+00  0.90007741507E+02  0.90000002895E+02 0.  0.
        -12    1    1    2    0    0  0.69333567727E+00  0.91741709929E+00  0.26578490151E+00  0.11802584926E+01  0.00000000000E+00 0.  1.
         11    1    3    3    0    0 -0.62592168792E+01 -0.53381653055E+01  0.59396815532E+01  0.10146606427E+02  0.51100000000E-03 0. -1.
        -11    1    3    3    0    0  0.40046841038E+02  0.70394717052E+01  0.96945808575E+01  0.41800580585E+02  0.51100000000E-03 0.  1.
         12    1    3    3    0    0 -0.34480959836E+02 -0.26187234989E+01 -0.15900047312E+02  0.38060554495E+02  0.00000000000E+00 0. -1.
</event>
<event>
 7    1  0.2578619E-015  0.9000759E+02  0.7816164E-02  0.1186339E+00
        -11   -1    0    0    0    0  0.00000000000E+00  0.00000000000E+00  0.45593999997E+02  0.45594000000E+02  0.51100000000E-03 0. -1.
         11   -1    0    0    0    0 -0.00000000000E+00 -0.00000000000E+00 -0.45593999997E+02  0.45594000000E+02  0.51100000000E-03 0.  1.
    9900012    2    1    2    0    0 -0.21230940966E+00 -0.10291702834E+01  0.53767772451E+00  0.90007591557E+02  0.89999850965E+02 0.  0.
        -12    1    1    2    0    0  0.21230940966E+00  0.10291702834E+01 -0.53767772451E+00  0.11804084434E+01  0.00000000000E+00 0.  1.
         11    1    3    3    0    0 -0.17526075785E+02  0.83000736166E+01  0.71798270449E+01  0.20678599351E+02  0.51100000000E-03 0. -1.
        -11    1    3    3    0    0 -0.25184929386E+02 -0.42856124446E+01 -0.71513873445E+01  0.26529030955E+02  0.51100000000E-03 0.  1.
        -12    1    3    3    0    0  0.42498695761E+02 -0.50436314554E+01  0.50923802412E+00  0.42799961250E+02  0.00000000000E+00 0.  1.
</event>
<event>
 7    1  0.2578619E-015  0.9000718E+02  0.7816164E-02  0.1186340E+00
        -11   -1    0    0    0    0  0.00000000000E+00  0.00000000000E+00  0.45593999997E+02  0.45594000000E+02  0.51100000000E-03 0. -1.
         11   -1    0    0    0    0 -0.00000000000E+00 -0.00000000000E+00 -0.45593999997E+02  0.45594000000E+02  0.51100000000E-03 0.  1.
    9900012    2    1    2    0    0  0.89109776077E-02  0.11578302208E+01  0.23171006392E+00  0.90007178346E+02  0.89999432298E+02 0.  0.
        -12    1    1    2    0    0 -0.89109776077E-02 -0.11578302208E+01 -0.23171006392E+00  0.11808216544E+01  0.00000000000E+00 0.  1.
         11    1    3    3    0    0  0.16691653581E+02  0.26760460868E+02  0.18206835188E+02  0.36417336709E+02  0.51100000000E-03 0. -1.
        -11    1    3    3    0    0  0.32447027993E+01  0.94250519614E+01 -0.16228755479E+01  0.10099179473E+02  0.51100000000E-03 0.  1.
        -12    1    3    3    0    0 -0.19927445403E+02 -0.35027682608E+02 -0.16352249576E+02  0.43490662163E+02  0.00000000000E+00 0.  1.
</event>
<event>
 7    1  0.2578619E-015  0.9000762E+02  0.7816164E-02  0.1186339E+00
        -11   -1    0    0    0    0  0.00000000000E+00  0.00000000000E+00  0.45593999997E+02  0.45594000000E+02  0.51100000000E-03 0. -1.
         11   -1    0    0    0    0 -0.00000000000E+00 -0.00000000000E+00 -0.45593999997E+02  0.45594000000E+02  0.51100000000E-03 0.  1.
    9900012    2    1    2    0    0 -0.13588781137E+00  0.11394034635E+01 -0.27674059862E+00  0.90007622472E+02  0.89999882288E+02 0.  0.
        -12    1    1    2    0    0  0.13588781137E+00 -0.11394034635E+01  0.27674059862E+00  0.11803775281E+01  0.00000000000E+00 0.  1.
         11    1    3    3    0    0  0.18749662623E+02  0.30492163236E+02  0.68694306189E+01  0.36448744074E+02  0.51100000000E-03 0. -1.
        -11    1    3    3    0    0  0.89263351367E+01  0.28393894366E+01  0.29772353704E+01  0.98288108160E+01  0.51100000000E-03 0.  1.
        -12    1    3    3    0    0 -0.27811885571E+02 -0.32192149209E+02 -0.10123406588E+02  0.43730067582E+02  0.00000000000E+00 0.  1.
</event>
<event>
 7    1  0.3710332E-015  0.9000771E+02  0.7816164E-02  0.1186339E+00
        -11   -1    0    0    0    0  0.00000000000E+00  0.00000000000E+00  0.45593999997E+02  0.45594000000E+02  0.51100000000E-03 0. -1.
         11   -1    0    0    0    0 -0.00000000000E+00 -0.00000000000E+00 -0.45593999997E+02  0.45594000000E+02  0.51100000000E-03 0.  1.
    9900012    2    1    2    0    0  0.24617864230E+00 -0.17072715401E+00  0.11416343213E+01  0.90007711642E+02  0.89999972635E+02 0.  0.
        -12    1    1    2    0    0 -0.24617864230E+00  0.17072715401E+00 -0.11416343213E+01  0.11802883582E+01  0.00000000000E+00 0.  1.
         11    1    3    3    0    0 -0.32490598498E+01  0.11004878089E+01 -0.91465959624E+01  0.97687092948E+01  0.51100000000E-03 0. -1.
        -11    1    3    3    0    0 -0.14913654913E+01 -0.10941299350E+02 -0.33419947816E+02  0.35197004344E+02  0.51100000000E-03 0.  1.
         12    1    3    3    0    0  0.49866039834E+01  0.96700843867E+01  0.43708178100E+02  0.45041998003E+02  0.00000000000E+00 0. -1.
</event>
<event>
 7    1  0.2578619E-015  0.9000777E+02  0.7816164E-02  0.1186339E+00
        -11   -1    0    0    0    0  0.00000000000E+00  0.00000000000E+00  0.45593999997E+02  0.45594000000E+02  0.51100000000E-03 0. -1.
         11   -1    0    0    0    0 -0.00000000000E+00 -0.00000000000E+00 -0.45593999997E+02  0.45594000000E+02  0.51100000000E-03 0.  1.
    9900012    2    1    2    0    0 -0.25777280175E+00  0.90901869488E+00 -0.70722885286E+00  0.90007773558E+02  0.90000035369E+02 0.  0.
        -12    1    1    2    0    0  0.25777280175E+00 -0.90901869488E+00  0.70722885286E+00  0.11802264424E+01  0.00000000000E+00 0.  1.
         11    1    3    3    0    0 -0.15407368920E+02  0.32355982263E+02  0.16576010928E+02  0.39484943255E+02  0.51100000000E-03 0. -1.
        -11    1    3    3    0    0  0.39783475450E+01  0.54747752126E+01  0.24453358576E+01  0.71958377229E+01  0.51100000000E-03 0.  1.
        -12    1    3    3    0    0  0.11171248573E+02 -0.36921738781E+02 -0.19728575639E+02  0.43326992580E+02  0.00000000000E+00 0.  1.
</event>
<event>
 7    1  0.2578619E-015  0.9000772E+02  0.7816164E-02  0.1186339E+00
        -11   -1    0    0    0    0  0.00000000000E+00  0.00000000000E+00  0.45593999997E+02  0.45594000000E+02  0.51100000000E-03 0.  1.
         11   -1    0    0    0    0 -0.00000000000E+00 -0.00000000000E+00 -0.45593999997E+02  0.45594000000E+02  0.51100000000E-03 0. -1.
    9900012    2    1    2    0    0 -0.22557090206E-01  0.38890179115E+00 -0.11141445722E+01  0.90007715478E+02  0.89999976522E+02 0.  0.
        -12    1    1    2    0    0  0.22557090206E-01 -0.38890179115E+00  0.11141445722E+01  0.11802845222E+01  0.00000000000E+00 0.  1.
         11    1    3    3    0    0  0.40629177035E+00  0.97662163209E+01  0.58874136556E-01  0.97748412087E+01  0.51100000000E-03 0. -1.
        -11    1    3    3    0    0 -0.29406999195E+02  0.22571294390E+02 -0.14514470912E+01  0.37099078574E+02  0.51100000000E-03 0.  1.
         12    1    3    3    0    0  0.28978150335E+02 -0.31948608920E+02  0.27842838235E+00  0.43133795695E+02  0.00000000000E+00 0. -1.
</event>
<event>
 7    1  0.2578619E-015  0.9000670E+02  0.7816164E-02  0.1186341E+00
        -11   -1    0    0    0    0  0.00000000000E+00  0.00000000000E+00  0.45593999997E+02  0.45594000000E+02  0.51100000000E-03 0. -1.
         11   -1    0    0    0    0 -0.00000000000E+00 -0.00000000000E+00 -0.45593999997E+02  0.45594000000E+02  0.51100000000E-03 0.  1.
    9900012    2    1    2    0    0  0.10043203635E+01 -0.29734088154E+00 -0.54624900021E+00  0.90006704541E+02  0.89998952234E+02 0.  0.
        -12    1    1    2    0    0 -0.10043203635E+01  0.29734088154E+00  0.54624900021E+00  0.11812954595E+01  0.00000000000E+00 0.  1.
         11    1    3    3    0    0  0.68270874624E+01 -0.22452101956E+01 -0.65665247134E+01  0.97349544999E+01  0.51100000000E-03 0. -1.
        -11    1    3    3    0    0 -0.23202962087E+02 -0.16433212003E+01 -0.31270414409E+02  0.38973282794E+02  0.51100000000E-03 0.  1.
         12    1    3    3    0    0  0.17380194988E+02  0.35911905144E+01  0.37290690122E+02  0.41298467247E+02  0.00000000000E+00 0. -1.
</event>
<event>
 7    1  0.2578619E-015  0.9000770E+02  0.7816164E-02  0.1186339E+00
        -11   -1    0    0    0    0  0.00000000000E+00  0.00000000000E+00  0.45593999997E+02  0.45594000000E+02  0.51100000000E-03 0. -1.
         11   -1    0    0    0    0 -0.00000000000E+00 -0.00000000000E+00 -0.45593999997E+02  0.45594000000E+02  0.51100000000E-03 0.  1.
    9900012    2    1    2    0    0 -0.68049262067E+00  0.85976417537E+00  0.43685193315E+00  0.90007701624E+02  0.89999962486E+02 0.  0.
        -12    1    1    2    0    0  0.68049262067E+00 -0.85976417537E+00 -0.43685193315E+00  0.11802983756E+01  0.00000000000E+00 0.  1.
         11    1    3    3    0    0  0.41647086202E+01  0.73830743988E+01 -0.78184082299E+01  0.11531786201E+02  0.51100000000E-03 0. -1.
        -11    1    3    3    0    0 -0.58691176946E+01 -0.77403539982E+01 -0.34423352070E+02  0.35767678014E+02  0.51100000000E-03 0.  1.
         12    1    3    3    0    0  0.10239164537E+01  0.12170437748E+01  0.42678612233E+02  0.42708237409E+02  0.00000000000E+00 0. -1.
</event>
<event>
 7    1  0.2578619E-015  0.9000781E+02  0.7816164E-02  0.1186339E+00
        -11   -1    0    0    0    0  0.00000000000E+00  0.00000000000E+00  0.45593999997E+02  0.45594000000E+02  0.51100000000E-03 0.  1.
         11   -1    0    0    0    0 -0.00000000000E+00 -0.00000000000E+00 -0.45593999997E+02  0.45594000000E+02  0.51100000000E-03 0. -1.
    9900012    2    1    2    0    0  0.16838494482E+00  0.26980684058E+00 -0.11365255423E+01  0.90007813773E+02  0.90000076115E+02 0.  0.
        -12    1    1    2    0    0 -0.16838494482E+00 -0.26980684058E+00  0.11365255423E+01  0.11801862265E+01  0.00000000000E+00 0.  1.
         11    1    3    3    0    0 -0.11319625040E+02  0.11658229368E+01 -0.73279996436E+01  0.13534867314E+02  0.51100000000E-03 0. -1.
        -11    1    3    3    0    0  0.11472816743E+01  0.25118598316E+01  0.40440638551E+02  0.40534811480E+02  0.51100000000E-03 0.  1.
         12    1    3    3    0    0  0.10340728310E+02 -0.34078759278E+01 -0.34249164450E+02  0.35938134980E+02  0.00000000000E+00 0. -1.
</event>
<event>
 7    1  0.2578619E-015  0.9000774E+02  0.7816164E-02  0.1186339E+00
        -11   -1    0    0    0    0  0.00000000000E+00  0.00000000000E+00  0.45593999997E+02  0.45594000000E+02  0.51100000000E-03 0.  1.
         11   -1    0    0    0    0 -0.00000000000E+00 -0.00000000000E+00 -0.45593999997E+02  0.45594000000E+02  0.51100000000E-03 0. -1.
    9900012    2    1    2    0    0  0.11463969683E+01  0.25412513657E+00  0.11916917541E+00  0.90007742873E+02  0.90000004279E+02 0.  0.
        -12    1    1    2    0    0 -0.11463969683E+01 -0.25412513657E+00 -0.11916917541E+00  0.11802571272E+01  0.00000000000E+00 0.  1.
         11    1    3    3    0    0 -0.38581167264E+00 -0.56068669518E+01  0.52377884963E+01  0.76824629030E+01  0.51100000000E-03 0. -1.
        -11    1    3    3    0    0  0.37946349161E+02 -0.26116412656E+01 -0.18907967379E+02  0.42476550183E+02  0.51100000000E-03 0.  1.
         12    1    3    3    0    0 -0.36414140520E+02  0.84726333541E+01  0.13789348058E+02  0.39848729787E+02  0.00000000000E+00 0. -1.
</event>
<event>
 7    1  0.2578619E-015  0.9000775E+02  0.7816164E-02  0.1186339E+00
        -11   -1    0    0    0    0  0.00000000000E+00  0.00000000000E+00  0.45593999997E+02  0.45594000000E+02  0.51100000000E-03 0.  1.
         11   -1    0    0    0    0 -0.00000000000E+00 -0.00000000000E+00 -0.45593999997E+02  0.45594000000E+02  0.51100000000E-03 0. -1.
    9900012    2    1    2    0    0  0.11673517240E+01  0.16892130631E+00  0.41825172816E-01  0.90007748417E+02  0.90000009896E+02 0.  0.
        -12    1    1    2    0    0 -0.11673517240E+01 -0.16892130631E+00 -0.41825172816E-01  0.11802515835E+01  0.00000000000E+00 0.  1.
         11    1    3    3    0    0  0.20689569584E+02  0.12364550145E+02 -0.30335984067E+02  0.38745481277E+02  0.51100000000E-03 0. -1.
        -11    1    3    3    0    0  0.84989423225E+00 -0.43616609610E+01 -0.68163389199E+01  0.81368841135E+01  0.51100000000E-03 0.  1.
        -12    1    3    3    0    0 -0.20372112092E+02 -0.78339678774E+01  0.37194148160E+02  0.43125383026E+02  0.00000000000E+00 0.  1.
</event>
<event>
 7    1  0.2578619E-015  0.9000765E+02  0.7816164E-02  0.1186339E+00
        -11   -1    0    0    0    0  0.00000000000E+00  0.00000000000E+00  0.45593999997E+02  0.45594000000E+02  0.51100000000E-03 0. -1.
         11   -1    0    0    0    0 -0.00000000000E+00 -0.00000000000E+00 -0.45593999997E+02  0.45594000000E+02  0.51100000000E-03 0.  1.
    9900012    2    1    2    0    0  0.69116820125E+00 -0.95571896132E+00  0.45885990842E-01  0.90007653551E+02  0.89999913778E+02 0.  0.
        -12    1    1    2    0    0 -0.69116820125E+00  0.95571896132E+00 -0.45885990842E-01  0.11803464490E+01  0.00000000000E+00 0.  1.
         11    1    3    3    0    0 -0.60654720295E+01 -0.91362786608E+01 -0.27139024381E+01  0.11297203433E+02  0.51100000000E-03 0. -1.
        -11    1    3    3    0    0  0.28775914466E+02 -0.22084796087E+02 -0.12391837765E+02  0.38332089886E+02  0.51100000000E-03 0.  1.
         12    1    3    3    0    0 -0.22019274235E+02  0.30265355786E+02  0.15151626194E+02  0.40378360232E+02  0.00000000000E+00 0. -1.
</event>
<event>
 8    1  0.2578619E-015  0.9000817E+02  0.7816164E-02  0.1186338E+00
        -11   -1    0    0    0    0  0.00000000000E+00  0.00000000000E+00  0.45593999997E+02  0.45594000000E+02  0.51100000000E-03 0.  1.
         11   -1    0    0    0    0 -0.00000000000E+00 -0.00000000000E+00 -0.45593999997E+02  0.45594000000E+02  0.51100000000E-03 0. -1.
    9900012    2    1    2    0    0 -0.63912822135E+00 -0.47802261092E-01 -0.99056613320E+00  0.90008173231E+02  0.90000440317E+02 0.  0.
         23    2    3    3    0    0  0.15478168282E+01  0.28282891645E+02 -0.23618546953E+00  0.61583183592E+02  0.54681944196E+02 0.  0.
        -12    1    1    2    0    0  0.63912822135E+00  0.47802261092E-01  0.99056613320E+00  0.11798267685E+01  0.00000000000E+00 0.  1.
         11    1    4    4    0    0  0.13840738300E+02 -0.12182191470E+02  0.46363376096E+01  0.19012297399E+02  0.51100000000E-03 0. -1.
        -11    1    4    4    0    0 -0.12292921472E+02  0.40465083115E+02 -0.48725230791E+01  0.42570886193E+02  0.51100000000E-03 0.  1.
         12    1    3    3    0    0 -0.21869450495E+01 -0.28330693906E+02 -0.75438066367E+00  0.28424989640E+02  0.00000000000E+00 0. -1.
</event>
<event>
 7    1  0.2578619E-015  0.9000769E+02  0.7816164E-02  0.1186339E+00
        -11   -1    0    0    0    0  0.00000000000E+00  0.00000000000E+00  0.45593999997E+02  0.45594000000E+02  0.51100000000E-03 0.  1.
         11   -1    0    0    0    0 -0.00000000000E+00 -0.00000000000E+00 -0.45593999997E+02  0.45594000000E+02  0.51100000000E-03 0. -1.
    9900012    2    1    2    0    0 -0.11505828838E+01 -0.26322974670E+00 -0.52232468251E-03  0.90007690234E+02  0.89999950945E+02 0.  0.
        -12    1    1    2    0    0  0.11505828838E+01  0.26322974670E+00  0.52232468250E-03  0.11803097665E+01  0.00000000000E+00 0.  1.
         11    1    3    3    0    0 -0.13217553940E+02 -0.66310154995E+01 -0.12432458390E+01  0.14839803205E+02  0.51100000000E-03 0. -1.
        -11    1    3    3    0    0 -0.40685706987E+01 -0.19975966657E+02  0.27769534667E+02  0.34449086596E+02  0.51100000000E-03 0.  1.
         12    1    3    3    0    0  0.16135541754E+02  0.26343752410E+02 -0.26526811152E+02  0.40718800432E+02  0.00000000000E+00 0. -1.
</event>
<event>
 7    1  0.2578619E-015  0.9000778E+02  0.7816164E-02  0.1186339E+00
        -11   -1    0    0    0    0  0.00000000000E+00  0.00000000000E+00  0.45593999997E+02  0.45594000000E+02  0.51100000000E-03 0. -1.
         11   -1    0    0    0    0 -0.00000000000E+00 -0.00000000000E+00 -0.45593999997E+02  0.45594000000E+02  0.51100000000E-03 0.  1.
    9900012    2    1    2    0    0 -0.10894681878E+01  0.71650131583E-01  0.44816984129E+00  0.90007775072E+02  0.90000036903E+02 0.  0.
        -12    1    1    2    0    0  0.10894681878E+01 -0.71650131583E-01 -0.44816984129E+00  0.11802249278E+01  0.00000000000E+00 0.  1.
         11    1    3    3    0    0 -0.19096582144E+02  0.51162505994E+01  0.45285797848E+01  0.20282098139E+02  0.51100000000E-03 0. -1.
        -11    1    3    3    0    0  0.20974981442E+02  0.58756228980E+01 -0.32506522094E+02  0.39129870558E+02  0.51100000000E-03 0.  1.
         12    1    3    3    0    0 -0.29678674862E+01 -0.10920223366E+02  0.28426112151E+02  0.30595806376E+02  0.00000000000E+00 0. -1.
</event>
<event>
 7    1  0.3720068E-015  0.9000779E+02  0.7816164E-02  0.1186339E+00
        -11   -1    0    0    0    0  0.00000000000E+00  0.00000000000E+00  0.45593999997E+02  0.45594000000E+02  0.51100000000E-03 0.  1.
         11   -1    0    0    0    0 -0.00000000000E+00 -0.00000000000E+00 -0.45593999997E+02  0.45594000000E+02  0.51100000000E-03 0. -1.
    9900012    2    1    2    0    0  0.20731146173E+00 -0.72050364216E+00 -0.91148375414E+00  0.90007785539E+02  0.90000047508E+02 0.  0.
        -12    1    1    2    0    0 -0.20731146173E+00  0.72050364216E+00  0.91148375414E+00  0.11802144613E+01  0.00000000000E+00 0.  1.
         11    1    3    3    0    0 -0.79748247129E+01 -0.42047342801E+01  0.19445379881E+01  0.92227353760E+01  0.51100000000E-03 0. -1.
        -11    1    3    3    0    0 -0.14683739198E+02  0.46910910182E+01  0.34036407719E+02  0.37364362466E+02  0.51100000000E-03 0.  1.
         12    1    3    3    0    0  0.22865875373E+02 -0.12068603802E+01 -0.36892429461E+02  0.43420687697E+02  0.00000000000E+00 0. -1.
</event>
<event>
 7    1  0.2578619E-015  0.9000786E+02  0.7816164E-02  0.1186339E+00
        -11   -1    0    0    0    0  0.00000000000E+00  0.00000000000E+00  0.45593999997E+02  0.45594000000E+02  0.51100000000E-03 0.  1.
         11   -1    0    0    0    0 -0.00000000000E+00 -0.00000000000E+00 -0.45593999997E+02  0.45594000000E+02  0.51100000000E-03 0. -1.
    9900012    2    1    2    0    0 -0.82697888774E+00  0.83865169008E+00  0.74113092056E-01  0.90007862937E+02  0.90000125927E+02 0.  0.
        -12    1    1    2    0    0  0.82697888774E+00 -0.83865169008E+00 -0.74113092056E-01  0.11801370634E+01  0.00000000000E+00 0.  1.
         11    1    3    3    0    0  0.10115340751E+02 -0.72425225245E+01 -0.80694454780E+01  0.14828695209E+02  0.51100000000E-03 0. -1.
        -11    1    3    3    0    0 -0.25064099336E+02  0.27939978023E+02  0.25398772151E+02  0.45320514941E+02  0.51100000000E-03 0.  1.
         12    1    3    3    0    0  0.14121779698E+02 -0.19858803808E+02 -0.17255213581E+02  0.29858652787E+02  0.00000000000E+00 0. -1.
</event>
<event>
 7    1  0.2578619E-015  0.9000776E+02  0.7816164E-02  0.1186339E+00
        -11   -1    0    0    0    0  0.00000000000E+00  0.00000000000E+00  0.45593999997E+02  0.45594000000E+02  0.51100000000E-03 0.  1.
         11   -1    0    0    0    0 -0.00000000000E+00 -0.00000000000E+00 -0.45593999997E+02  0.45594000000E+02  0.51100000000E-03 0. -1.
    9900012    2    1    2    0    0  0.57084520919E+00  0.10108561977E+01 -0.21279257543E+00  0.90007756303E+02  0.90000017886E+02 0.  0.
        -12    1    1    2    0    0 -0.57084520919E+00 -0.10108561977E+01  0.21279257543E+00  0.11802436975E+01  0.00000000000E+00 0.  1.
         11    1    3    3    0    0 -0.31564832375E+02  0.55602606220E+00  0.27966625863E+02  0.42175585003E+02  0.51100000000E-03 0. -1.
        -11    1    3    3    0    0  0.65030200867E+01 -0.50416756488E+01  0.13572380109E+01  0.83396558008E+01  0.51100000000E-03 0.  1.
        -12    1    3    3    0    0  0.25632657498E+02  0.54965057843E+01 -0.29536656450E+02  0.39492515499E+02  0.00000000000E+00 0.  1.
</event>
<event>
 7    1  0.2578619E-015  0.9000782E+02  0.7816164E-02  0.1186339E+00
        -11   -1    0    0    0    0  0.00000000000E+00  0.00000000000E+00  0.45593999997E+02  0.45594000000E+02  0.51100000000E-03 0.  1.
         11   -1    0    0    0    0 -0.00000000000E+00 -0.00000000000E+00 -0.45593999997E+02  0.45594000000E+02  0.51100000000E-03 0. -1.
    9900012    2    1    2    0    0  0.81355588475E+00  0.75195720036E+00 -0.40682117986E+00  0.90007823623E+02  0.90000086095E+02 0.  0.
        -12    1    1    2    0    0 -0.81355588475E+00 -0.75195720036E+00  0.40682117986E+00  0.11801763771E+01  0.00000000000E+00 0.  1.
         11    1    3    3    0    0  0.10392110695E+02 -0.39716434480E+01  0.84952774889E+00  0.11157581012E+02  0.51100000000E-03 0. -1.
        -11    1    3    3    0    0 -0.22092365862E+02  0.30249559852E+02  0.20821227810E+02  0.42855945077E+02  0.51100000000E-03 0.  1.
         12    1    3    3    0    0  0.12513811052E+02 -0.25525959204E+02 -0.22077576739E+02  0.35994297534E+02  0.00000000000E+00 0. -1.
</event>
<event>
 7    1  0.2578619E-015  0.9000772E+02  0.7816164E-02  0.1186339E+00
        -11   -1    0    0    0    0  0.00000000000E+00  0.00000000000E+00  0.45593999997E+02  0.45594000000E+02  0.51100000000E-03 0.  1.
         11   -1    0    0    0    0 -0.00000000000E+00 -0.00000000000E+00 -0.45593999997E+02  0.45594000000E+02  0.51100000000E-03 0. -1.
    9900012    2    1    2    0    0  0.73439466596E+00  0.55782047272E+00 -0.73658202376E+00  0.90007723641E+02  0.89999984793E+02 0.  0.
        -12    1    1    2    0    0 -0.73439466596E+00 -0.55782047272E+00  0.73658202376E+00  0.11802763587E+01  0.00000000000E+00 0.  1.
         11    1    3    3    0    0  0.61729929895E+01  0.33880878492E+01 -0.91628337841E+01  0.11556059231E+02  0.51100000000E-03 0. -1.
        -11    1    3    3    0    0 -0.35118771990E+02  0.20123512220E+02  0.46240240185E+01  0.40738992238E+02  0.51100000000E-03 0.  1.
         12    1    3    3    0    0  0.29680173666E+02 -0.22953779597E+02  0.38022277418E+01  0.37712672173E+02  0.00000000000E+00 0. -1.
</event>
<event>
 7    1  0.2578619E-015  0.9000788E+02  0.7816164E-02  0.1186339E+00
        -11   -1    0    0    0    0  0.00000000000E+00  0.00000000000E+00  0.45593999997E+02  0.45594000000E+02  0.51100000000E-03 0.  1.
         11   -1    0    0    0    0 -0.00000000000E+00 -0.00000000000E+00 -0.45593999997E+02  0.45594000000E+02  0.51100000000E-03 0. -1.
    9900012    2    1    2    0    0 -0.10768680056E+01  0.11278098792E-01 -0.48261934136E+00  0.90007875716E+02  0.90000138875E+02 0.  0.
        -12    1    1    2    0    0  0.10768680056E+01 -0.11278098792E-01  0.48261934136E+00  0.11801242840E+01  0.00000000000E+00 0.  1.
         11    1    3    3    0    0  0.14706044521E+01  0.85685465608E+01 -0.88282502775E+00  0.87385380877E+01  0.51100000000E-03 0. -1.
        -11    1    3    3    0    0  0.27185355856E+02  0.80658204230E+01  0.26145473972E+02  0.38570543703E+02  0.51100000000E-03 0.  1.
         12    1    3    3    0    0 -0.29732828313E+02 -0.16623088885E+02 -0.25745268285E+02  0.42698793925E+02  0.00000000000E+00 0. -1.
</event>
<event>
 7    1  0.2578619E-015  0.9000779E+02  0.7816164E-02  0.1186339E+00
        -11   -1    0    0    0    0  0.00000000000E+00  0.00000000000E+00  0.45593999997E+02  0.45594000000E+02  0.51100000000E-03 0.  1.
         11   -1    0    0    0    0 -0.00000000000E+00 -0.00000000000E+00 -0.45593999997E+02  0.45594000000E+02  0.51100000000E-03 0. -1.
    9900012    2    1    2    0    0 -0.25498558296E+00 -0.11368161007E+01 -0.18848829590E+00  0.90007789709E+02  0.90000051733E+02 0.  0.
        -12    1    1    2    0    0  0.25498558296E+00  0.11368161007E+01  0.18848829590E+00  0.11802102914E+01  0.00000000000E+00 0.  1.
         11    1    3    3    0    0  0.61862197201E+01  0.53598727749E+01 -0.67378867743E+01  0.10601729530E+02  0.51100000000E-03 0. -1.
        -11    1    3    3    0    0  0.28734185078E+02  0.12487255186E+02 -0.14168019469E+02  0.34384847100E+02  0.51100000000E-03 0.  1.
         12    1    3    3    0    0 -0.35175390382E+02 -0.18983944061E+02  0.20717417947E+02  0.45021213078E+02  0.00000000000E+00 0. -1.
</event>
<event>
 7    1  0.2578619E-015  0.9000776E+02  0.7816164E-02  0.1186339E+00
        -11   -1    0    0    0    0  0.00000000000E+00  0.00000000000E+00  0.45593999997E+02  0.45594000000E+02  0.51100000000E-03 0.  1.
         11   -1    0    0    0    0 -0.00000000000E+00 -0.00000000000E+00 -0.45593999997E+02  0.45594000000E+02  0.51100000000E-03 0. -1.
    9900012    2    1    2    0    0 -0.45337809438E+00 -0.10589059013E+01 -0.25715997859E+00  0.90007760762E+02  0.90000022404E+02 0.  0.
        -12    1    1    2    0    0  0.45337809438E+00  0.10589059013E+01  0.25715997859E+00  0.11802392380E+01  0.00000000000E+00 0.  1.
         11    1    3    3    0    0  0.13762655411E+01 -0.95665487581E+01 -0.23925976882E+00  0.96679991455E+01  0.51100000000E-03 0. -1.
        -11    1    3    3    0    0 -0.19187490120E+02 -0.24908011238E+02  0.20425047745E+02  0.37493351099E+02  0.51100000000E-03 0.  1.
         12    1    3    3    0    0  0.17357846485E+02  0.33415654095E+02 -0.20442947954E+02  0.42846410518E+02  0.00000000000E+00 0. -1.
</event>
<event>
 7    1  0.2578619E-015  0.9000751E+02  0.7816164E-02  0.1186340E+00
        -11   -1    0    0    0    0  0.00000000000E+00  0.00000000000E+00  0.45593999997E+02  0.45594000000E+02  0.51100000000E-03 0.  1.
         11   -1    0    0    0    0 -0.00000000000E+00 -0.00000000000E+00 -0.45593999997E+02  0.45594000000E+02  0.51100000000E-03 0. -1.
    9900012    2    1    2    0    0 -0.91490205062E+00  0.47357837405E+00 -0.57639663022E+00  0.90007510562E+02  0.89999768901E+02 0.  0.
        -12    1    1    2    0    0  0.91490205062E+00 -0.47357837405E+00  0.57639663022E+00  0.11804894383E+01  0.00000000000E+00 0.  1.
         11    1    3    3    0    0 -0.36968732037E+02  0.49996956051E+01  0.12388549165E+02  0.39308526496E+02  0.51100000000E-03 0. -1.
        -11    1    3    3    0    0 -0.55076464033E+01 -0.36947117121E+01 -0.51595665674E+01  0.84027490123E+01  0.51100000000E-03 0.  1.
        -12    1    3    3    0    0  0.41561476390E+02 -0.83140551895E+00 -0.78053792276E+01  0.42296235054E+02  0.00000000000E+00 0.  1.
</event>
<event>
 7    1  0.2578619E-015  0.9000791E+02  0.7816164E-02  0.1186339E+00
        -11   -1    0    0    0    0  0.00000000000E+00  0.00000000000E+00  0.45593999997E+02  0.45594000000E+02  0.51100000000E-03 0.  1.
         11   -1    0    0    0    0 -0.00000000000E+00 -0.00000000000E+00 -0.45593999997E+02  0.45594000000E+02  0.51100000000E-03 0. -1.
    9900012    2    1    2    0    0  0.72623446693E+00 -0.81824289930E+00  0.44236073646E+00  0.90007906375E+02  0.90000169939E+02 0.  0.
        -12    1    1    2    0    0 -0.72623446693E+00  0.81824289930E+00 -0.44236073646E+00  0.11800936253E+01  0.00000000000E+00 0.  1.
         11    1    3    3    0    0  0.12356767623E+02 -0.21711271665E+01 -0.34320353892E+02  0.36541622717E+02  0.51100000000E-03 0. -1.
        -11    1    3    3    0    0  0.12298418574E+01  0.29154653279E+01 -0.80960066120E+01  0.86923973905E+01  0.51100000000E-03 0.  1.
        -12    1    3    3    0    0 -0.12860375013E+02 -0.15625810607E+01  0.42858721241E+02  0.44773886267E+02  0.00000000000E+00 0.  1.
</event>
<event>
 7    1  0.2578619E-015  0.9000775E+02  0.7816164E-02  0.1186339E+00
        -11   -1    0    0    0    0  0.00000000000E+00  0.00000000000E+00  0.45593999997E+02  0.45594000000E+02  0.51100000000E-03 0.  1.
         11   -1    0    0    0    0 -0.00000000000E+00 -0.00000000000E+00 -0.45593999997E+02  0.45594000000E+02  0.51100000000E-03 0. -1.
    9900012    2    1    2    0    0  0.44171362904E+00 -0.10489359273E+01 -0.31244630366E+00  0.90007745704E+02  0.90000007148E+02 0.  0.
        -12    1    1    2    0    0 -0.44171362904E+00  0.10489359273E+01  0.31244630366E+00  0.11802542956E+01  0.00000000000E+00 0.  1.
         11    1    3    3    0    0  0.97943775309E+00 -0.33528628535E+01 -0.11592550063E+02  0.12107361598E+02  0.51100000000E-03 0. -1.
        -11    1    3    3    0    0  0.10536045959E+00 -0.23944013346E+02 -0.24013761097E+02  0.33911467061E+02  0.51100000000E-03 0.  1.
         12    1    3    3    0    0 -0.64308458363E+00  0.26247940272E+02  0.35293864857E+02  0.43988917046E+02  0.00000000000E+00 0. -1.
</event>
<event>
 7    1  0.2578619E-015  0.9000774E+02  0.7816164E-02  0.1186339E+00
        -11   -1    0    0    0    0  0.00000000000E+00  0.00000000000E+00  0.45593999997E+02  0.45594000000E+02  0.51100000000E-03 0. -1.
         11   -1    0    0    0    0 -0.00000000000E+00 -0.00000000000E+00 -0.45593999997E+02  0.45594000000E+02  0.51100000000E-03 0.  1.
    9900012    2    1    2    0    0  0.99552415139E+00 -0.62891867645E+00 -0.79987693906E-01  0.90007743643E+02  0.90000005059E+02 0.  0.
        -12    1    1    2    0    0 -0.99552415139E+00  0.62891867645E+00  0.79987693906E-01  0.11802563572E+01  0.00000000000E+00 0.  1.
         11    1    3    3    0    0  0.42131459503E+01 -0.72339439468E+01 -0.28867801234E+01  0.88551704425E+01  0.51100000000E-03 0. -1.
        -11    1    3    3    0    0 -0.25930270784E+02 -0.28980055483E+02  0.11396269192E+01  0.38904001189E+02  0.51100000000E-03 0.  1.
         12    1    3    3    0    0  0.22712648985E+02  0.35585080754E+02  0.16671655103E+01  0.42248572011E+02  0.00000000000E+00 0. -1.
</event>
<event>
 7    1  0.2578619E-015  0.9000771E+02  0.7816164E-02  0.1186339E+00
        -11   -1    0    0    0    0  0.00000000000E+00  0.00000000000E+00  0.45593999997E+02  0.45594000000E+02  0.51100000000E-03 0.  1.
         11   -1    0    0    0    0 -0.00000000000E+00 -0.00000000000E+00 -0.45593999997E+02  0.45594000000E+02  0.51100000000E-03 0. -1.
    9900012    2    1    2    0    0  0.96969006466E+00  0.51166404157E+00  0.43700620508E+00  0.90007714723E+02  0.89999975757E+02 0.  0.
        -12    1    1    2    0    0 -0.96969006466E+00 -0.51166404157E+00 -0.43700620508E+00  0.11802852775E+01  0.00000000000E+00 0.  1.
         11    1    3    3    0    0  0.14762326968E+02 -0.29933633670E+02 -0.13480099474E+02  0.35995302531E+02  0.51100000000E-03 0. -1.
        -11    1    3    3    0    0 -0.18093542798E+02 -0.24584849945E+01  0.93545702039E+01  0.20516540240E+02  0.51100000000E-03 0.  1.
        -12    1    3    3    0    0  0.43009058943E+01  0.32903782706E+02  0.45625354748E+01  0.33495871952E+02  0.00000000000E+00 0.  1.
</event>
<event>
 7    1  0.2578619E-015  0.9000757E+02  0.7816164E-02  0.1186339E+00
        -11   -1    0    0    0    0  0.00000000000E+00  0.00000000000E+00  0.45593999997E+02  0.45594000000E+02  0.51100000000E-03 0. -1.
         11   -1    0    0    0    0 -0.00000000000E+00 -0.00000000000E+00 -0.45593999997E+02  0.45594000000E+02  0.51100000000E-03 0.  1.
    9900012    2    1    2    0    0 -0.32122632732E+00  0.44712249537E+00  0.10441739382E+01  0.90007574614E+02  0.89999833799E+02 0.  0.
        -12    1    1    2    0    0  0.32122632732E+00 -0.44712249537E+00 -0.10441739382E+01  0.11804253862E+01  0.00000000000E+00 0.  1.
         11    1    3    3    0    0  0.59458718378E+01 -0.38926015063E+02 -0.93107417237E+01  0.40463291417E+02  0.51100000000E-03 0. -1.
        -11    1    3    3    0    0  0.26736735501E+01  0.21708242811E+01 -0.67926992079E+01  0.76158893835E+01  0.51100000000E-03 0.  1.
        -12    1    3    3    0    0 -0.89407717152E+01  0.37202313277E+02  0.17147614870E+02  0.41928393813E+02  0.00000000000E+00 0.  1.
</event>
<event>
 7    1  0.2578619E-015  0.9000723E+02  0.7816164E-02  0.1186340E+00
        -11   -1    0    0    0    0  0.00000000000E+00  0.00000000000E+00  0.45593999997E+02  0.45594000000E+02  0.51100000000E-03 0. -1.
         11   -1    0    0    0    0 -0.00000000000E+00 -0.00000000000E+00 -0.45593999997E+02  0.45594000000E+02  0.51100000000E-03 0.  1.
    9900012    2    1    2    0    0  0.10737621798E+01  0.47938429180E+00  0.10697134720E+00  0.90007230172E+02  0.89999484809E+02 0.  0.
        -12    1    1    2    0    0 -0.10737621798E+01 -0.47938429180E+00 -0.10697134720E+00  0.11807698282E+01  0.00000000000E+00 0.  1.
         11    1    3    3    0    0 -0.18525270938E+02  0.38736147340E+02 -0.86626096659E+01  0.43803145784E+02  0.51100000000E-03 0. -1.
        -11    1    3    3    0    0 -0.30753546458E+00 -0.13346947157E+02  0.10221691110E+01  0.13389563340E+02  0.51100000000E-03 0.  1.
        -12    1    3    3    0    0  0.19906568582E+02 -0.24909815892E+02  0.77474119021E+01  0.32814521048E+02  0.00000000000E+00 0.  1.
</event>
<event>
 7    1  0.2578619E-015  0.9000776E+02  0.7816164E-02  0.1186339E+00
        -11   -1    0    0    0    0  0.00000000000E+00  0.00000000000E+00  0.45593999997E+02  0.45594000000E+02  0.51100000000E-03 0. -1.
         11   -1    0    0    0    0 -0.00000000000E+00 -0.00000000000E+00 -0.45593999997E+02  0.45594000000E+02  0.51100000000E-03 0.  1.
    9900012    2    1    2    0    0  0.10696301017E+01  0.49814305404E+00  0.26720035481E-01  0.90007758916E+02  0.90000020533E+02 0.  0.
        -12    1    1    2    0    0 -0.10696301017E+01 -0.49814305404E+00 -0.26720035481E-01  0.11802410843E+01  0.00000000000E+00 0.  1.
         11    1    3    3    0    0 -0.36011291554E+02 -0.12305444062E+02  0.10233759930E+02  0.39407701221E+02  0.51100000000E-03 0. -1.
        -11    1    3    3    0    0 -0.56639130540E+00  0.11708280592E+02 -0.42498836514E+01  0.12468606371E+02  0.51100000000E-03 0.  1.
        -12    1    3    3    0    0  0.37647312961E+02  0.10953065248E+01 -0.59571562427E+01  0.38131451324E+02  0.00000000000E+00 0.  1.
</event>
<event>
 7    1  0.2578619E-015  0.9000779E+02  0.7816164E-02  0.1186339E+00
        -11   -1    0    0    0    0  0.00000000000E+00  0.00000000000E+00  0.45593999997E+02  0.45594000000E+02  0.51100000000E-03 0. -1.
         11   -1    0    0    0    0 -0.00000000000E+00 -0.00000000000E+00 -0.45593999997E+02  0.45594000000E+02  0.51100000000E-03 0.  1.
    9900012    2    1    2    0    0  0.32887572186E+00 -0.11120724280E+01 -0.21916026692E+00  0.90007790041E+02  0.90000052069E+02 0.  0.
        -12    1    1    2    0    0 -0.32887572186E+00  0.11120724280E+01  0.21916026692E+00  0.11802099593E+01  0.00000000000E+00 0.  1.
         11    1    3    3    0    0  0.32526157086E+02  0.63261569514E+01  0.21034338280E+02  0.39248115161E+02  0.51100000000E-03 0. -1.
        -11    1    3    3    0    0 -0.26165364957E+01 -0.94742463376E+00  0.81118248507E+01  0.85758719289E+01  0.51100000000E-03 0.  1.
        -12    1    3    3    0    0 -0.29580744868E+02 -0.64908047456E+01 -0.29365323397E+02  0.42183802951E+02  0.00000000000E+00 0.  1.
</event>
<event>
 7    1  0.2578619E-015  0.9000825E+02  0.7816164E-02  0.1186338E+00
        -11   -1    0    0    0    0  0.00000000000E+00  0.00000000000E+00  0.45593999997E+02  0.45594000000E+02  0.51100000000E-03 0.  1.
         11   -1    0    0    0    0 -0.00000000000E+00 -0.00000000000E+00 -0.45593999997E+02  0.45594000000E+02  0.51100000000E-03 0. -1.
    9900012    2    1    2    0    0  0.17077095611E+00  0.17516193659E-01 -0.11671950874E+01  0.90008248370E+02  0.90000516447E+02 0.  0.
        -12    1    1    2    0    0 -0.17077095611E+00 -0.17516193659E-01  0.11671950874E+01  0.11797516300E+01  0.00000000000E+00 0.  1.
         11    1    3    3    0    0 -0.22370383890E+02  0.75806882605E+01 -0.34106051960E+02  0.41486427786E+02  0.51100000000E-03 0. -1.
        -11    1    3    3    0    0  0.74168975109E+01  0.79990550949E+01  0.25885704811E+01  0.11211420449E+02  0.51100000000E-03 0.  1.
        -12    1    3    3    0    0  0.15124257335E+02 -0.15562227162E+02  0.30350286391E+02  0.37310400135E+02  0.00000000000E+00 0.  1.
</event>
<event>
 7    1  0.2578619E-015  0.9000774E+02  0.7816164E-02  0.1186339E+00
        -11   -1    0    0    0    0  0.00000000000E+00  0.00000000000E+00  0.45593999997E+02  0.45594000000E+02  0.51100000000E-03 0.  1.
         11   -1    0    0    0    0 -0.00000000000E+00 -0.00000000000E+00 -0.45593999997E+02  0.45594000000E+02  0.51100000000E-03 0. -1.
    9900012    2    1    2    0    0  0.44880954427E+00 -0.60563555164E+00 -0.90818209138E+00  0.90007737682E+02  0.89999999019E+02 0.  0.
        -12    1    1    2    0    0 -0.44880954427E+00  0.60563555164E+00  0.90818209138E+00  0.11802623181E+01  0.00000000000E+00 0.  1.
         11    1    3    3    0    0 -0.37226939153E+02 -0.11277965288E+02 -0.77103880936E+01  0.39654603573E+02  0.51100000000E-03 0. -1.
        -11    1    3    3    0    0  0.66465182108E+00 -0.59143176671E+01  0.77654991827E+01  0.97838588158E+01  0.51100000000E-03 0.  1.
        -12    1    3    3    0    0  0.37011096876E+02  0.16586647403E+02 -0.96329318047E+00  0.40569275293E+02  0.00000000000E+00 0.  1.
</event>
<event>
 7    1  0.2578619E-015  0.9000780E+02  0.7816164E-02  0.1186339E+00
        -11   -1    0    0    0    0  0.00000000000E+00  0.00000000000E+00  0.45593999997E+02  0.45594000000E+02  0.51100000000E-03 0. -1.
         11   -1    0    0    0    0 -0.00000000000E+00 -0.00000000000E+00 -0.45593999997E+02  0.45594000000E+02  0.51100000000E-03 0.  1.
    9900012    2    1    2    0    0 -0.86270967495E+00  0.80491135311E+00  0.26938822031E-01  0.90007798335E+02  0.90000060473E+02 0.  0.
        -12    1    1    2    0    0  0.86270967495E+00 -0.80491135311E+00 -0.26938822031E-01  0.11802016649E+01  0.00000000000E+00 0.  1.
         11    1    3    3    0    0 -0.21436561116E+01  0.36599641813E+01 -0.92409587807E+01  0.10167886643E+02  0.51100000000E-03 0. -1.
        -11    1    3    3    0    0  0.23227071140E+02 -0.32509773325E+01 -0.28039069057E+02  0.36554822954E+02  0.51100000000E-03 0.  1.
         12    1    3    3    0    0 -0.21946124703E+02  0.39592450435E+00  0.37306966660E+02  0.43285088738E+02  0.00000000000E+00 0. -1.
</event>
<event>
 7    1  0.2578619E-015  0.9000772E+02  0.7816164E-02  0.1186339E+00
        -11   -1    0    0    0    0  0.00000000000E+00  0.00000000000E+00  0.45593999997E+02  0.45594000000E+02  0.51100000000E-03 0.  1.
         11   -1    0    0    0    0 -0.00000000000E+00 -0.00000000000E+00 -0.45593999997E+02  0.45594000000E+02  0.51100000000E-03 0. -1.
    9900012    2    1    2    0    0 -0.74702716707E+00 -0.68702069404E+00 -0.60250443939E+00  0.90007720956E+02  0.89999982073E+02 0.  0.
        -12    1    1    2    0    0  0.74702716707E+00  0.68702069404E+00  0.60250443939E+00  0.11802790441E+01  0.00000000000E+00 0.  1.
         11    1    3    3    0    0  0.70783578306E+01 -0.25316737928E+01 -0.50397798791E+01  0.90505195023E+01  0.51100000000E-03 0. -1.
        -11    1    3    3    0    0 -0.14836658462E+02  0.13210987887E+02  0.39074483908E+02  0.43834597388E+02  0.51100000000E-03 0.  1.
         12    1    3    3    0    0  0.70112734643E+01 -0.11366334788E+02 -0.34637208468E+02  0.37122604065E+02  0.00000000000E+00 0. -1.
</event>
<event>
 7    1  0.2578619E-015  0.9000790E+02  0.7816164E-02  0.1186339E+00
        -11   -1    0    0    0    0  0.00000000000E+00  0.00000000000E+00  0.45593999997E+02  0.45594000000E+02  0.51100000000E-03 0.  1.
         11   -1    0    0    0    0 -0.00000000000E+00 -0.00000000000E+00 -0.45593999997E+02  0.45594000000E+02  0.51100000000E-03 0. -1.
    9900012    2    1    2    0    0 -0.10615736966E+01  0.51330915408E+00  0.47025597454E-01  0.90007899831E+02  0.90000163309E+02 0.  0.
        -12    1    1    2    0    0  0.10615736966E+01 -0.51330915408E+00 -0.47025597454E-01  0.11801001686E+01  0.00000000000E+00 0.  1.
         11    1    3    3    0    0 -0.13165296666E+02  0.87415523699E+01  0.12461077589E+02  0.20125064697E+02  0.51100000000E-03 0. -1.
        -11    1    3    3    0    0  0.37912448396E+02  0.68956059234E+01 -0.36236667889E+01  0.38704445296E+02  0.51100000000E-03 0.  1.
         12    1    3    3    0    0 -0.25808725426E+02 -0.15123849139E+02 -0.87903852022E+01  0.31178389838E+02  0.00000000000E+00 0. -1.
</event>
<event>
 7    1  0.2578619E-015  0.9000800E+02  0.7816164E-02  0.1186339E+00
        -11   -1    0    0    0    0  0.00000000000E+00  0.00000000000E+00  0.45593999997E+02  0.45594000000E+02  0.51100000000E-03 0.  1.
         11   -1    0    0    0    0 -0.00000000000E+00 -0.00000000000E+00 -0.45593999997E+02  0.45594000000E+02  0.51100000000E-03 0. -1.
    9900012    2    1    2    0    0  0.10869597025E+01  0.45742290092E+00 -0.40911472010E-01  0.90008003876E+02  0.90000268726E+02 0.  0.
        -12    1    1    2    0    0 -0.10869597025E+01 -0.45742290092E+00  0.40911472010E-01  0.11799961244E+01  0.00000000000E+00 0.  1.
         11    1    3    3    0    0 -0.27148352439E+01 -0.13792885983E+02 -0.36148094959E+01  0.14514850399E+02  0.51100000000E-03 0. -1.
        -11    1    3    3    0    0  0.26429982025E+02  0.69687967883E+01  0.29569762220E+02  0.40267591392E+02  0.51100000000E-03 0.  1.
         12    1    3    3    0    0 -0.22628187079E+02  0.72815120956E+01 -0.25995864196E+02  0.35225562085E+02  0.00000000000E+00 0. -1.
</event>
<event>
 7    1  0.2578619E-015  0.9000768E+02  0.7816164E-02  0.1186339E+00
        -11   -1    0    0    0    0  0.00000000000E+00  0.00000000000E+00  0.45593999997E+02  0.45594000000E+02  0.51100000000E-03 0. -1.
         11   -1    0    0    0    0 -0.00000000000E+00 -0.00000000000E+00 -0.45593999997E+02  0.45594000000E+02  0.51100000000E-03 0.  1.
    9900012    2    1    2    0    0  0.26479610363E-01  0.11771992767E+01  0.81649118928E-01  0.90007675517E+02  0.89999936034E+02 0.  0.
        -12    1    1    2    0    0 -0.26479610363E-01 -0.11771992767E+01 -0.81649118928E-01  0.11803244831E+01  0.00000000000E+00 0.  1.
         11    1    3    3    0    0 -0.34166840451E+02  0.90111493072E+01  0.16967678457E+02  0.39197906969E+02  0.51100000000E-03 0. -1.
        -11    1    3    3    0    0 -0.51007308046E+01 -0.55604667269E+01 -0.68489078477E+01  0.10190377026E+02  0.51100000000E-03 0.  1.
        -12    1    3    3    0    0  0.39294050866E+02 -0.22734833036E+01 -0.10037121490E+02  0.40619391522E+02  0.00000000000E+00 0.  1.
</event>
<event>
 7    1  0.2578619E-015  0.9000776E+02  0.7816164E-02  0.1186339E+00
        -11   -1    0    0    0    0  0.00000000000E+00  0.00000000000E+00  0.45593999997E+02  0.45594000000E+02  0.51100000000E-03 0.  1.
         11   -1    0    0    0    0 -0.00000000000E+00 -0.00000000000E+00 -0.45593999997E+02  0.45594000000E+02  0.51100000000E-03 0. -1.
    9900012    2    1    2    0    0 -0.53894317916E+00  0.89994613915E+00 -0.54092092349E+00  0.90007763477E+02  0.90000025155E+02 0.  0.
        -12    1    1    2    0    0  0.53894317916E+00 -0.89994613915E+00  0.54092092349E+00  0.11802365226E+01  0.00000000000E+00 0.  1.
         11    1    3    3    0    0 -0.32514927400E+01 -0.33153494727E+02 -0.18141856637E+02  0.37932220870E+02  0.51100000000E-03 0. -1.
        -11    1    3    3    0    0 -0.24643518073E+01 -0.90440879147E+00 -0.80117389957E+01  0.84308331195E+01  0.51100000000E-03 0.  1.
        -12    1    3    3    0    0  0.51769013682E+01  0.34957849658E+02  0.25612674710E+02  0.43644709487E+02  0.00000000000E+00 0.  1.
</event>
<event>
 7    1  0.2578619E-015  0.9000781E+02  0.7816164E-02  0.1186339E+00
        -11   -1    0    0    0    0  0.00000000000E+00  0.00000000000E+00  0.45593999997E+02  0.45594000000E+02  0.51100000000E-03 0. -1.
         11   -1    0    0    0    0 -0.00000000000E+00 -0.00000000000E+00 -0.45593999997E+02  0.45594000000E+02  0.51100000000E-03 0.  1.
    9900012    2    1    2    0    0  0.12748760338E+00 -0.11510734332E+01  0.22722182276E+00  0.90007808111E+02  0.90000070378E+02 0.  0.
        -12    1    1    2    0    0 -0.12748760338E+00  0.11510734332E+01 -0.22722182276E+00  0.11801918888E+01  0.00000000000E+00 0.  1.
         11    1    3    3    0    0 -0.17282426853E+02 -0.30478034771E+02 -0.85881465505E+01  0.36074217148E+02  0.51100000000E-03 0. -1.
        -11    1    3    3    0    0 -0.81949192666E+01 -0.48163962393E+01 -0.24063110335E+01  0.98053407677E+01  0.51100000000E-03 0.  1.
        -12    1    3    3    0    0  0.25604833723E+02  0.34143357577E+02  0.11221679407E+02  0.44128250195E+02  0.00000000000E+00 0.  1.
</event>
<event>
 7    1  0.2578619E-015  0.9000763E+02  0.7816164E-02  0.1186339E+00
        -11   -1    0    0    0    0  0.00000000000E+00  0.00000000000E+00  0.45593999997E+02  0.45594000000E+02  0.51100000000E-03 0.  1.
         11   -1    0    0    0    0 -0.00000000000E+00 -0.00000000000E+00 -0.45593999997E+02  0.45594000000E+02  0.51100000000E-03 0. -1.
    9900012    2    1    2    0    0 -0.30914477923E+00  0.72936272741E+00 -0.87505664841E+00  0.90007633692E+02  0.89999893657E+02 0.  0.
        -12    1    1    2    0    0  0.30914477923E+00 -0.72936272741E+00  0.87505664841E+00  0.11803663078E+01  0.00000000000E+00 0.  1.
         11    1    3    3    0    0 -0.13965113925E+02 -0.42851388283E+01 -0.15319228400E+02  0.21167559631E+02  0.51100000000E-03 0. -1.
        -11    1    3    3    0    0 -0.20519017408E+02  0.15769393919E+02 -0.73530831916E+01  0.26903005271E+02  0.51100000000E-03 0.  1.
         12    1    3    3    0    0  0.34174986553E+02 -0.10754892363E+02  0.21797254943E+02  0.41937068790E+02  0.00000000000E+00 0. -1.
</event>
<event>
 7    1  0.2578619E-015  0.9000769E+02  0.7816164E-02  0.1186339E+00
        -11   -1    0    0    0    0  0.00000000000E+00  0.00000000000E+00  0.45593999997E+02  0.45594000000E+02  0.51100000000E-03 0. -1.
         11   -1    0    0    0    0 -0.00000000000E+00 -0.00000000000E+00 -0.45593999997E+02  0.45594000000E+02  0.51100000000E-03 0.  1.
    9900012    2    1    2    0    0 -0.10463854101E+01  0.38325646402E+00  0.38899775734E+00  0.90007691905E+02  0.89999952638E+02 0.  0.
        -12    1    1    2    0    0  0.10463854101E+01 -0.38325646402E+00 -0.38899775734E+00  0.11803080949E+01  0.00000000000E+00 0.  1.
         11    1    3    3    0    0 -0.60744171793E+01 -0.57688122739E+01 -0.19174354939E+01  0.85938523523E+01  0.51100000000E-03 0. -1.
        -11    1    3    3    0    0 -0.23288173010E+02 -0.78269293655E+01 -0.28272669478E+02  0.37455889592E+02  0.51100000000E-03 0.  1.
         12    1    3    3    0    0  0.28316204779E+02  0.13978998103E+02  0.30579102729E+02  0.43957949961E+02  0.00000000000E+00 0. -1.
</event>
<event>
 7    1  0.2578619E-015  0.9000773E+02  0.7816164E-02  0.1186339E+00
        -11   -1    0    0    0    0  0.00000000000E+00  0.00000000000E+00  0.45593999997E+02  0.45594000000E+02  0.51100000000E-03 0. -1.
         11   -1    0    0    0    0 -0.00000000000E+00 -0.00000000000E+00 -0.45593999997E+02  0.45594000000E+02  0.51100000000E-03 0.  1.
    9900012    2    1    2    0    0 -0.51754705052E+00 -0.94640816119E+00  0.47905050044E+00  0.90007731921E+02  0.89999993182E+02 0.  0.
        -12    1    1    2    0    0  0.51754705052E+00  0.94640816119E+00 -0.47905050044E+00  0.11802680793E+01  0.00000000000E+00 0.  1.
         11    1    3    3    0    0  0.12662145988E+02 -0.86036677576E+00  0.29073317126E+02  0.31722672349E+02  0.51100000000E-03 0. -1.
        -11    1    3    3    0    0 -0.89525859223E+01 -0.24240246480E+02 -0.10895652543E+02  0.28043779857E+02  0.51100000000E-03 0.  1.
         12    1    3    3    0    0 -0.42271071161E+01  0.24154205094E+02 -0.17698614082E+02  0.30241279714E+02  0.00000000000E+00 0. -1.
</event>
<event>
 7    1  0.2578619E-015  0.9000775E+02  0.7816164E-02  0.1186339E+00
        -11   -1    0    0    0    0  0.00000000000E+00  0.00000000000E+00  0.45593999997E+02  0.45594000000E+02  0.51100000000E-03 0. -1.
         11   -1    0    0    0    0 -0.00000000000E+00 -0.00000000000E+00 -0.45593999997E+02  0.45594000000E+02  0.51100000000E-03 0.  1.
    9900012    2    1    2    0    0 -0.69351893934E+00 -0.29264425464E+00  0.90905518503E+00  0.90007749811E+02  0.90000011309E+02 0.  0.
        -12    1    1    2    0    0  0.69351893934E+00  0.29264425464E+00 -0.90905518503E+00  0.11802501889E+01  0.00000000000E+00 0.  1.
         11    1    3    3    0    0 -0.75154334478E+00  0.37386066452E+01  0.97399866200E+01  0.10459891809E+02  0.51100000000E-03 0. -1.
        -11    1    3    3    0    0 -0.15632795300E+02 -0.37421093433E+02  0.33570788864E+01  0.40693887766E+02  0.51100000000E-03 0.  1.
         12    1    3    3    0    0  0.15690819706E+02  0.33389842533E+02 -0.12188010321E+02  0.38853970235E+02  0.00000000000E+00 0. -1.
</event>
<event>
 7    1  0.2578619E-015  0.9000770E+02  0.7816164E-02  0.1186339E+00
        -11   -1    0    0    0    0  0.00000000000E+00  0.00000000000E+00  0.45593999997E+02  0.45594000000E+02  0.51100000000E-03 0.  1.
         11   -1    0    0    0    0 -0.00000000000E+00 -0.00000000000E+00 -0.45593999997E+02  0.45594000000E+02  0.51100000000E-03 0. -1.
    9900012    2    1    2    0    0 -0.22562838007E+00  0.11526332786E+01 -0.11674598701E+00  0.90007702891E+02  0.89999963769E+02 0.  0.
        -12    1    1    2    0    0  0.22562838007E+00 -0.11526332786E+01  0.11674598701E+00  0.11802971093E+01  0.00000000000E+00 0.  1.
         11    1    3    3    0    0  0.19532413795E-01 -0.55560111864E+01  0.54499897528E+01  0.77828035043E+01  0.51100000000E-03 0. -1.
        -11    1    3    3    0    0 -0.31536731640E+02  0.65573961035E+01  0.23218291706E+02  0.39707102088E+02  0.51100000000E-03 0.  1.
         12    1    3    3    0    0  0.31291570846E+02  0.15124836150E+00 -0.28785027446E+02  0.42517797299E+02  0.00000000000E+00 0. -1.
</event>
<event>
 7    1  0.2578619E-015  0.9000838E+02  0.7816164E-02  0.1186338E+00
        -11   -1    0    0    0    0  0.00000000000E+00  0.00000000000E+00  0.45593999997E+02  0.45594000000E+02  0.51100000000E-03 0. -1.
         11   -1    0    0    0    0 -0.00000000000E+00 -0.00000000000E+00 -0.45593999997E+02  0.45594000000E+02  0.51100000000E-03 0.  1.
    9900012    2    1    2    0    0 -0.14011439845E+00  0.11376035795E+01  0.27881493179E+00  0.90008376452E+02  0.90000646219E+02 0.  0.
        -12    1    1    2    0    0  0.14011439845E+00 -0.11376035795E+01 -0.27881493179E+00  0.11796235480E+01  0.00000000000E+00 0.  1.
         11    1    3    3    0    0 -0.25536668408E+02  0.25783349443E+02  0.11196077635E+02  0.37977028538E+02  0.51100000000E-03 0. -1.
        -11    1    3    3    0    0 -0.73697469286E+01 -0.52584558040E+01  0.54749441445E+01  0.10580148434E+02  0.51100000000E-03 0.  1.
        -12    1    3    3    0    0  0.32766300938E+02 -0.19387290059E+02 -0.16392206848E+02  0.41451199481E+02  0.00000000000E+00 0.  1.
</event>
<event>
 7    1  0.2578619E-015  0.9000787E+02  0.7816164E-02  0.1186339E+00
        -11   -1    0    0    0    0  0.00000000000E+00  0.00000000000E+00  0.45593999997E+02  0.45594000000E+02  0.51100000000E-03 0.  1.
         11   -1    0    0    0    0 -0.00000000000E+00 -0.00000000000E+00 -0.45593999997E+02  0.45594000000E+02  0.51100000000E-03 0. -1.
    9900012    2    1    2    0    0 -0.98804167925E+00 -0.63917206770E+00  0.89133696221E-01  0.90007867758E+02  0.90000130813E+02 0.  0.
        -12    1    1    2    0    0  0.98804167925E+00  0.63917206770E+00 -0.89133696221E-01  0.11801322417E+01  0.00000000000E+00 0.  1.
         11    1    3    3    0    0  0.95358388213E+01 -0.40065940395E+01  0.26242444748E+01  0.10671067292E+02  0.51100000000E-03 0. -1.
        -11    1    3    3    0    0 -0.13965030313E+02  0.39681767709E+02  0.40801080546E+01  0.42264784894E+02  0.51100000000E-03 0.  1.
         12    1    3    3    0    0  0.34411498127E+01 -0.36314345737E+02 -0.66152188332E+01  0.37072015572E+02  0.00000000000E+00 0. -1.
</event>
<event>
 7    1  0.2578619E-015  0.9000772E+02  0.7816164E-02  0.1186339E+00
        -11   -1    0    0    0    0  0.00000000000E+00  0.00000000000E+00  0.45593999997E+02  0.45594000000E+02  0.51100000000E-03 0.  1.
         11   -1    0    0    0    0 -0.00000000000E+00 -0.00000000000E+00 -0.45593999997E+02  0.45594000000E+02  0.51100000000E-03 0. -1.
    9900012    2    1    2    0    0 -0.47656381284E-01  0.20958438307E+00 -0.11605440409E+01  0.90007720705E+02  0.89999981818E+02 0.  0.
        -12    1    1    2    0    0  0.47656381284E-01 -0.20958438307E+00  0.11605440409E+01  0.11802792954E+01  0.00000000000E+00 0.  1.
         11    1    3    3    0    0 -0.27596095793E+01  0.94322104874E+01  0.11130278759E+01  0.98904434189E+01  0.51100000000E-03 0. -1.
        -11    1    3    3    0    0  0.24087881245E+01  0.33575046594E+02  0.10824781375E+02  0.35359042777E+02  0.51100000000E-03 0.  1.
         12    1    3    3    0    0  0.30316507353E+00 -0.42797672698E+02 -0.13098353292E+02  0.44758234509E+02  0.00000000000E+00 0. -1.
</event>
<event>
 7    1  0.2578619E-015  0.9000773E+02  0.7816164E-02  0.1186339E+00
        -11   -1    0    0    0    0  0.00000000000E+00  0.00000000000E+00  0.45593999997E+02  0.45594000000E+02  0.51100000000E-03 0.  1.
         11   -1    0    0    0    0 -0.00000000000E+00 -0.00000000000E+00 -0.45593999997E+02  0.45594000000E+02  0.51100000000E-03 0. -1.
    9900012    2    1    2    0    0 -0.41749082396E+00 -0.93833580074E+00 -0.58161101356E+00  0.90007727136E+02  0.89999988334E+02 0.  0.
        -12    1    1    2    0    0  0.41749082396E+00  0.93833580074E+00  0.58161101356E+00  0.11802728643E+01  0.00000000000E+00 0.  1.
         11    1    3    3    0    0 -0.13485186947E+01 -0.74217897415E+01 -0.56436316264E+01  0.94208303154E+01  0.51100000000E-03 0. -1.
        -11    1    3    3    0    0  0.29880783973E+02 -0.23351933962E+02 -0.36938414683E+01  0.38102736590E+02  0.51100000000E-03 0.  1.
         12    1    3    3    0    0 -0.28949756102E+02  0.29835387903E+02  0.87558620811E+01  0.42484160230E+02  0.00000000000E+00 0. -1.
</event>
<event>
 7    1  0.2578619E-015  0.9000827E+02  0.7816164E-02  0.1186338E+00
        -11   -1    0    0    0    0  0.00000000000E+00  0.00000000000E+00  0.45593999997E+02  0.45594000000E+02  0.51100000000E-03 0.  1.
         11   -1    0    0    0    0 -0.00000000000E+00 -0.00000000000E+00 -0.45593999997E+02  0.45594000000E+02  0.51100000000E-03 0. -1.
    9900012    2    1    2    0    0  0.97877186688E+00  0.25652179489E+00 -0.60659866180E+00  0.90008271330E+02  0.90000539710E+02 0.  0.
        -12    1    1    2    0    0 -0.97877186688E+00 -0.25652179489E+00  0.60659866180E+00  0.11797286701E+01  0.00000000000E+00 0.  1.
         11    1    3    3    0    0 -0.69347154930E+01  0.27442122155E+02  0.24141775795E+02  0.37201958096E+02  0.51100000000E-03 0. -1.
        -11    1    3    3    0    0 -0.49510945238E+01  0.28871598507E+01  0.57256335177E+01  0.81013522592E+01  0.51100000000E-03 0.  1.
        -12    1    3    3    0    0  0.12864581884E+02 -0.30072760211E+02 -0.30474007974E+02  0.44704960975E+02  0.00000000000E+00 0.  1.
</event>
<event>
 7    1  0.2578619E-015  0.9000738E+02  0.7816164E-02  0.1186340E+00
        -11   -1    0    0    0    0  0.00000000000E+00  0.00000000000E+00  0.45593999997E+02  0.45594000000E+02  0.51100000000E-03 0. -1.
         11   -1    0    0    0    0 -0.00000000000E+00 -0.00000000000E+00 -0.45593999997E+02  0.45594000000E+02  0.51100000000E-03 0.  1.
    9900012    2    1    2    0    0  0.90958776569E+00  0.73974792176E+00  0.13884234470E+00  0.90007384022E+02  0.89999640690E+02 0.  0.
        -12    1    1    2    0    0 -0.90958776569E+00 -0.73974792176E+00 -0.13884234470E+00  0.11806159782E+01  0.00000000000E+00 0.  1.
         11    1    3    3    0    0 -0.39746423411E+02  0.23395637300E+01  0.12601807737E+02  0.41761911964E+02  0.51100000000E-03 0. -1.
        -11    1    3    3    0    0  0.65517705855E+01  0.25737258342E+01  0.59920198250E+01  0.92441367536E+01  0.51100000000E-03 0.  1.
        -12    1    3    3    0    0  0.34104240591E+02 -0.41735416424E+01 -0.18454985218E+02  0.39001335304E+02  0.00000000000E+00 0.  1.
</event>
<event>
 7    1  0.2578619E-015  0.9000782E+02  0.7816164E-02  0.1186339E+00
        -11   -1    0    0    0    0  0.00000000000E+00  0.00000000000E+00  0.45593999997E+02  0.45594000000E+02  0.51100000000E-03 0.  1.
         11   -1    0    0    0    0 -0.00000000000E+00 -0.00000000000E+00 -0.45593999997E+02  0.45594000000E+02  0.51100000000E-03 0. -1.
    9900012    2    1    2    0    0  0.94894006300E+00 -0.10234747856E+00  0.69415662219E+00  0.90007823884E+02  0.90000086359E+02 0.  0.
        -12    1    1    2    0    0 -0.94894006300E+00  0.10234747856E+00 -0.69415662219E+00  0.11801761164E+01  0.00000000000E+00 0.  1.
         11    1    3    3    0    0 -0.32869699330E+02  0.72545129173E+01 -0.12281174691E+02  0.35831164421E+02  0.51100000000E-03 0. -1.
        -11    1    3    3    0    0 -0.79674205767E+01 -0.70321739008E+00 -0.35510695752E+01  0.87512513810E+01  0.51100000000E-03 0.  1.
        -12    1    3    3    0    0  0.41786059970E+02 -0.66536430058E+01  0.16526400889E+02  0.45425408082E+02  0.00000000000E+00 0.  1.
</event>
<event>
 7    1  0.2578619E-015  0.9000784E+02  0.7816164E-02  0.1186339E+00
        -11   -1    0    0    0    0  0.00000000000E+00  0.00000000000E+00  0.45593999997E+02  0.45594000000E+02  0.51100000000E-03 0.  1.
         11   -1    0    0    0    0 -0.00000000000E+00 -0.00000000000E+00 -0.45593999997E+02  0.45594000000E+02  0.51100000000E-03 0. -1.
    9900012    2    1    2    0    0 -0.36035779333E+00 -0.80554167151E+00 -0.78359326708E+00  0.90007841734E+02  0.90000104445E+02 0.  0.
        -12    1    1    2    0    0  0.36035779333E+00  0.80554167151E+00  0.78359326708E+00  0.11801582656E+01  0.00000000000E+00 0.  1.
         11    1    3    3    0    0  0.40815175214E+00  0.19857726499E+01  0.84899960432E+01  0.87286834027E+01  0.51100000000E-03 0. -1.
        -11    1    3    3    0    0 -0.79953081455E+01  0.28700167565E+02  0.21435955752E+02  0.36703198360E+02  0.51100000000E-03 0.  1.
         12    1    3    3    0    0  0.72267986001E+01 -0.31491481887E+02 -0.30709545062E+02  0.44575959971E+02  0.00000000000E+00 0. -1.
</event>
<event>
 7    1  0.2578619E-015  0.9000780E+02  0.7816164E-02  0.1186339E+00
        -11   -1    0    0    0    0  0.00000000000E+00  0.00000000000E+00  0.45593999997E+02  0.45594000000E+02  0.51100000000E-03 0. -1.
         11   -1    0    0    0    0 -0.00000000000E+00 -0.00000000000E+00 -0.45593999997E+02  0.45594000000E+02  0.51100000000E-03 0.  1.
    9900012    2    1    2    0    0 -0.47701652022E+00 -0.47649406947E+00  0.96865354738E+00  0.90007796181E+02  0.90000058291E+02 0.  0.
        -12    1    1    2    0    0  0.47701652022E+00  0.47649406947E+00 -0.96865354738E+00  0.11802038187E+01  0.00000000000E+00 0.  1.
         11    1    3    3    0    0 -0.26163327379E+00 -0.78166546160E+01 -0.31089770681E+01  0.84163103571E+01  0.51100000000E-03 0. -1.
        -11    1    3    3    0    0  0.18534853746E+02  0.19379029748E+01 -0.34018612776E+02  0.38788687613E+02  0.51100000000E-03 0.  1.
         12    1    3    3    0    0 -0.18750236992E+02  0.54022575718E+01  0.38096243391E+02  0.42802798211E+02  0.00000000000E+00 0. -1.
</event>
<event>
 7    1  0.2578619E-015  0.9000770E+02  0.7816164E-02  0.1186339E+00
        -11   -1    0    0    0    0  0.00000000000E+00  0.00000000000E+00  0.45593999997E+02  0.45594000000E+02  0.51100000000E-03 0.  1.
         11   -1    0    0    0    0 -0.00000000000E+00 -0.00000000000E+00 -0.45593999997E+02  0.45594000000E+02  0.51100000000E-03 0. -1.
    9900012    2    1    2    0    0  0.24789294953E+00 -0.87016622024E+00 -0.75794239743E+00  0.90007696292E+02  0.89999957083E+02 0.  0.
        -12    1    1    2    0    0 -0.24789294953E+00  0.87016622024E+00  0.75794239743E+00  0.11803037080E+01  0.00000000000E+00 0.  1.
         11    1    3    3    0    0 -0.37310890755E+02 -0.48543776737E+01  0.16537743176E+01  0.37661685056E+02  0.51100000000E-03 0. -1.
        -11    1    3    3    0    0 -0.51121304240E+00 -0.74435367774E+01  0.83191527722E+01  0.11174787767E+02  0.51100000000E-03 0.  1.
        -12    1    3    3    0    0  0.38069996747E+02  0.11427748231E+02 -0.10730869487E+02  0.41171223469E+02  0.00000000000E+00 0.  1.
</event>
<event>
 7    1  0.2578619E-015  0.9000775E+02  0.7816164E-02  0.1186339E+00
        -11   -1    0    0    0    0  0.00000000000E+00  0.00000000000E+00  0.45593999997E+02  0.45594000000E+02  0.51100000000E-03 0.  1.
         11   -1    0    0    0    0 -0.00000000000E+00 -0.00000000000E+00 -0.45593999997E+02  0.45594000000E+02  0.51100000000E-03 0. -1.
    9900012    2    1    2    0    0 -0.55781025460E+00 -0.16191937700E+00 -0.10274381105E+01  0.90007746114E+02  0.90000007563E+02 0.  0.
        -12    1    1    2    0    0  0.55781025460E+00  0.16191937700E+00  0.10274381105E+01  0.11802538861E+01  0.00000000000E+00 0.  1.
         11    1    3    3    0    0 -0.27733453894E+02  0.16971266539E+02 -0.16494350001E+02  0.36458633203E+02  0.51100000000E-03 0. -1.
        -11    1    3    3    0    0 -0.12601432990E+01  0.10779255242E+02  0.12996319843E+00  0.10853441638E+02  0.51100000000E-03 0.  1.
        -12    1    3    3    0    0  0.28435786938E+02 -0.27912441158E+02  0.15336948692E+02  0.42695671272E+02  0.00000000000E+00 0.  1.
</event>
<event>
 7    1  0.2578619E-015  0.9000766E+02  0.7816164E-02  0.1186339E+00
        -11   -1    0    0    0    0  0.00000000000E+00  0.00000000000E+00  0.45593999997E+02  0.45594000000E+02  0.51100000000E-03 0.  1.
         11   -1    0    0    0    0 -0.00000000000E+00 -0.00000000000E+00 -0.45593999997E+02  0.45594000000E+02  0.51100000000E-03 0. -1.
    9900012    2    1    2    0    0  0.94558152273E+00  0.66096750547E+00  0.24942053847E+00  0.90007655531E+02  0.89999915784E+02 0.  0.
        -12    1    1    2    0    0 -0.94558152273E+00 -0.66096750547E+00 -0.24942053847E+00  0.11803444685E+01  0.00000000000E+00 0.  1.
         11    1    3    3    0    0  0.24197099540E+01 -0.65348812411E+01  0.61706875971E+01  0.93079028132E+01  0.51100000000E-03 0. -1.
        -11    1    3    3    0    0 -0.19661611705E+02 -0.89602327561E+00 -0.38087362771E+02  0.42872240852E+02  0.51100000000E-03 0.  1.
         12    1    3    3    0    0  0.18187483273E+02  0.80918720222E+01  0.32166095712E+02  0.37827511867E+02  0.00000000000E+00 0. -1.
</event>
<event>
 7    1  0.2578619E-015  0.9000775E+02  0.7816164E-02  0.1186339E+00
        -11   -1    0    0    0    0  0.00000000000E+00  0.00000000000E+00  0.45593999997E+02  0.45594000000E+02  0.51100000000E-03 0.  1.
         11   -1    0    0    0    0 -0.00000000000E+00 -0.00000000000E+00 -0.45593999997E+02  0.45594000000E+02  0.51100000000E-03 0. -1.
    9900012    2    1    2    0    0 -0.10647427696E+01 -0.50747976207E+00  0.42034262763E-01  0.90007754367E+02  0.90000015925E+02 0.  0.
        -12    1    1    2    0    0  0.10647427696E+01  0.50747976207E+00 -0.42034262763E-01  0.11802456327E+01  0.00000000000E+00 0.  1.
         11    1    3    3    0    0 -0.33444889912E+02  0.22045520425E+02  0.47642945719E+01  0.40339362106E+02  0.51100000000E-03 0. -1.
        -11    1    3    3    0    0  0.26690592236E+01 -0.19958321741E+01 -0.12307848229E+02  0.12751092169E+02  0.51100000000E-03 0.  1.
        -12    1    3    3    0    0  0.29711087919E+02 -0.20557168013E+02  0.75855879197E+01  0.36917300093E+02  0.00000000000E+00 0.  1.
</event>
<event>
 7    1  0.2578619E-015  0.9000775E+02  0.7816164E-02  0.1186339E+00
        -11   -1    0    0    0    0  0.00000000000E+00  0.00000000000E+00  0.45593999997E+02  0.45594000000E+02  0.51100000000E-03 0.  1.
         11   -1    0    0    0    0 -0.00000000000E+00 -0.00000000000E+00 -0.45593999997E+02  0.45594000000E+02  0.51100000000E-03 0. -1.
    9900012    2    1    2    0    0  0.35876074744E+00 -0.69477262525E+00 -0.88407172198E+00  0.90007745331E+02  0.90000006769E+02 0.  0.
        -12    1    1    2    0    0 -0.35876074744E+00  0.69477262525E+00  0.88407172198E+00  0.11802546693E+01  0.00000000000E+00 0.  1.
         11    1    3    3    0    0 -0.27776830630E+02  0.19576919070E+02 -0.19650107708E+02  0.39254742558E+02  0.51100000000E-03 0. -1.
        -11    1    3    3    0    0  0.79253208315E+01  0.62909354003E+01 -0.34131426594E+01  0.10678769665E+02  0.51100000000E-03 0.  1.
        -12    1    3    3    0    0  0.20210270546E+02 -0.26562627095E+02  0.22179178645E+02  0.40074233107E+02  0.00000000000E+00 0.  1.
</event>
<event>
 7    1  0.2578619E-015  0.9000767E+02  0.7816164E-02  0.1186339E+00
        -11   -1    0    0    0    0  0.00000000000E+00  0.00000000000E+00  0.45593999997E+02  0.45594000000E+02  0.51100000000E-03 0. -1.
         11   -1    0    0    0    0 -0.00000000000E+00 -0.00000000000E+00 -0.45593999997E+02  0.45594000000E+02  0.51100000000E-03 0.  1.
    9900012    2    1    2    0    0 -0.11967869111E+00 -0.90633777996E-01  0.11707409862E+01  0.90007672957E+02  0.89999933440E+02 0.  0.
        -12    1    1    2    0    0  0.11967869111E+00  0.90633777996E-01 -0.11707409862E+01  0.11803270427E+01  0.00000000000E+00 0.  1.
         11    1    3    3    0    0 -0.21156493770E+02 -0.45197023861E+01 -0.31695134284E+02  0.38374555057E+02  0.51100000000E-03 0. -1.
        -11    1    3    3    0    0 -0.91964328474E+01  0.11908019297E+01  0.58916197101E+01  0.10986517620E+02  0.51100000000E-03 0.  1.
        -12    1    3    3    0    0  0.30233247927E+02  0.32382666785E+01  0.26974255560E+02  0.40646600280E+02  0.00000000000E+00 0.  1.
</event>
<event>
 7    1  0.2578619E-015  0.9000777E+02  0.7816164E-02  0.1186339E+00
        -11   -1    0    0    0    0  0.00000000000E+00  0.00000000000E+00  0.45593999997E+02  0.45594000000E+02  0.51100000000E-03 0. -1.
         11   -1    0    0    0    0 -0.00000000000E+00 -0.00000000000E+00 -0.45593999997E+02  0.45594000000E+02  0.51100000000E-03 0.  1.
    9900012    2    1    2    0    0  0.44293109025E+00 -0.75962157639E+00  0.78723138175E+00  0.90007768608E+02  0.90000030354E+02 0.  0.
        -12    1    1    2    0    0 -0.44293109025E+00  0.75962157639E+00 -0.78723138175E+00  0.11802313919E+01  0.00000000000E+00 0.  1.
         11    1    3    3    0    0  0.41641703540E+01  0.69842924025E+01  0.41343306842E+01  0.91221349238E+01  0.51100000000E-03 0. -1.
        -11    1    3    3    0    0  0.79413620002E+01 -0.53052241644E+01 -0.40634038036E+02  0.41741294676E+02  0.51100000000E-03 0.  1.
         12    1    3    3    0    0 -0.11662601264E+02 -0.24386898144E+01  0.37286938734E+02  0.39144339008E+02  0.00000000000E+00 0. -1.
</event>
<event>
 7    1  0.2578619E-015  0.9000775E+02  0.7816164E-02  0.1186339E+00
        -11   -1    0    0    0    0  0.00000000000E+00  0.00000000000E+00  0.45593999997E+02  0.45594000000E+02  0.51100000000E-03 0.  1.
         11   -1    0    0    0    0 -0.00000000000E+00 -0.00000000000E+00 -0.45593999997E+02  0.45594000000E+02  0.51100000000E-03 0. -1.
    9900012    2    1    2    0    0 -0.10211428669E+01  0.23292471419E+00 -0.54405913846E+00  0.90007751288E+02  0.90000012805E+02 0.  0.
        -12    1    1    2    0    0  0.10211428669E+01 -0.23292471419E+00  0.54405913846E+00  0.11802487125E+01  0.00000000000E+00 0.  1.
         11    1    3    3    0    0 -0.45566662580E+01  0.93083719875E+01  0.72839971576E+00  0.10389396655E+02  0.51100000000E-03 0. -1.
        -11    1    3    3    0    0  0.20953059914E+02 -0.16751393581E+02  0.31711623023E+02  0.41536332791E+02  0.51100000000E-03 0.  1.
         12    1    3    3    0    0 -0.17417536523E+02  0.76759463076E+01 -0.32984081878E+02  0.38082021842E+02  0.00000000000E+00 0. -1.
</event>
<event>
 7    1  0.2578619E-015  0.9000780E+02  0.7816164E-02  0.1186339E+00
        -11   -1    0    0    0    0  0.00000000000E+00  0.00000000000E+00  0.45593999997E+02  0.45594000000E+02  0.51100000000E-03 0. -1.
         11   -1    0    0    0    0 -0.00000000000E+00 -0.00000000000E+00 -0.45593999997E+02  0.45594000000E+02  0.51100000000E-03 0.  1.
    9900012    2    1    2    0    0  0.10872423394E+01 -0.26534262137E+00  0.37467370538E+00  0.90007795358E+02  0.90000057457E+02 0.  0.
        -12    1    1    2    0    0 -0.10872423394E+01  0.26534262137E+00 -0.37467370538E+00  0.11802046419E+01  0.00000000000E+00 0.  1.
         11    1    3    3    0    0  0.21449879238E+01  0.35389759985E+02  0.99890836925E+01  0.36835008867E+02  0.51100000000E-03 0. -1.
        -11    1    3    3    0    0 -0.49453675084E+01  0.31302302864E+01  0.83950050025E+01  0.10233821901E+02  0.51100000000E-03 0.  1.
        -12    1    3    3    0    0  0.38876219239E+01 -0.38785332893E+02 -0.18009414990E+02  0.42938964590E+02  0.00000000000E+00 0.  1.
</event>
<event>
 7    1  0.2578619E-015  0.9000765E+02  0.7816164E-02  0.1186339E+00
        -11   -1    0    0    0    0  0.00000000000E+00  0.00000000000E+00  0.45593999997E+02  0.45594000000E+02  0.51100000000E-03 0. -1.
         11   -1    0    0    0    0 -0.00000000000E+00 -0.00000000000E+00 -0.45593999997E+02  0.45594000000E+02  0.51100000000E-03 0.  1.
    9900012    2    1    2    0    0  0.22293287672E+00 -0.96498519014E+00  0.64213864023E+00  0.90007645173E+02  0.89999905289E+02 0.  0.
        -12    1    1    2    0    0 -0.22293287672E+00  0.96498519014E+00 -0.64213864023E+00  0.11803548271E+01  0.00000000000E+00 0.  1.
         11    1    3    3    0    0 -0.23805574279E+02 -0.59904122387E+01  0.35634953409E+02  0.43271703344E+02  0.51100000000E-03 0. -1.
        -11    1    3    3    0    0  0.26288044507E+01  0.81115909578E+01 -0.54251708644E+01  0.10106483062E+02  0.51100000000E-03 0.  1.
        -12    1    3    3    0    0  0.21399702705E+02 -0.30861639093E+01 -0.29567643904E+02  0.36629458767E+02  0.00000000000E+00 0.  1.
</event>
<event>
 7    1  0.2578619E-015  0.9000775E+02  0.7816164E-02  0.1186339E+00
        -11   -1    0    0    0    0  0.00000000000E+00  0.00000000000E+00  0.45593999997E+02  0.45594000000E+02  0.51100000000E-03 0.  1.
         11   -1    0    0    0    0 -0.00000000000E+00 -0.00000000000E+00 -0.45593999997E+02  0.45594000000E+02  0.51100000000E-03 0. -1.
    9900012    2    1    2    0    0 -0.29130223378E+00  0.11011489103E+01 -0.30920501585E+00  0.90007748478E+02  0.90000009958E+02 0.  0.
        -12    1    1    2    0    0  0.29130223378E+00 -0.11011489103E+01  0.30920501585E+00  0.11802515223E+01  0.00000000000E+00 0.  1.
         11    1    3    3    0    0 -0.96526785246E+01 -0.25632650849E+01  0.75486626959E+00  0.10015705364E+02  0.51100000000E-03 0. -1.
        -11    1    3    3    0    0 -0.30234823188E+02 -0.43775752253E+00  0.18694323043E+02  0.35550160044E+02  0.51100000000E-03 0.  1.
         12    1    3    3    0    0  0.39596199479E+02  0.41021715177E+01 -0.19758394328E+02  0.44441883070E+02  0.00000000000E+00 0. -1.
</event>
<event>
 7    1  0.2578619E-015  0.9000849E+02  0.7816164E-02  0.1186338E+00
        -11   -1    0    0    0    0  0.00000000000E+00  0.00000000000E+00  0.45593999997E+02  0.45594000000E+02  0.51100000000E-03 0.  1.
         11   -1    0    0    0    0 -0.00000000000E+00 -0.00000000000E+00 -0.45593999997E+02  0.45594000000E+02  0.51100000000E-03 0. -1.
    9900012    2    1    2    0    0  0.56256659341E+00  0.98323143857E+00 -0.32864578920E+00  0.90008494473E+02  0.90000765797E+02 0.  0.
        -12    1    1    2    0    0 -0.56256659341E+00 -0.98323143857E+00  0.32864578920E+00  0.11795055272E+01  0.00000000000E+00 0.  1.
         11    1    3    3    0    0  0.20963752742E+02  0.20535547128E+02 -0.21941299320E+02  0.36641618974E+02  0.51100000000E-03 0. -1.
        -11    1    3    3    0    0 -0.41068932874E+01  0.30424999838E+01 -0.10000632269E+02  0.11231029546E+02  0.51100000000E-03 0.  1.
        -12    1    3    3    0    0 -0.16294292861E+02 -0.22594815674E+02  0.31613285800E+02  0.42135845954E+02  0.00000000000E+00 0.  1.
</event>
<event>
 7    1  0.2578619E-015  0.9000775E+02  0.7816164E-02  0.1186339E+00
        -11   -1    0    0    0    0  0.00000000000E+00  0.00000000000E+00  0.45593999997E+02  0.45594000000E+02  0.51100000000E-03 0.  1.
         11   -1    0    0    0    0 -0.00000000000E+00 -0.00000000000E+00 -0.45593999997E+02  0.45594000000E+02  0.51100000000E-03 0. -1.
    9900012    2    1    2    0    0  0.10864181982E+01  0.43191240033E+00  0.16165541816E+00  0.90007752019E+02  0.90000013545E+02 0.  0.
        -12    1    1    2    0    0 -0.10864181982E+01 -0.43191240033E+00 -0.16165541816E+00  0.11802479812E+01  0.00000000000E+00 0.  1.
         11    1    3    3    0    0 -0.16127506838E+01 -0.87231398420E+01 -0.49776075764E+01  0.10172055393E+02  0.51100000000E-03 0. -1.
        -11    1    3    3    0    0 -0.14404874137E+02 -0.22546326009E+02  0.26746160654E+02  0.37831129052E+02  0.51100000000E-03 0.  1.
         12    1    3    3    0    0  0.17104043019E+02  0.31701378251E+02 -0.21606897659E+02  0.42004567574E+02  0.00000000000E+00 0. -1.
</event>
<event>
 7    1  0.2578619E-015  0.9000802E+02  0.7816164E-02  0.1186338E+00
        -11   -1    0    0    0    0  0.00000000000E+00  0.00000000000E+00  0.45593999997E+02  0.45594000000E+02  0.51100000000E-03 0.  1.
         11   -1    0    0    0    0 -0.00000000000E+00 -0.00000000000E+00 -0.45593999997E+02  0.45594000000E+02  0.51100000000E-03 0. -1.
    9900012    2    1    2    0    0  0.11659341187E+01 -0.16867382316E+00  0.67003648417E-01  0.90008024273E+02  0.90000289393E+02 0.  0.
        -12    1    1    2    0    0 -0.11659341187E+01  0.16867382316E+00 -0.67003648417E-01  0.11799757271E+01  0.00000000000E+00 0.  1.
         11    1    3    3    0    0 -0.27679283976E+01  0.59642182051E+01  0.63818131539E+01  0.91630161958E+01  0.51100000000E-03 0. -1.
        -11    1    3    3    0    0 -0.18971514112E+02  0.31336446609E+02 -0.14508038701E+01  0.36660551905E+02  0.51100000000E-03 0.  1.
         12    1    3    3    0    0  0.22905376628E+02 -0.37469338638E+02 -0.48640056353E+01  0.44184456173E+02  0.00000000000E+00 0. -1.
</event>
<event>
 7    1  0.2578619E-015  0.9000768E+02  0.7816164E-02  0.1186339E+00
        -11   -1    0    0    0    0  0.00000000000E+00  0.00000000000E+00  0.45593999997E+02  0.45594000000E+02  0.51100000000E-03 0.  1.
         11   -1    0    0    0    0 -0.00000000000E+00 -0.00000000000E+00 -0.45593999997E+02  0.45594000000E+02  0.51100000000E-03 0. -1.
    9900012    2    1    2    0    0  0.68060540166E+00  0.89449070500E+00 -0.36030875656E+00  0.90007678123E+02  0.89999938674E+02 0.  0.
        -12    1    1    2    0    0 -0.68060540166E+00 -0.89449070500E+00  0.36030875656E+00  0.11803218774E+01  0.00000000000E+00 0.  1.
         11    1    3    3    0    0  0.12939860063E+02  0.92692376265E+01 -0.37202152761E+02  0.40464291851E+02  0.51100000000E-03 0. -1.
        -11    1    3    3    0    0  0.42620390613E+01 -0.44909030709E+01 -0.25153631030E+01  0.66828316718E+01  0.51100000000E-03 0.  1.
        -12    1    3    3    0    0 -0.16521293722E+02 -0.38838438506E+01  0.39357207108E+02  0.42860554600E+02  0.00000000000E+00 0.  1.
</event>
<event>
 7    1  0.2578619E-015  0.9000777E+02  0.7816164E-02  0.1186339E+00
        -11   -1    0    0    0    0  0.00000000000E+00  0.00000000000E+00  0.45593999997E+02  0.45594000000E+02  0.51100000000E-03 0.  1.
         11   -1    0    0    0    0 -0.00000000000E+00 -0.00000000000E+00 -0.45593999997E+02  0.45594000000E+02  0.51100000000E-03 0. -1.
    9900012    2    1    2    0    0 -0.62714926505E+00  0.83152422508E+00 -0.55515769601E+00  0.90007767478E+02  0.90000029209E+02 0.  0.
        -12    1    1    2    0    0  0.62714926505E+00 -0.83152422508E+00  0.55515769601E+00  0.11802325216E+01  0.00000000000E+00 0.  1.
         11    1    3    3    0    0  0.15971606098E+02 -0.36146472879E+02 -0.16125465289E+02  0.42681264437E+02  0.51100000000E-03 0. -1.
        -11    1    3    3    0    0  0.41386471941E+01  0.83189958500E+01  0.25959832031E+01  0.96474463773E+01  0.51100000000E-03 0.  1.
        -12    1    3    3    0    0 -0.20737402557E+02  0.28659001254E+02  0.12974324390E+02  0.37679056664E+02  0.00000000000E+00 0.  1.
</event>
<event>
 7    1  0.2578619E-015  0.9000783E+02  0.7816164E-02  0.1186339E+00
        -11   -1    0    0    0    0  0.00000000000E+00  0.00000000000E+00  0.45593999997E+02  0.45594000000E+02  0.51100000000E-03 0.  1.
         11   -1    0    0    0    0 -0.00000000000E+00 -0.00000000000E+00 -0.45593999997E+02  0.45594000000E+02  0.51100000000E-03 0. -1.
    9900012    2    1    2    0    0 -0.68421181765E+00  0.36131284360E+00 -0.89112169292E+00  0.90007834480E+02  0.90000097095E+02 0.  0.
        -12    1    1    2    0    0  0.68421181765E+00 -0.36131284360E+00  0.89112169292E+00  0.11801655197E+01  0.00000000000E+00 0.  1.
         11    1    3    3    0    0 -0.35430164228E+02  0.17319707521E+02 -0.87715976275E+01  0.40400615479E+02  0.51100000000E-03 0. -1.
        -11    1    3    3    0    0  0.15830282910E+01  0.74960580263E+01  0.24668532634E+01  0.80487408821E+01  0.51100000000E-03 0.  1.
        -12    1    3    3    0    0  0.33162924120E+02 -0.24454452703E+02  0.54136226712E+01  0.41558478120E+02  0.00000000000E+00 0.  1.
</event>
<event>
 7    1  0.2578619E-015  0.9000772E+02  0.7816164E-02  0.1186339E+00
        -11   -1    0    0    0    0  0.00000000000E+00  0.00000000000E+00  0.45593999997E+02  0.45594000000E+02  0.51100000000E-03 0. -1.
         11   -1    0    0    0    0 -0.00000000000E+00 -0.00000000000E+00 -0.45593999997E+02  0.45594000000E+02  0.51100000000E-03 0.  1.
    9900012    2    1    2    0    0 -0.52800956090E+00 -0.10429640162E+01  0.16278620557E+00  0.90007717244E+02  0.89999978312E+02 0.  0.
        -12    1    1    2    0    0  0.52800956090E+00  0.10429640162E+01 -0.16278620557E+00  0.11802827561E+01  0.00000000000E+00 0.  1.
         11    1    3    3    0    0  0.60601513772E+01  0.19873227618E+01  0.10019278692E+02  0.11876903310E+02  0.51100000000E-03 0. -1.
        -11    1    3    3    0    0  0.24443713101E+02 -0.27906412249E+02 -0.97538806610E+01  0.38358846997E+02  0.51100000000E-03 0.  1.
         12    1    3    3    0    0 -0.31031874039E+02  0.24876125471E+02 -0.10261182516E+00  0.39771966936E+02  0.00000000000E+00 0. -1.
</event>
<event>
 7    1  0.2578619E-015  0.9000778E+02  0.7816164E-02  0.1186339E+00
        -11   -1    0    0    0    0  0.00000000000E+00  0.00000000000E+00  0.45593999997E+02  0.45594000000E+02  0.51100000000E-03 0. -1.
         11   -1    0    0    0    0 -0.00000000000E+00 -0.00000000000E+00 -0.45593999997E+02  0.45594000000E+02  0.51100000000E-03 0.  1.
    9900012    2    1    2    0    0  0.29287681544E+00  0.80036870736E+00  0.81642635474E+00  0.90007780152E+02  0.90000042050E+02 0.  0.
        -12    1    1    2    0    0 -0.29287681544E+00 -0.80036870736E+00 -0.81642635474E+00  0.11802198479E+01  0.00000000000E+00 0.  1.
         11    1    3    3    0    0  0.12821109590E+02 -0.12327592262E+02  0.31154313309E+02  0.35873968559E+02  0.51100000000E-03 0. -1.
        -11    1    3    3    0    0  0.16226408409E+00 -0.72297797006E+01  0.67968448149E+01  0.99243712068E+01  0.51100000000E-03 0.  1.
        -12    1    3    3    0    0 -0.12690496859E+02  0.20357740670E+02 -0.37134731770E+02  0.44209440387E+02  0.00000000000E+00 0.  1.
</event>
<event>
 7    1  0.2578619E-015  0.9000775E+02  0.7816164E-02  0.1186339E+00
        -11   -1    0    0    0    0  0.00000000000E+00  0.00000000000E+00  0.45593999997E+02  0.45594000000E+02  0.51100000000E-03 0. -1.
         11   -1    0    0    0    0 -0.00000000000E+00 -0.00000000000E+00 -0.45593999997E+02  0.45594000000E+02  0.51100000000E-03 0.  1.
    9900012    2    1    2    0    0 -0.81491357022E+00  0.43816776725E+00  0.73275175319E+00  0.90007745684E+02  0.90000007127E+02 0.  0.
        -12    1    1    2    0    0  0.81491357022E+00 -0.43816776725E+00 -0.73275175319E+00  0.11802543162E+01  0.00000000000E+00 0.  1.
         11    1    3    3    0    0  0.10013600330E+01 -0.37141564510E+02  0.25996565759E+00  0.37155970161E+02  0.51100000000E-03 0. -1.
        -11    1    3    3    0    0 -0.33652126410E+01 -0.52768463673E+01  0.70928049021E+01  0.94592624102E+01  0.51100000000E-03 0.  1.
        -12    1    3    3    0    0  0.15489390378E+01  0.42856578645E+02 -0.66200188065E+01  0.43392513113E+02  0.00000000000E+00 0.  1.
</event>
<event>
 7    1  0.2578619E-015  0.9000785E+02  0.7816164E-02  0.1186339E+00
        -11   -1    0    0    0    0  0.00000000000E+00  0.00000000000E+00  0.45593999997E+02  0.45594000000E+02  0.51100000000E-03 0. -1.
         11   -1    0    0    0    0 -0.00000000000E+00 -0.00000000000E+00 -0.45593999997E+02  0.45594000000E+02  0.51100000000E-03 0.  1.
    9900012    2    1    2    0    0 -0.63840476513E+00 -0.53123376323E+00  0.83844653402E+00  0.90007846389E+02  0.90000109161E+02 0.  0.
        -12    1    1    2    0    0  0.63840476513E+00  0.53123376323E+00 -0.83844653402E+00  0.11801536111E+01  0.00000000000E+00 0.  1.
         11    1    3    3    0    0  0.19876747647E+01 -0.63141527436E+01 -0.73096686114E+01  0.98615734702E+01  0.51100000000E-03 0. -1.
        -11    1    3    3    0    0 -0.40827188653E+02  0.47175691737E+01  0.83071345218E+01  0.41929980639E+02  0.51100000000E-03 0.  1.
         12    1    3    3    0    0  0.38201109123E+02  0.10653498067E+01 -0.15901937645E+00  0.38216292279E+02  0.00000000000E+00 0. -1.
</event>
<event>
 7    1  0.2578619E-015  0.9000770E+02  0.7816164E-02  0.1186339E+00
        -11   -1    0    0    0    0  0.00000000000E+00  0.00000000000E+00  0.45593999997E+02  0.45594000000E+02  0.51100000000E-03 0.  1.
         11   -1    0    0    0    0 -0.00000000000E+00 -0.00000000000E+00 -0.45593999997E+02  0.45594000000E+02  0.51100000000E-03 0. -1.
    9900012    2    1    2    0    0 -0.11329656117E+01  0.32559813443E+00  0.59112665859E-01  0.90007695154E+02  0.89999955930E+02 0.  0.
        -12    1    1    2    0    0  0.11329656117E+01 -0.32559813443E+00 -0.59112665859E-01  0.11803048460E+01  0.00000000000E+00 0.  1.
         11    1    3    3    0    0  0.22132426110E+01  0.31138373549E+01  0.10027317016E+02  0.10730401331E+02  0.51100000000E-03 0. -1.
        -11    1    3    3    0    0 -0.42246830177E+01 -0.12185949505E+02  0.32923355542E+02  0.35359477546E+02  0.51100000000E-03 0.  1.
         12    1    3    3    0    0  0.87847479508E+00  0.93977102850E+01 -0.42891559892E+02  0.43917816277E+02  0.00000000000E+00 0. -1.
</event>
<event>
 7    1  0.2578619E-015  0.9000773E+02  0.7816164E-02  0.1186339E+00
        -11   -1    0    0    0    0  0.00000000000E+00  0.00000000000E+00  0.45593999997E+02  0.45594000000E+02  0.51100000000E-03 0. -1.
         11   -1    0    0    0    0 -0.00000000000E+00 -0.00000000000E+00 -0.45593999997E+02  0.45594000000E+02  0.51100000000E-03 0.  1.
    9900012    2    1    2    0    0 -0.39026431448E+00 -0.95707183077E+00  0.56987278397E+00  0.90007725577E+02  0.89999986754E+02 0.  0.
        -12    1    1    2    0    0  0.39026431448E+00  0.95707183077E+00 -0.56987278397E+00  0.11802744233E+01  0.00000000000E+00 0.  1.
         11    1    3    3    0    0 -0.94686930231E+01  0.20925081468E+01  0.50875794642E+01  0.10950717007E+02  0.51100000000E-03 0. -1.
        -11    1    3    3    0    0 -0.12142021624E+02 -0.33656955550E+02 -0.17217564023E+02  0.39707226762E+02  0.51100000000E-03 0.  1.
         12    1    3    3    0    0  0.21220450333E+02  0.30607375572E+02  0.12699857342E+02  0.39349781807E+02  0.00000000000E+00 0. -1.
</event>
<event>
 7    1  0.2578619E-015  0.9000766E+02  0.7816164E-02  0.1186339E+00
        -11   -1    0    0    0    0  0.00000000000E+00  0.00000000000E+00  0.45593999997E+02  0.45594000000E+02  0.51100000000E-03 0. -1.
         11   -1    0    0    0    0 -0.00000000000E+00 -0.00000000000E+00 -0.45593999997E+02  0.45594000000E+02  0.51100000000E-03 0.  1.
    9900012    2    1    2    0    0 -0.72271107156E+00  0.20224409515E+00  0.91104208147E+00  0.90007656134E+02  0.89999916395E+02 0.  0.
        -12    1    1    2    0    0  0.72271107156E+00 -0.20224409515E+00 -0.91104208147E+00  0.11803438657E+01  0.00000000000E+00 0.  1.
         11    1    3    3    0    0  0.50405442323E+01  0.17889471408E+01  0.56637998980E+01  0.77901250039E+01  0.51100000000E-03 0. -1.
        -11    1    3    3    0    0 -0.21817699416E+02  0.34691030259E+02 -0.10045357559E+02  0.42194653654E+02  0.51100000000E-03 0.  1.
         12    1    3    3    0    0  0.16054444112E+02 -0.36277733304E+02  0.52925997423E+01  0.40022877476E+02  0.00000000000E+00 0. -1.
</event>
<event>
 7    1  0.2578619E-015  0.9000758E+02  0.7816164E-02  0.1186339E+00
        -11   -1    0    0    0    0  0.00000000000E+00  0.00000000000E+00  0.45593999997E+02  0.45594000000E+02  0.51100000000E-03 0. -1.
         11   -1    0    0    0    0 -0.00000000000E+00 -0.00000000000E+00 -0.45593999997E+02  0.45594000000E+02  0.51100000000E-03 0.  1.
    9900012    2    1    2    0    0  0.11896259543E+00 -0.11553027343E+01 -0.21098982262E+00  0.90007579222E+02  0.89999838468E+02 0.  0.
        -12    1    1    2    0    0 -0.11896259543E+00  0.11553027343E+01  0.21098982262E+00  0.11804207776E+01  0.00000000000E+00 0.  1.
         11    1    3    3    0    0 -0.21656486845E+02  0.25073495707E+02  0.24954776286E+02  0.41477999821E+02  0.51100000000E-03 0. -1.
        -11    1    3    3    0    0 -0.44434687787E+01 -0.61259708527E+01 -0.10824454521E+01  0.76448428429E+01  0.51100000000E-03 0.  1.
        -12    1    3    3    0    0  0.26218918219E+02 -0.20102827589E+02 -0.24083320656E+02  0.40884736558E+02  0.00000000000E+00 0.  1.
</event>
<event>
 7    1  0.2578619E-015  0.9000749E+02  0.7816164E-02  0.1186340E+00
        -11   -1    0    0    0    0  0.00000000000E+00  0.00000000000E+00  0.45593999997E+02  0.45594000000E+02  0.51100000000E-03 0. -1.
         11   -1    0    0    0    0 -0.00000000000E+00 -0.00000000000E+00 -0.45593999997E+02  0.45594000000E+02  0.51100000000E-03 0.  1.
    9900012    2    1    2    0    0  0.15466785994E+00 -0.10945793132E+01  0.41422023180E+00  0.90007489763E+02  0.89999747827E+02 0.  0.
        -12    1    1    2    0    0 -0.15466785994E+00  0.10945793132E+01 -0.41422023180E+00  0.11805102373E+01  0.00000000000E+00 0.  1.
         11    1    3    3    0    0 -0.33462558083E+02  0.23715824610E+02 -0.79332929369E+00  0.41022097728E+02  0.51100000000E-03 0. -1.
        -11    1    3    3    0    0 -0.23074674248E+01 -0.87730330077E+01 -0.26614119790E+01  0.94537626401E+01  0.51100000000E-03 0.  1.
        -12    1    3    3    0    0  0.35924693368E+02 -0.16037370915E+02  0.38689615045E+01  0.39531629394E+02  0.00000000000E+00 0.  1.
</event>
<event>
 7    1  0.2578619E-015  0.9000773E+02  0.7816164E-02  0.1186339E+00
        -11   -1    0    0    0    0  0.00000000000E+00  0.00000000000E+00  0.45593999997E+02  0.45594000000E+02  0.51100000000E-03 0.  1.
         11   -1    0    0    0    0 -0.00000000000E+00 -0.00000000000E+00 -0.45593999997E+02  0.45594000000E+02  0.51100000000E-03 0. -1.
    9900012    2    1    2    0    0 -0.13349724922E+00 -0.58839815643E+00 -0.10143973610E+01  0.90007730577E+02  0.89999991820E+02 0.  0.
        -12    1    1    2    0    0  0.13349724922E+00  0.58839815643E+00  0.10143973610E+01  0.11802694235E+01  0.00000000000E+00 0.  1.
         11    1    3    3    0    0 -0.49071232247E+01 -0.18875463490E+02  0.11626523384E+02  0.22705484504E+02  0.51100000000E-03 0. -1.
        -11    1    3    3    0    0  0.30684633102E+02 -0.69605591274E+00  0.42927156591E+01  0.30991266680E+02  0.51100000000E-03 0.  1.
         12    1    3    3    0    0 -0.25911007127E+02  0.18983121246E+02 -0.16933636404E+02  0.36310979392E+02  0.00000000000E+00 0. -1.
</event>
<event>
 7    1  0.2578619E-015  0.9000774E+02  0.7816164E-02  0.1186339E+00
        -11   -1    0    0    0    0  0.00000000000E+00  0.00000000000E+00  0.45593999997E+02  0.45594000000E+02  0.51100000000E-03 0.  1.
         11   -1    0    0    0    0 -0.00000000000E+00 -0.00000000000E+00 -0.45593999997E+02  0.45594000000E+02  0.51100000000E-03 0. -1.
    9900012    2    1    2    0    0  0.48815120490E+00 -0.21697386435E+00 -0.10524508887E+01  0.90007736415E+02  0.89999997736E+02 0.  0.
        -12    1    1    2    0    0 -0.48815120490E+00  0.21697386435E+00  0.10524508887E+01  0.11802635849E+01  0.00000000000E+00 0.  1.
         11    1    3    3    0    0 -0.44660202375E+00 -0.10734570945E+02 -0.35365253714E+02  0.36961218017E+02  0.51100000000E-03 0. -1.
        -11    1    3    3    0    0  0.79734788721E+01  0.17302668666E+01 -0.66743028622E+01  0.10541181514E+02  0.51100000000E-03 0.  1.
        -12    1    3    3    0    0 -0.70387256434E+01  0.87873302139E+01  0.40987105688E+02  0.42505336884E+02  0.00000000000E+00 0.  1.
</event>
<event>
 7    1  0.2578619E-015  0.9000780E+02  0.7816164E-02  0.1186339E+00
        -11   -1    0    0    0    0  0.00000000000E+00  0.00000000000E+00  0.45593999997E+02  0.45594000000E+02  0.51100000000E-03 0. -1.
         11   -1    0    0    0    0 -0.00000000000E+00 -0.00000000000E+00 -0.45593999997E+02  0.45594000000E+02  0.51100000000E-03 0.  1.
    9900012    2    1    2    0    0 -0.10044255096E+01 -0.58654114047E+00  0.19993886708E+00  0.90007798041E+02  0.90000060175E+02 0.  0.
        -12    1    1    2    0    0  0.10044255096E+01  0.58654114047E+00 -0.19993886708E+00  0.11802019591E+01  0.00000000000E+00 0.  1.
         11    1    3    3    0    0 -0.12636334478E+02  0.35138250471E+02  0.90703861113E+00  0.37352326761E+02  0.51100000000E-03 0. -1.
        -11    1    3    3    0    0  0.73708445230E+00  0.48871420214E+01  0.82939939911E+01  0.96549358990E+01  0.51100000000E-03 0.  1.
        -12    1    3    3    0    0  0.10894824516E+02 -0.40611933632E+02 -0.90010937352E+01  0.43000535381E+02  0.00000000000E+00 0.  1.
</event>
<event>
 7    1  0.2578619E-015  0.9000763E+02  0.7816164E-02  0.1186339E+00
        -11   -1    0    0    0    0  0.00000000000E+00  0.00000000000E+00  0.45593999997E+02  0.45594000000E+02  0.51100000000E-03 0.  1.
         11   -1    0    0    0    0 -0.00000000000E+00 -0.00000000000E+00 -0.45593999997E+02  0.45594000000E+02  0.51100000000E-03 0. -1.
    9900012    2    1    2    0    0  0.83836913116E+00 -0.64789158532E+00  0.52022648323E+00  0.90007634845E+02  0.89999894824E+02 0.  0.
        -12    1    1    2    0    0 -0.83836913116E+00  0.64789158532E+00 -0.52022648323E+00  0.11803651555E+01  0.00000000000E+00 0.  1.
         11    1    3    3    0    0  0.37859454994E+02  0.29939927398E+01 -0.12039651624E+02  0.39840375707E+02  0.51100000000E-03 0. -1.
        -11    1    3    3    0    0 -0.13138771193E+01 -0.29996329693E+01  0.14046660171E+02  0.14423339878E+02  0.51100000000E-03 0.  1.
        -12    1    3    3    0    0 -0.35707208744E+02 -0.64225135584E+00 -0.14867820629E+01  0.35743919259E+02  0.00000000000E+00 0.  1.
</event>
<event>
 7    1  0.2578619E-015  0.9000777E+02  0.7816164E-02  0.1186339E+00
        -11   -1    0    0    0    0  0.00000000000E+00  0.00000000000E+00  0.45593999997E+02  0.45594000000E+02  0.51100000000E-03 0.  1.
         11   -1    0    0    0    0 -0.00000000000E+00 -0.00000000000E+00 -0.45593999997E+02  0.45594000000E+02  0.51100000000E-03 0. -1.
    9900012    2    1    2    0    0  0.15647877913E+00 -0.21458277154E+00 -0.11499608800E+01  0.90007770616E+02  0.90000032388E+02 0.  0.
        -12    1    1    2    0    0 -0.15647877913E+00  0.21458277154E+00  0.11499608800E+01  0.11802293844E+01  0.00000000000E+00 0.  1.
         11    1    3    3    0    0 -0.27115144228E+02 -0.24597108394E+01  0.14079747667E+02  0.30651598956E+02  0.51100000000E-03 0. -1.
        -11    1    3    3    0    0 -0.80185754010E+01  0.10699394532E+02  0.86413265841E+01  0.15920022620E+02  0.51100000000E-03 0.  1.
        -12    1    3    3    0    0  0.35290198408E+02 -0.84542664644E+01 -0.23871035132E+02  0.43436149040E+02  0.00000000000E+00 0.  1.
</event>
<event>
 7    1  0.2578619E-015  0.9000768E+02  0.7816164E-02  0.1186339E+00
        -11   -1    0    0    0    0  0.00000000000E+00  0.00000000000E+00  0.45593999997E+02  0.45594000000E+02  0.51100000000E-03 0.  1.
         11   -1    0    0    0    0 -0.00000000000E+00 -0.00000000000E+00 -0.45593999997E+02  0.45594000000E+02  0.51100000000E-03 0. -1.
    9900012    2    1    2    0    0 -0.11032338254E+01 -0.40228873802E+00 -0.11917929974E+00  0.90007675973E+02  0.89999936496E+02 0.  0.
        -12    1    1    2    0    0  0.11032338254E+01  0.40228873802E+00  0.11917929974E+00  0.11803240265E+01  0.00000000000E+00 0.  1.
         11    1    3    3    0    0  0.68428765688E+01  0.34413425206E+02  0.94247115664E+01  0.36330895702E+02  0.51100000000E-03 0. -1.
        -11    1    3    3    0    0  0.82826581050E+01  0.33306317016E+01  0.43826934409E+01  0.99450256347E+01  0.51100000000E-03 0.  1.
        -12    1    3    3    0    0 -0.16228768499E+02 -0.38146345646E+02 -0.13926584307E+02  0.43731754637E+02  0.00000000000E+00 0.  1.
</event>
<event>
 7    1  0.2578619E-015  0.9000787E+02  0.7816164E-02  0.1186339E+00
        -11   -1    0    0    0    0  0.00000000000E+00  0.00000000000E+00  0.45593999997E+02  0.45594000000E+02  0.51100000000E-03 0.  1.
         11   -1    0    0    0    0 -0.00000000000E+00 -0.00000000000E+00 -0.45593999997E+02  0.45594000000E+02  0.51100000000E-03 0. -1.
    9900012    2    1    2    0    0 -0.38537405249E+00  0.11048051605E+01 -0.15363359706E+00  0.90007868276E+02  0.90000131338E+02 0.  0.
        -12    1    1    2    0    0  0.38537405249E+00 -0.11048051605E+01  0.15363359706E+00  0.11801317236E+01  0.00000000000E+00 0.  1.
         11    1    3    3    0    0 -0.16509288119E+01  0.13487905923E+01  0.96513923638E+01  0.98840364642E+01  0.51100000000E-03 0. -1.
        -11    1    3    3    0    0 -0.11863947901E+01 -0.71180439238E+00  0.35111124583E+02  0.35138373153E+02  0.51100000000E-03 0.  1.
         12    1    3    3    0    0  0.24519495495E+01  0.46781896060E+00 -0.44916150543E+02  0.44985458660E+02  0.00000000000E+00 0. -1.
</event>
<event>
 7    1  0.2578619E-015  0.9000780E+02  0.7816164E-02  0.1186339E+00
        -11   -1    0    0    0    0  0.00000000000E+00  0.00000000000E+00  0.45593999997E+02  0.45594000000E+02  0.51100000000E-03 0. -1.
         11   -1    0    0    0    0 -0.00000000000E+00 -0.00000000000E+00 -0.45593999997E+02  0.45594000000E+02  0.51100000000E-03 0.  1.
    9900012    2    1    2    0    0  0.79504628608E+00 -0.35728049578E-02  0.87221480832E+00  0.90007800850E+02  0.90000063021E+02 0.  0.
        -12    1    1    2    0    0 -0.79504628608E+00  0.35728049578E-02 -0.87221480832E+00  0.11801991501E+01  0.00000000000E+00 0.  1.
         11    1    3    3    0    0  0.21107635998E+01  0.79378647394E+01  0.51410177097E+01  0.96899475204E+01  0.51100000000E-03 0. -1.
        -11    1    3    3    0    0 -0.27700916543E+02  0.25361660225E+02  0.51488999885E+00  0.37560879897E+02  0.51100000000E-03 0.  1.
         12    1    3    3    0    0  0.26385199229E+02 -0.33303097769E+02 -0.47836929002E+01  0.42756973433E+02  0.00000000000E+00 0. -1.
</event>
<event>
 7    1  0.2578619E-015  0.9000771E+02  0.7816164E-02  0.1186339E+00
        -11   -1    0    0    0    0  0.00000000000E+00  0.00000000000E+00  0.45593999997E+02  0.45594000000E+02  0.51100000000E-03 0.  1.
         11   -1    0    0    0    0 -0.00000000000E+00 -0.00000000000E+00 -0.45593999997E+02  0.45594000000E+02  0.51100000000E-03 0. -1.
    9900012    2    1    2    0    0 -0.46105662922E+00  0.64673861864E+00 -0.87305801184E+00  0.90007714294E+02  0.89999975322E+02 0.  0.
        -12    1    1    2    0    0  0.46105662922E+00 -0.64673861864E+00  0.87305801184E+00  0.11802857062E+01  0.00000000000E+00 0.  1.
         11    1    3    3    0    0 -0.10120659643E+01  0.63652363688E+01  0.63725065747E+01  0.90636279630E+01  0.51100000000E-03 0. -1.
        -11    1    3    3    0    0 -0.23695078419E+01  0.33382101369E+02  0.14083491293E+02  0.36308731546E+02  0.51100000000E-03 0.  1.
         12    1    3    3    0    0  0.29205171770E+01 -0.39100599119E+02 -0.21329055880E+02  0.44635354785E+02  0.00000000000E+00 0. -1.
</event>
<event>
 7    1  0.2578619E-015  0.9000722E+02  0.7816164E-02  0.1186340E+00
        -11   -1    0    0    0    0  0.00000000000E+00  0.00000000000E+00  0.45593999997E+02  0.45594000000E+02  0.51100000000E-03 0. -1.
         11   -1    0    0    0    0 -0.00000000000E+00 -0.00000000000E+00 -0.45593999997E+02  0.45594000000E+02  0.51100000000E-03 0.  1.
    9900012    2    1    2    0    0 -0.17134841294E+00 -0.44620964722E-01  0.11674249775E+01  0.90007223820E+02  0.89999478373E+02 0.  0.
        -12    1    1    2    0    0  0.17134841294E+00  0.44620964722E-01 -0.11674249775E+01  0.11807761800E+01  0.00000000000E+00 0.  1.
         11    1    3    3    0    0  0.63890708727E+01  0.26228884534E+02  0.30769629069E+02  0.40933417691E+02  0.51100000000E-03 0. -1.
        -11    1    3    3    0    0 -0.10736665868E+02  0.15560502827E+01 -0.63610048255E+01  0.12576154782E+02  0.51100000000E-03 0.  1.
        -12    1    3    3    0    0  0.41762465826E+01 -0.27829555782E+02 -0.23241199266E+02  0.36497651347E+02  0.00000000000E+00 0.  1.
</event>
<event>
 7    1  0.2578619E-015  0.9000794E+02  0.7816164E-02  0.1186339E+00
        -11   -1    0    0    0    0  0.00000000000E+00  0.00000000000E+00  0.45593999997E+02  0.45594000000E+02  0.51100000000E-03 0.  1.
         11   -1    0    0    0    0 -0.00000000000E+00 -0.00000000000E+00 -0.45593999997E+02  0.45594000000E+02  0.51100000000E-03 0. -1.
    9900012    2    1    2    0    0 -0.41387534130E+00  0.10588791912E+01 -0.31626835453E+00  0.90007939149E+02  0.90000203146E+02 0.  0.
        -12    1    1    2    0    0  0.41387534130E+00 -0.10588791912E+01  0.31626835453E+00  0.11800608509E+01  0.00000000000E+00 0.  1.
         11    1    3    3    0    0  0.59021911053E+01  0.17261678613E+01  0.66714205962E+01  0.90732226007E+01  0.51100000000E-03 0. -1.
        -11    1    3    3    0    0  0.29118842880E+02  0.17164093585E+02  0.13367753074E+02  0.36348451711E+02  0.51100000000E-03 0.  1.
         12    1    3    3    0    0 -0.35434909327E+02 -0.17831382255E+02 -0.20355442025E+02  0.44586264837E+02  0.00000000000E+00 0. -1.
</event>
<event>
 7    1  0.2578619E-015  0.9000771E+02  0.7816164E-02  0.1186339E+00
        -11   -1    0    0    0    0  0.00000000000E+00  0.00000000000E+00  0.45593999997E+02  0.45594000000E+02  0.51100000000E-03 0.  1.
         11   -1    0    0    0    0 -0.00000000000E+00 -0.00000000000E+00 -0.45593999997E+02  0.45594000000E+02  0.51100000000E-03 0. -1.
    9900012    2    1    2    0    0  0.20694660967E-02 -0.10782465746E+01 -0.48007623966E+00  0.90007706327E+02  0.89999967251E+02 0.  0.
        -12    1    1    2    0    0 -0.20694660967E-02  0.10782465746E+01  0.48007623966E+00  0.11802936729E+01  0.00000000000E+00 0.  1.
         11    1    3    3    0    0  0.85338556806E+01 -0.80790940056E+01 -0.84617157227E+00  0.11781954817E+02  0.51100000000E-03 0. -1.
        -11    1    3    3    0    0  0.24470060543E+02  0.16315721854E+02  0.22830008526E+02  0.37231652289E+02  0.51100000000E-03 0.  1.
         12    1    3    3    0    0 -0.33001846758E+02 -0.93148744231E+01 -0.22463913193E+02  0.40994099221E+02  0.00000000000E+00 0. -1.
</event>
<event>
 7    1  0.2578619E-015  0.9000773E+02  0.7816164E-02  0.1186339E+00
        -11   -1    0    0    0    0  0.00000000000E+00  0.00000000000E+00  0.45593999997E+02  0.45594000000E+02  0.51100000000E-03 0.  1.
         11   -1    0    0    0    0 -0.00000000000E+00 -0.00000000000E+00 -0.45593999997E+02  0.45594000000E+02  0.51100000000E-03 0. -1.
    9900012    2    1    2    0    0  0.44470960047E+00 -0.32317717811E+00 -0.10444238010E+01  0.90007732576E+02  0.89999993846E+02 0.  0.
        -12    1    1    2    0    0 -0.44470960047E+00  0.32317717811E+00  0.10444238010E+01  0.11802674245E+01  0.00000000000E+00 0.  1.
         11    1    3    3    0    0 -0.23328611512E+01  0.16686563429E+02 -0.29100110782E+02  0.33625884196E+02  0.51100000000E-03 0. -1.
        -11    1    3    3    0    0  0.19761379836E+02 -0.70252906255E+01 -0.13165067820E+01  0.21014281614E+02  0.51100000000E-03 0.  1.
        -12    1    3    3    0    0 -0.16983809084E+02 -0.99844499817E+01  0.29372193763E+02  0.35367566765E+02  0.00000000000E+00 0.  1.
</event>
<event>
 7    1  0.2578619E-015  0.9000783E+02  0.7816164E-02  0.1186339E+00
        -11   -1    0    0    0    0  0.00000000000E+00  0.00000000000E+00  0.45593999997E+02  0.45594000000E+02  0.51100000000E-03 0. -1.
         11   -1    0    0    0    0 -0.00000000000E+00 -0.00000000000E+00 -0.45593999997E+02  0.45594000000E+02  0.51100000000E-03 0.  1.
    9900012    2    1    2    0    0 -0.12666963815E+00 -0.96477305448E-01  0.11693791305E+01  0.90007830259E+02  0.90000092818E+02 0.  0.
        -12    1    1    2    0    0  0.12666963815E+00  0.96477305448E-01 -0.11693791305E+01  0.11801697414E+01  0.00000000000E+00 0.  1.
         11    1    3    3    0    0 -0.70365626387E+01  0.21771915498E+01  0.23269722483E+01  0.77245179085E+01  0.51100000000E-03 0. -1.
        -11    1    3    3    0    0 -0.32366992723E+02  0.17752785402E+02 -0.77066957566E+01  0.37711759005E+02  0.51100000000E-03 0.  1.
         12    1    3    3    0    0  0.39276885724E+02 -0.20026454257E+02  0.65491026388E+01  0.44571553346E+02  0.00000000000E+00 0. -1.
</event>
<event>
 7    1  0.2578619E-015  0.9000776E+02  0.7816164E-02  0.1186339E+00
        -11   -1    0    0    0    0  0.00000000000E+00  0.00000000000E+00  0.45593999997E+02  0.45594000000E+02  0.51100000000E-03 0.  1.
         11   -1    0    0    0    0 -0.00000000000E+00 -0.00000000000E+00 -0.45593999997E+02  0.45594000000E+02  0.51100000000E-03 0. -1.
    9900012    2    1    2    0    0  0.65906187210E+00 -0.88330142616E+00 -0.42234155416E+00  0.90007764282E+02  0.90000025971E+02 0.  0.
        -12    1    1    2    0    0 -0.65906187210E+00  0.88330142616E+00  0.42234155416E+00  0.11802357176E+01  0.00000000000E+00 0.  1.
         11    1    3    3    0    0 -0.50360989403E+00  0.15489130269E+02 -0.51399434268E+01  0.16327455347E+02  0.51100000000E-03 0. -1.
        -11    1    3    3    0    0 -0.23818719685E+02 -0.25195446767E+02  0.22896183508E+02  0.41549695122E+02  0.51100000000E-03 0.  1.
         12    1    3    3    0    0  0.24981391451E+02  0.88230150722E+01 -0.18178581635E+02  0.32130613814E+02  0.00000000000E+00 0. -1.
</event>
<event>
 7    1  0.2578619E-015  0.9000766E+02  0.7816164E-02  0.1186339E+00
        -11   -1    0    0    0    0  0.00000000000E+00  0.00000000000E+00  0.45593999997E+02  0.45594000000E+02  0.51100000000E-03 0.  1.
         11   -1    0    0    0    0 -0.00000000000E+00 -0.00000000000E+00 -0.45593999997E+02  0.45594000000E+02  0.51100000000E-03 0. -1.
    9900012    2    1    2    0    0 -0.91389109508E+00  0.72996158892E+00  0.15865568763E+00  0.90007655778E+02  0.89999916034E+02 0.  0.
        -12    1    1    2    0    0  0.91389109508E+00 -0.72996158892E+00 -0.15865568763E+00  0.11803442219E+01  0.00000000000E+00 0.  1.
         11    1    3    3    0    0 -0.52454634771E+01 -0.59359791940E+01 -0.36096805174E+01  0.87052013061E+01  0.51100000000E-03 0. -1.
        -11    1    3    3    0    0  0.66362302618E+01 -0.36897390781E+02 -0.28292147476E+00  0.37490492707E+02  0.51100000000E-03 0.  1.
         12    1    3    3    0    0 -0.23046578798E+01  0.43563331564E+02  0.40512576798E+01  0.43811961765E+02  0.00000000000E+00 0. -1.
</event>
<event>
 7    1  0.2578619E-015  0.9000776E+02  0.7816164E-02  0.1186339E+00
        -11   -1    0    0    0    0  0.00000000000E+00  0.00000000000E+00  0.45593999997E+02  0.45594000000E+02  0.51100000000E-03 0.  1.
         11   -1    0    0    0    0 -0.00000000000E+00 -0.00000000000E+00 -0.45593999997E+02  0.45594000000E+02  0.51100000000E-03 0. -1.
    9900012    2    1    2    0    0  0.31650756308E+00  0.59915305386E+00 -0.96633914796E+00  0.90007757327E+02  0.90000018923E+02 0.  0.
        -12    1    1    2    0    0 -0.31650756308E+00 -0.59915305386E+00  0.96633914796E+00  0.11802426735E+01  0.00000000000E+00 0.  1.
         11    1    3    3    0    0  0.43028550660E+00  0.20002485523E+02 -0.32980930316E+02  0.38574944426E+02  0.51100000000E-03 0. -1.
        -11    1    3    3    0    0  0.71436444044E+01  0.19633553629E+01 -0.43828040519E+01  0.86078679866E+01  0.51100000000E-03 0.  1.
        -12    1    3    3    0    0 -0.72574223479E+01 -0.21366687832E+02  0.36397395220E+02  0.42824944914E+02  0.00000000000E+00 0.  1.
</event>
<event>
 7    1  0.2578619E-015  0.9000777E+02  0.7816164E-02  0.1186339E+00
        -11   -1    0    0    0    0  0.00000000000E+00  0.00000000000E+00  0.45593999997E+02  0.45594000000E+02  0.51100000000E-03 0. -1.
         11   -1    0    0    0    0 -0.00000000000E+00 -0.00000000000E+00 -0.45593999997E+02  0.45594000000E+02  0.51100000000E-03 0.  1.
    9900012    2    1    2    0    0 -0.29509772026E+00 -0.83228766761E+00  0.78303729859E+00  0.90007774243E+02  0.90000036063E+02 0.  0.
        -12    1    1    2    0    0  0.29509772026E+00  0.83228766761E+00 -0.78303729859E+00  0.11802257569E+01  0.00000000000E+00 0.  1.
         11    1    3    3    0    0 -0.73934258918E+01  0.14984362737E+01 -0.37973373782E+01  0.84455804483E+01  0.51100000000E-03 0. -1.
        -11    1    3    3    0    0 -0.10743005203E+01 -0.15566226316E+02 -0.35387064519E+02  0.38674356606E+02  0.51100000000E-03 0.  1.
         12    1    3    3    0    0  0.81726286918E+01  0.13235502374E+02  0.39967439196E+02  0.42887837189E+02  0.00000000000E+00 0. -1.
</event>
<event>
 7    1  0.2578619E-015  0.9000776E+02  0.7816164E-02  0.1186339E+00
        -11   -1    0    0    0    0  0.00000000000E+00  0.00000000000E+00  0.45593999997E+02  0.45594000000E+02  0.51100000000E-03 0. -1.
         11   -1    0    0    0    0 -0.00000000000E+00 -0.00000000000E+00 -0.45593999997E+02  0.45594000000E+02  0.51100000000E-03 0.  1.
    9900012    2    1    2    0    0 -0.37613214608E+00  0.16676522783E+00  0.11062015312E+01  0.90007759406E+02  0.90000021030E+02 0.  0.
        -12    1    1    2    0    0  0.37613214608E+00 -0.16676522783E+00 -0.11062015312E+01  0.11802405942E+01  0.00000000000E+00 0.  1.
         11    1    3    3    0    0 -0.21843849637E+02  0.14448133723E+02  0.28216665147E+02  0.38497824969E+02  0.51100000000E-03 0. -1.
        -11    1    3    3    0    0 -0.56830483640E+01  0.41648350618E+01  0.23261113404E+01  0.74198169808E+01  0.51100000000E-03 0.  1.
        -12    1    3    3    0    0  0.27150765855E+02 -0.18446203557E+02 -0.29436574956E+02  0.44090117456E+02  0.00000000000E+00 0.  1.
</event>
<event>
 7    1  0.2578619E-015  0.9000766E+02  0.7816164E-02  0.1186339E+00
        -11   -1    0    0    0    0  0.00000000000E+00  0.00000000000E+00  0.45593999997E+02  0.45594000000E+02  0.51100000000E-03 0.  1.
         11   -1    0    0    0    0 -0.00000000000E+00 -0.00000000000E+00 -0.45593999997E+02  0.45594000000E+02  0.51100000000E-03 0. -1.
    9900012    2    1    2    0    0 -0.11286337345E+01  0.82675771309E-01 -0.33549303053E+00  0.90007658963E+02  0.89999919261E+02 0.  0.
        -12    1    1    2    0    0  0.11286337345E+01 -0.82675771309E-01  0.33549303053E+00  0.11803410369E+01  0.00000000000E+00 0.  1.
         11    1    3    3    0    0  0.18602540215E+02 -0.35411740151E+02  0.60530113088E+01  0.40455961108E+02  0.51100000000E-03 0. -1.
        -11    1    3    3    0    0 -0.86168863422E+01  0.31271189935E+00  0.61419743739E+01  0.10586423779E+02  0.51100000000E-03 0.  1.
        -12    1    3    3    0    0 -0.11114287608E+02  0.35181704023E+02 -0.12530478713E+02  0.38965274076E+02  0.00000000000E+00 0.  1.
</event>
<event>
 7    1  0.2578619E-015  0.9000773E+02  0.7816164E-02  0.1186339E+00
        -11   -1    0    0    0    0  0.00000000000E+00  0.00000000000E+00  0.45593999997E+02  0.45594000000E+02  0.51100000000E-03 0. -1.
         11   -1    0    0    0    0 -0.00000000000E+00 -0.00000000000E+00 -0.45593999997E+02  0.45594000000E+02  0.51100000000E-03 0.  1.
    9900012    2    1    2    0    0 -0.10268133699E+01  0.52125518313E+00  0.25883652846E+00  0.90007725027E+02  0.89999986198E+02 0.  0.
        -12    1    1    2    0    0  0.10268133699E+01 -0.52125518313E+00 -0.25883652846E+00  0.11802749727E+01  0.00000000000E+00 0.  1.
         11    1    3    3    0    0  0.67311536983E+01  0.27714909945E+01 -0.22280563394E+02  0.23439562664E+02  0.51100000000E-03 0. -1.
        -11    1    3    3    0    0 -0.15400152048E+02 -0.15638351542E+02 -0.14597190003E+02  0.26359072031E+02  0.51100000000E-03 0.  1.
         12    1    3    3    0    0  0.76421849800E+01  0.13388115731E+02  0.37136589926E+02  0.40209090333E+02  0.00000000000E+00 0. -1.
</event>
<event>
 7    1  0.2578619E-015  0.9000778E+02  0.7816164E-02  0.1186339E+00
        -11   -1    0    0    0    0  0.00000000000E+00  0.00000000000E+00  0.45593999997E+02  0.45594000000E+02  0.51100000000E-03 0. -1.
         11   -1    0    0    0    0 -0.00000000000E+00 -0.00000000000E+00 -0.45593999997E+02  0.45594000000E+02  0.51100000000E-03 0.  1.
    9900012    2    1    2    0    0 -0.41849687184E+00  0.58409356226E+00  0.93627515758E+00  0.90007781337E+02  0.90000043251E+02 0.  0.
        -12    1    1    2    0    0  0.41849687184E+00 -0.58409356226E+00 -0.93627515758E+00  0.11802186628E+01  0.00000000000E+00 0.  1.
         11    1    3    3    0    0 -0.52944875438E+00  0.70945185821E+01  0.39711077458E+02  0.40343304067E+02  0.51100000000E-03 0. -1.
        -11    1    3    3    0    0  0.41084077196E+01 -0.70026214622E+01  0.22639211758E+01  0.84285859244E+01  0.51100000000E-03 0.  1.
        -12    1    3    3    0    0 -0.39974558371E+01  0.49219644242E+00 -0.41038723476E+02  0.41235891346E+02  0.00000000000E+00 0.  1.
</event>
<event>
 7    1  0.2578619E-015  0.9000733E+02  0.7816164E-02  0.1186340E+00
        -11   -1    0    0    0    0  0.00000000000E+00  0.00000000000E+00  0.45593999997E+02  0.45594000000E+02  0.51100000000E-03 0. -1.
         11   -1    0    0    0    0 -0.00000000000E+00 -0.00000000000E+00 -0.45593999997E+02  0.45594000000E+02  0.51100000000E-03 0.  1.
    9900012    2    1    2    0    0  0.82767173295E+00 -0.82343601082E+00  0.17576697976E+00  0.90007330109E+02  0.89999586065E+02 0.  0.
        -12    1    1    2    0    0 -0.82767173295E+00  0.82343601082E+00 -0.17576697976E+00  0.11806698915E+01  0.00000000000E+00 0.  1.
         11    1    3    3    0    0 -0.64163191785E+01 -0.18710997282E+01  0.56292645086E+01  0.87383513984E+01  0.51100000000E-03 0. -1.
        -11    1    3    3    0    0 -0.29415680408E+02  0.15356006729E+02 -0.20650395855E+02  0.39083603285E+02  0.51100000000E-03 0.  1.
         12    1    3    3    0    0  0.36659671319E+02 -0.14308343012E+02  0.15196898327E+02  0.42185375425E+02  0.00000000000E+00 0. -1.
</event>
<event>
 7    1  0.2578619E-015  0.9000767E+02  0.7816164E-02  0.1186339E+00
        -11   -1    0    0    0    0  0.00000000000E+00  0.00000000000E+00  0.45593999997E+02  0.45594000000E+02  0.51100000000E-03 0.  1.
         11   -1    0    0    0    0 -0.00000000000E+00 -0.00000000000E+00 -0.45593999997E+02  0.45594000000E+02  0.51100000000E-03 0. -1.
    9900012    2    1    2    0    0 -0.99260876247E+00 -0.21500212149E+00  0.60140181194E+00  0.90007668603E+02  0.89999929028E+02 0.  0.
        -12    1    1    2    0    0  0.99260876247E+00  0.21500212149E+00 -0.60140181194E+00  0.11803313971E+01  0.00000000000E+00 0.  1.
         11    1    3    3    0    0  0.12004463181E+01  0.25046270074E+01  0.76954917925E+01  0.81813704230E+01  0.51100000000E-03 0. -1.
        -11    1    3    3    0    0 -0.14140964148E+02  0.31433367760E+02  0.16923128460E+02  0.38398121737E+02  0.51100000000E-03 0.  1.
         12    1    3    3    0    0  0.11947909068E+02 -0.34152996889E+02 -0.24017218440E+02  0.43428176443E+02  0.00000000000E+00 0. -1.
</event>
<event>
 7    1  0.2578619E-015  0.9000774E+02  0.7816164E-02  0.1186339E+00
        -11   -1    0    0    0    0  0.00000000000E+00  0.00000000000E+00  0.45593999997E+02  0.45594000000E+02  0.51100000000E-03 0.  1.
         11   -1    0    0    0    0 -0.00000000000E+00 -0.00000000000E+00 -0.45593999997E+02  0.45594000000E+02  0.51100000000E-03 0. -1.
    9900012    2    1    2    0    0  0.37195346421E+00 -0.14789486231E+00 -0.11103126357E+01  0.90007738834E+02  0.90000000187E+02 0.  0.
        -12    1    1    2    0    0 -0.37195346421E+00  0.14789486231E+00  0.11103126357E+01  0.11802611656E+01  0.00000000000E+00 0.  1.
         11    1    3    3    0    0  0.27960886145E+01 -0.10810692951E+02 -0.35452221363E+02  0.37169196836E+02  0.51100000000E-03 0. -1.
        -11    1    3    3    0    0  0.26491096572E+01  0.10084841531E+01 -0.83278619784E+01  0.87970510772E+01  0.51100000000E-03 0.  1.
        -12    1    3    3    0    0 -0.50732448074E+01  0.96543139352E+01  0.42669770706E+02  0.44041490921E+02  0.00000000000E+00 0.  1.
</event>
<event>
 7    1  0.2578619E-015  0.9000781E+02  0.7816164E-02  0.1186339E+00
        -11   -1    0    0    0    0  0.00000000000E+00  0.00000000000E+00  0.45593999997E+02  0.45594000000E+02  0.51100000000E-03 0.  1.
         11   -1    0    0    0    0 -0.00000000000E+00 -0.00000000000E+00 -0.45593999997E+02  0.45594000000E+02  0.51100000000E-03 0. -1.
    9900012    2    1    2    0    0 -0.13044628275E-02 -0.65287494189E-01 -0.11783859715E+01  0.90007806094E+02  0.90000068334E+02 0.  0.
        -12    1    1    2    0    0  0.13044628275E-02  0.65287494189E-01  0.11783859715E+01  0.11801939062E+01  0.00000000000E+00 0.  1.
         11    1    3    3    0    0  0.11396180701E+02  0.16824261915E+01 -0.41243044377E+02  0.42821632409E+02  0.51100000000E-03 0. -1.
        -11    1    3    3    0    0  0.57017933942E+01 -0.40340994832E+01  0.69832023712E+01  0.98767161632E+01  0.51100000000E-03 0.  1.
        -12    1    3    3    0    0 -0.17099278558E+02  0.22863857975E+01  0.33081456034E+02  0.37309457521E+02  0.00000000000E+00 0.  1.
</event>
<event>
 7    1  0.2578619E-015  0.9000776E+02  0.7816164E-02  0.1186339E+00
        -11   -1    0    0    0    0  0.00000000000E+00  0.00000000000E+00  0.45593999997E+02  0.45594000000E+02  0.51100000000E-03 0.  1.
         11   -1    0    0    0    0 -0.00000000000E+00 -0.00000000000E+00 -0.45593999997E+02  0.45594000000E+02  0.51100000000E-03 0. -1.
    9900012    2    1    2    0    0 -0.67479786505E+00  0.35108339506E+00 -0.90241419771E+00  0.90007761425E+02  0.90000023076E+02 0.  0.
        -12    1    1    2    0    0  0.67479786505E+00 -0.35108339506E+00  0.90241419771E+00  0.11802385747E+01  0.00000000000E+00 0.  1.
         11    1    3    3    0    0 -0.23161391775E+01 -0.79465837801E+01  0.27842845679E+01  0.87329797480E+01  0.51100000000E-03 0. -1.
        -11    1    3    3    0    0 -0.23445384661E+02 -0.14829495514E+00  0.30226691860E+02  0.38253901165E+02  0.51100000000E-03 0.  1.
         12    1    3    3    0    0  0.25086725973E+02  0.84459621303E+01 -0.33913390625E+02  0.43020880512E+02  0.00000000000E+00 0. -1.
</event>
<event>
 7    1  0.2578619E-015  0.9000761E+02  0.7816164E-02  0.1186339E+00
        -11   -1    0    0    0    0  0.00000000000E+00  0.00000000000E+00  0.45593999997E+02  0.45594000000E+02  0.51100000000E-03 0.  1.
         11   -1    0    0    0    0 -0.00000000000E+00 -0.00000000000E+00 -0.45593999997E+02  0.45594000000E+02  0.51100000000E-03 0. -1.
    9900012    2    1    2    0    0 -0.10692406512E+01  0.47769701401E+00 -0.14779170993E+00  0.90007613454E+02  0.89999873152E+02 0.  0.
        -12    1    1    2    0    0  0.10692406512E+01 -0.47769701401E+00  0.14779170993E+00  0.11803865455E+01  0.00000000000E+00 0.  1.
         11    1    3    3    0    0  0.51106072839E+01  0.80331464381E+01  0.24404938794E+01  0.98288228768E+01  0.51100000000E-03 0. -1.
        -11    1    3    3    0    0  0.17563617992E+01  0.24510884359E+02 -0.28908399576E+02  0.37941584378E+02  0.51100000000E-03 0.  1.
         12    1    3    3    0    0 -0.79362097343E+01 -0.32066333783E+02  0.26320113987E+02  0.42237206199E+02  0.00000000000E+00 0. -1.
</event>
<event>
 7    1  0.2578619E-015  0.9000773E+02  0.7816164E-02  0.1186339E+00
        -11   -1    0    0    0    0  0.00000000000E+00  0.00000000000E+00  0.45593999997E+02  0.45594000000E+02  0.51100000000E-03 0.  1.
         11   -1    0    0    0    0 -0.00000000000E+00 -0.00000000000E+00 -0.45593999997E+02  0.45594000000E+02  0.51100000000E-03 0. -1.
    9900012    2    1    2    0    0  0.30872921867E+00  0.48020932769E+00 -0.10330163596E+01  0.90007729892E+02  0.89999991126E+02 0.  0.
        -12    1    1    2    0    0 -0.30872921867E+00 -0.48020932769E+00  0.10330163596E+01  0.11802701081E+01  0.00000000000E+00 0.  1.
         11    1    3    3    0    0  0.93244670242E+01  0.85689785930E+00 -0.42197059181E+01  0.10270631798E+02  0.51100000000E-03 0. -1.
        -11    1    3    3    0    0 -0.19402976986E+02 -0.36678162080E+02 -0.24206190343E+01  0.41564678349E+02  0.51100000000E-03 0.  1.
         12    1    3    3    0    0  0.10387239181E+02  0.36301473548E+02  0.56073085928E+01  0.38172419745E+02  0.00000000000E+00 0. -1.
</event>
<event>
 7    1  0.2578619E-015  0.9000789E+02  0.7816164E-02  0.1186339E+00
        -11   -1    0    0    0    0  0.00000000000E+00  0.00000000000E+00  0.45593999997E+02  0.45594000000E+02  0.51100000000E-03 0. -1.
         11   -1    0    0    0    0 -0.00000000000E+00 -0.00000000000E+00 -0.45593999997E+02  0.45594000000E+02  0.51100000000E-03 0.  1.
    9900012    2    1    2    0    0  0.90425068724E+00 -0.57056096007E+00  0.49946155100E+00  0.90007885194E+02  0.90000148478E+02 0.  0.
        -12    1    1    2    0    0 -0.90425068724E+00  0.57056096007E+00 -0.49946155100E+00  0.11801148060E+01  0.00000000000E+00 0.  1.
         11    1    3    3    0    0 -0.23523529068E+01 -0.14631441608E+02 -0.42927976809E+01  0.15428569600E+02  0.51100000000E-03 0. -1.
        -11    1    3    3    0    0  0.22639745311E+02  0.67644120473E+01 -0.27474491369E+02  0.36237591177E+02  0.51100000000E-03 0.  1.
         12    1    3    3    0    0 -0.19383141717E+02  0.72964686005E+01  0.32266750601E+02  0.38341724416E+02  0.00000000000E+00 0. -1.
</event>
<event>
 7    1  0.2578619E-015  0.9000763E+02  0.7816164E-02  0.1186339E+00
        -11   -1    0    0    0    0  0.00000000000E+00  0.00000000000E+00  0.45593999997E+02  0.45594000000E+02  0.51100000000E-03 0. -1.
         11   -1    0    0    0    0 -0.00000000000E+00 -0.00000000000E+00 -0.45593999997E+02  0.45594000000E+02  0.51100000000E-03 0.  1.
    9900012    2    1    2    0    0  0.30084592021E+00  0.38734269918E+00  0.10736490619E+01  0.90007633556E+02  0.89999893519E+02 0.  0.
        -12    1    1    2    0    0 -0.30084592021E+00 -0.38734269918E+00 -0.10736490619E+01  0.11803664442E+01  0.00000000000E+00 0.  1.
         11    1    3    3    0    0 -0.41124304515E+01 -0.20884159530E+02 -0.87145139513E+01  0.23000064286E+02  0.51100000000E-03 0. -1.
        -11    1    3    3    0    0 -0.25540559201E+02 -0.46552335044E+01 -0.89371548751E+00  0.25976722098E+02  0.51100000000E-03 0.  1.
         12    1    3    3    0    0  0.29953835573E+02  0.25926735734E+02  0.10681878501E+02  0.41030847172E+02  0.00000000000E+00 0. -1.
</event>
<event>
 7    1  0.3106350E-015  0.9000774E+02  0.7816164E-02  0.1186339E+00
        -11   -1    0    0    0    0  0.00000000000E+00  0.00000000000E+00  0.45593999997E+02  0.45594000000E+02  0.51100000000E-03 0.  1.
         11   -1    0    0    0    0 -0.00000000000E+00 -0.00000000000E+00 -0.45593999997E+02  0.45594000000E+02  0.51100000000E-03 0. -1.
    9900012    2    1    2    0    0  0.21800092164E+00 -0.70261433572E+00 -0.92294665056E+00  0.90007736544E+02  0.89999997866E+02 0.  0.
        -12    1    1    2    0    0 -0.21800092164E+00  0.70261433572E+00  0.92294665056E+00  0.11802634563E+01  0.00000000000E+00 0.  1.
         11    1    3    3    0    0  0.35082656551E+01  0.69582283280E+01  0.59734423850E+01  0.98187007063E+01  0.51100000000E-03 0. -1.
        -11    1    3    3    0    0 -0.19093658868E+02 -0.21821081217E+02  0.27377665471E+02  0.39878113814E+02  0.51100000000E-03 0.  1.
         12    1    3    3    0    0  0.15803394135E+02  0.14160238553E+02 -0.34274054507E+02  0.40310922023E+02  0.00000000000E+00 0. -1.
</event>
<event>
 7    1  0.2578619E-015  0.9000769E+02  0.7816164E-02  0.1186339E+00
        -11   -1    0    0    0    0  0.00000000000E+00  0.00000000000E+00  0.45593999997E+02  0.45594000000E+02  0.51100000000E-03 0. -1.
         11   -1    0    0    0    0 -0.00000000000E+00 -0.00000000000E+00 -0.45593999997E+02  0.45594000000E+02  0.51100000000E-03 0.  1.
    9900012    2    1    2    0    0 -0.78310609624E+00 -0.88175229235E+00 -0.48958775917E-01  0.90007686811E+02  0.89999947477E+02 0.  0.
        -12    1    1    2    0    0  0.78310609624E+00  0.88175229235E+00  0.48958775917E-01  0.11803131893E+01  0.00000000000E+00 0.  1.
         11    1    3    3    0    0 -0.33464592156E+01 -0.44270719992E+01 -0.76195543350E+01  0.94263123379E+01  0.51100000000E-03 0. -1.
        -11    1    3    3    0    0  0.98210428068E+01  0.29451740322E+02 -0.23898796828E+02  0.39179208516E+02  0.51100000000E-03 0.  1.
         12    1    3    3    0    0 -0.72576896875E+01 -0.25906420615E+02  0.31469392388E+02  0.41402165957E+02  0.00000000000E+00 0. -1.
</event>
<event>
 7    1  0.2578619E-015  0.9000815E+02  0.7816164E-02  0.1186338E+00
        -11   -1    0    0    0    0  0.00000000000E+00  0.00000000000E+00  0.45593999997E+02  0.45594000000E+02  0.51100000000E-03 0. -1.
         11   -1    0    0    0    0 -0.00000000000E+00 -0.00000000000E+00 -0.45593999997E+02  0.45594000000E+02  0.51100000000E-03 0.  1.
    9900012    2    1    2    0    0  0.31163789696E+00  0.11365600870E+01  0.56283031595E-01  0.90008146285E+02  0.90000413015E+02 0.  0.
        -12    1    1    2    0    0 -0.31163789696E+00 -0.11365600870E+01 -0.56283031595E-01  0.11798537154E+01  0.00000000000E+00 0.  1.
         11    1    3    3    0    0  0.69549373572E+01  0.63648798840E+00 -0.17081824593E+01  0.71898649624E+01  0.51100000000E-03 0. -1.
        -11    1    3    3    0    0  0.32542651459E+02 -0.71531150350E+01 -0.18428302482E+02  0.38076154628E+02  0.51100000000E-03 0.  1.
         12    1    3    3    0    0 -0.39185950919E+02  0.76531871336E+01  0.20192767973E+02  0.44742126694E+02  0.00000000000E+00 0. -1.
</event>
<event>
 7    1  0.2578619E-015  0.9000790E+02  0.7816164E-02  0.1186339E+00
        -11   -1    0    0    0    0  0.00000000000E+00  0.00000000000E+00  0.45593999997E+02  0.45594000000E+02  0.51100000000E-03 0.  1.
         11   -1    0    0    0    0 -0.00000000000E+00 -0.00000000000E+00 -0.45593999997E+02  0.45594000000E+02  0.51100000000E-03 0. -1.
    9900012    2    1    2    0    0 -0.57091512867E+00  0.84065600063E+00 -0.59999714615E+00  0.90007896966E+02  0.90000160406E+02 0.  0.
        -12    1    1    2    0    0  0.57091512867E+00 -0.84065600063E+00  0.59999714615E+00  0.11801030340E+01  0.00000000000E+00 0.  1.
         11    1    3    3    0    0  0.10831982316E+02  0.43231883693E+01 -0.29181143965E+00  0.11666488450E+02  0.51100000000E-03 0. -1.
        -11    1    3    3    0    0  0.21419185021E+02  0.55173498058E+01  0.26859215699E+02  0.34794253895E+02  0.51100000000E-03 0.  1.
         12    1    3    3    0    0 -0.32822082465E+02 -0.89998821745E+01 -0.27167401406E+02  0.43547154622E+02  0.00000000000E+00 0. -1.
</event>
<event>
 7    1  0.2578619E-015  0.9000777E+02  0.7816164E-02  0.1186339E+00
        -11   -1    0    0    0    0  0.00000000000E+00  0.00000000000E+00  0.45593999997E+02  0.45594000000E+02  0.51100000000E-03 0.  1.
         11   -1    0    0    0    0 -0.00000000000E+00 -0.00000000000E+00 -0.45593999997E+02  0.45594000000E+02  0.51100000000E-03 0. -1.
    9900012    2    1    2    0    0  0.55214536684E+00 -0.26315681635E-01 -0.10427771871E+01  0.90007770665E+02  0.90000032438E+02 0.  0.
        -12    1    1    2    0    0 -0.55214536684E+00  0.26315681635E-01  0.10427771871E+01  0.11802293350E+01  0.00000000000E+00 0.  1.
         11    1    3    3    0    0  0.17339887546E+02 -0.92946453219E+01 -0.30270836896E+02  0.36102433414E+02  0.51100000000E-03 0. -1.
        -11    1    3    3    0    0  0.77901426669E+01 -0.13633212123E+01 -0.58045753695E+01  0.98101000495E+01  0.51100000000E-03 0.  1.
        -12    1    3    3    0    0 -0.24577884846E+02  0.10631650853E+02  0.35032635078E+02  0.44095237202E+02  0.00000000000E+00 0.  1.
</event>
<event>
 7    1  0.2578619E-015  0.9000770E+02  0.7816164E-02  0.1186339E+00
        -11   -1    0    0    0    0  0.00000000000E+00  0.00000000000E+00  0.45593999997E+02  0.45594000000E+02  0.51100000000E-03 0.  1.
         11   -1    0    0    0    0 -0.00000000000E+00 -0.00000000000E+00 -0.45593999997E+02  0.45594000000E+02  0.51100000000E-03 0. -1.
    9900012    2    1    2    0    0 -0.13497995031E+00 -0.79623831376E+00 -0.86075572336E+00  0.90007696880E+02  0.89999957679E+02 0.  0.
        -12    1    1    2    0    0  0.13497995031E+00  0.79623831376E+00  0.86075572336E+00  0.11803031198E+01  0.00000000000E+00 0.  1.
         11    1    3    3    0    0 -0.27301793858E+01  0.80341588659E+01 -0.36801215653E+02  0.37766798408E+02  0.51100000000E-03 0. -1.
        -11    1    3    3    0    0 -0.83509387685E+01  0.55384315049E+01 -0.20015622429E+01  0.10218544589E+02  0.51100000000E-03 0.  1.
        -12    1    3    3    0    0  0.10946138204E+02 -0.14368828685E+02  0.37942022173E+02  0.42022353883E+02  0.00000000000E+00 0.  1.
</event>
<event>
 7    1  0.2578619E-015  0.9000771E+02  0.7816164E-02  0.1186339E+00
        -11   -1    0    0    0    0  0.00000000000E+00  0.00000000000E+00  0.45593999997E+02  0.45594000000E+02  0.51100000000E-03 0. -1.
         11   -1    0    0    0    0 -0.00000000000E+00 -0.00000000000E+00 -0.45593999997E+02  0.45594000000E+02  0.51100000000E-03 0.  1.
    9900012    2    1    2    0    0 -0.99492671182E+00 -0.45687932193E-02  0.63496659010E+00  0.90007710795E+02  0.89999971778E+02 0.  0.
        -12    1    1    2    0    0  0.99492671182E+00  0.45687932193E-02 -0.63496659010E+00  0.11802892045E+01  0.00000000000E+00 0.  1.
         11    1    3    3    0    0  0.30120808451E+01 -0.49630638716E+01 -0.30439116860E+01  0.65551531350E+01  0.51100000000E-03 0. -1.
        -11    1    3    3    0    0 -0.16145708677E+02  0.13461465544E+01 -0.37243639040E+02  0.40615079324E+02  0.51100000000E-03 0.  1.
         12    1    3    3    0    0  0.12138701121E+02  0.36123485240E+01  0.40922517316E+02  0.42837478337E+02  0.00000000000E+00 0. -1.
</event>
<event>
 7    1  0.2578619E-015  0.9000781E+02  0.7816164E-02  0.1186339E+00
        -11   -1    0    0    0    0  0.00000000000E+00  0.00000000000E+00  0.45593999997E+02  0.45594000000E+02  0.51100000000E-03 0. -1.
         11   -1    0    0    0    0 -0.00000000000E+00 -0.00000000000E+00 -0.45593999997E+02  0.45594000000E+02  0.51100000000E-03 0.  1.
    9900012    2    1    2    0    0 -0.64644325221E+00  0.93707137653E+00 -0.31122446824E+00  0.90007808358E+02  0.90000070628E+02 0.  0.
        -12    1    1    2    0    0  0.64644325221E+00 -0.93707137653E+00  0.31122446824E+00  0.11801916423E+01  0.00000000000E+00 0.  1.
         11    1    3    3    0    0  0.16211108122E+02 -0.26851819469E+02  0.18025000390E+02  0.36176247382E+02  0.51100000000E-03 0. -1.
        -11    1    3    3    0    0 -0.32626568135E+01 -0.95975696400E+01 -0.27161045951E+00  0.10140613639E+02  0.51100000000E-03 0.  1.
        -12    1    3    3    0    0 -0.13594894561E+02  0.37386460486E+02 -0.18064614398E+02  0.43690947336E+02  0.00000000000E+00 0.  1.
</event>
<event>
 7    1  0.2578619E-015  0.9000775E+02  0.7816164E-02  0.1186339E+00
        -11   -1    0    0    0    0  0.00000000000E+00  0.00000000000E+00  0.45593999997E+02  0.45594000000E+02  0.51100000000E-03 0. -1.
         11   -1    0    0    0    0 -0.00000000000E+00 -0.00000000000E+00 -0.45593999997E+02  0.45594000000E+02  0.51100000000E-03 0.  1.
    9900012    2    1    2    0    0  0.11618691801E+01 -0.17549847386E+00  0.11069261670E+00  0.90007748941E+02  0.90000010427E+02 0.  0.
        -12    1    1    2    0    0 -0.11618691801E+01  0.17549847386E+00 -0.11069261670E+00  0.11802510586E+01  0.00000000000E+00 0.  1.
         11    1    3    3    0    0 -0.17195546328E+02  0.10033012972E+02  0.29765075203E+02  0.35809326508E+02  0.51100000000E-03 0. -1.
        -11    1    3    3    0    0 -0.22022628134E+01  0.33505965735E+01  0.81480187855E+01  0.90811160816E+01  0.51100000000E-03 0.  1.
        -12    1    3    3    0    0  0.20559678322E+02 -0.13559108019E+02 -0.37802401372E+02  0.45117306352E+02  0.00000000000E+00 0.  1.
</event>
<event>
 7    1  0.2578619E-015  0.9000766E+02  0.7816164E-02  0.1186339E+00
        -11   -1    0    0    0    0  0.00000000000E+00  0.00000000000E+00  0.45593999997E+02  0.45594000000E+02  0.51100000000E-03 0. -1.
         11   -1    0    0    0    0 -0.00000000000E+00 -0.00000000000E+00 -0.45593999997E+02  0.45594000000E+02  0.51100000000E-03 0.  1.
    9900012    2    1    2    0    0 -0.68527565480E+00 -0.72398282169E+00  0.63201025746E+00  0.90007664957E+02  0.89999925334E+02 0.  0.
        -12    1    1    2    0    0  0.68527565480E+00  0.72398282169E+00 -0.63201025746E+00  0.11803350434E+01  0.00000000000E+00 0.  1.
         11    1    3    3    0    0  0.24544238044E+01  0.43908611415E+00  0.83012101509E+01  0.86675880761E+01  0.51100000000E-03 0. -1.
        -11    1    3    3    0    0  0.23001977042E+02 -0.20778979722E+02 -0.28889194776E+02  0.42372662428E+02  0.51100000000E-03 0.  1.
         12    1    3    3    0    0 -0.26141676501E+02  0.19615910786E+02  0.21219994883E+02  0.38967414453E+02  0.00000000000E+00 0. -1.
</event>
<event>
 7    1  0.2578619E-015  0.9000775E+02  0.7816164E-02  0.1186339E+00
        -11   -1    0    0    0    0  0.00000000000E+00  0.00000000000E+00  0.45593999997E+02  0.45594000000E+02  0.51100000000E-03 0.  1.
         11   -1    0    0    0    0 -0.00000000000E+00 -0.00000000000E+00 -0.45593999997E+02  0.45594000000E+02  0.51100000000E-03 0. -1.
    9900012    2    1    2    0    0  0.78473636328E+00  0.82306003351E+00  0.31582107795E+00  0.90007753444E+02  0.90000014990E+02 0.  0.
        -12    1    1    2    0    0 -0.78473636328E+00 -0.82306003351E+00 -0.31582107795E+00  0.11802465556E+01  0.00000000000E+00 0.  1.
         11    1    3    3    0    0  0.16629671459E+02  0.21206984774E+02 -0.30318636218E+02  0.40564786188E+02  0.51100000000E-03 0. -1.
        -11    1    3    3    0    0 -0.12227378082E-02 -0.75193853750E+01 -0.45348101684E+01  0.87809829426E+01  0.51100000000E-03 0.  1.
        -12    1    3    3    0    0 -0.15843712358E+02 -0.12864539365E+02  0.35169267465E+02  0.40661984314E+02  0.00000000000E+00 0.  1.
</event>
<event>
 7    1  0.2578619E-015  0.9000774E+02  0.7816164E-02  0.1186339E+00
        -11   -1    0    0    0    0  0.00000000000E+00  0.00000000000E+00  0.45593999997E+02  0.45594000000E+02  0.51100000000E-03 0.  1.
         11   -1    0    0    0    0 -0.00000000000E+00 -0.00000000000E+00 -0.45593999997E+02  0.45594000000E+02  0.51100000000E-03 0. -1.
    9900012    2    1    2    0    0  0.54751217922E-01  0.10043897439E+00 -0.11747020835E+01  0.90007741271E+02  0.90000002655E+02 0.  0.
        -12    1    1    2    0    0 -0.54751217922E-01 -0.10043897439E+00  0.11747020835E+01  0.11802587294E+01  0.00000000000E+00 0.  1.
         11    1    3    3    0    0  0.40994487930E+01 -0.77461708418E+01 -0.14039793426E+01  0.88757986329E+01  0.51100000000E-03 0. -1.
        -11    1    3    3    0    0 -0.31627828497E+02 -0.23063192440E+02 -0.46460290423E+01  0.39418472409E+02  0.51100000000E-03 0.  1.
         12    1    3    3    0    0  0.27583130922E+02  0.30909802256E+02  0.48753063013E+01  0.41713470228E+02  0.00000000000E+00 0. -1.
</event>
<event>
 7    1  0.2578619E-015  0.9000762E+02  0.7816164E-02  0.1186339E+00
        -11   -1    0    0    0    0  0.00000000000E+00  0.00000000000E+00  0.45593999997E+02  0.45594000000E+02  0.51100000000E-03 0. -1.
         11   -1    0    0    0    0 -0.00000000000E+00 -0.00000000000E+00 -0.45593999997E+02  0.45594000000E+02  0.51100000000E-03 0.  1.
    9900012    2    1    2    0    0  0.95561627611E+00  0.11547521552E+00 -0.68320363796E+00  0.90007616925E+02  0.89999876668E+02 0.  0.
        -12    1    1    2    0    0 -0.95561627611E+00 -0.11547521552E+00  0.68320363796E+00  0.11803830749E+01  0.00000000000E+00 0.  1.
         11    1    3    3    0    0  0.43807473528E+01 -0.95460674442E+01 -0.14328507811E+01  0.10600538318E+02  0.51100000000E-03 0. -1.
        -11    1    3    3    0    0  0.28933213662E+01  0.42463780331E+02 -0.11060020983E+02  0.43975766201E+02  0.51100000000E-03 0.  1.
         12    1    3    3    0    0 -0.63184524429E+01 -0.32802237672E+02  0.11809668126E+02  0.35431312406E+02  0.00000000000E+00 0. -1.
</event>
<event>
 7    1  0.2578619E-015  0.9000786E+02  0.7816164E-02  0.1186339E+00
        -11   -1    0    0    0    0  0.00000000000E+00  0.00000000000E+00  0.45593999997E+02  0.45594000000E+02  0.51100000000E-03 0.  1.
         11   -1    0    0    0    0 -0.00000000000E+00 -0.00000000000E+00 -0.45593999997E+02  0.45594000000E+02  0.51100000000E-03 0. -1.
    9900012    2    1    2    0    0  0.10571433106E+01 -0.51379949654E+00 -0.10577679423E+00  0.90007859910E+02  0.90000122861E+02 0.  0.
        -12    1    1    2    0    0 -0.10571433106E+01  0.51379949654E+00  0.10577679423E+00  0.11801400900E+01  0.00000000000E+00 0.  1.
         11    1    3    3    0    0  0.31100307599E+02 -0.80770229691E+01  0.27712230797E+02  0.42431535075E+02  0.51100000000E-03 0. -1.
        -11    1    3    3    0    0 -0.26426283943E+01  0.91299809246E+01 -0.16339466520E+01  0.96441598098E+01  0.51100000000E-03 0.  1.
        -12    1    3    3    0    0 -0.27400535895E+02 -0.15667574520E+01 -0.26184060939E+02  0.37932165025E+02  0.00000000000E+00 0.  1.
</event>
<event>
 7    1  0.2578619E-015  0.9000758E+02  0.7816164E-02  0.1186339E+00
        -11   -1    0    0    0    0  0.00000000000E+00  0.00000000000E+00  0.45593999997E+02  0.45594000000E+02  0.51100000000E-03 0. -1.
         11   -1    0    0    0    0 -0.00000000000E+00 -0.00000000000E+00 -0.45593999997E+02  0.45594000000E+02  0.51100000000E-03 0.  1.
    9900012    2    1    2    0    0 -0.46719170257E+00  0.94385995606E+00  0.53316364265E+00  0.90007575003E+02  0.89999834193E+02 0.  0.
        -12    1    1    2    0    0  0.46719170257E+00 -0.94385995606E+00 -0.53316364265E+00  0.11804249970E+01  0.00000000000E+00 0.  1.
         11    1    3    3    0    0 -0.32645934041E+02 -0.19131048873E+02 -0.66682515406E+01  0.38421603549E+02  0.51100000000E-03 0. -1.
        -11    1    3    3    0    0 -0.59572449664E+01  0.56477036123E+01  0.70364646989E+01  0.10811898973E+02  0.51100000000E-03 0.  1.
        -12    1    3    3    0    0  0.38135987305E+02  0.14427205217E+02  0.16495048430E+00  0.40774072481E+02  0.00000000000E+00 0.  1.
</event>
<event>
 7    1  0.2578619E-015  0.9000776E+02  0.7816164E-02  0.1186339E+00
        -11   -1    0    0    0    0  0.00000000000E+00  0.00000000000E+00  0.45593999997E+02  0.45594000000E+02  0.51100000000E-03 0. -1.
         11   -1    0    0    0    0 -0.00000000000E+00 -0.00000000000E+00 -0.45593999997E+02  0.45594000000E+02  0.51100000000E-03 0.  1.
    9900012    2    1    2    0    0  0.47345637524E+00  0.11020773087E+00  0.10754818531E+01  0.90007759389E+02  0.90000021013E+02 0.  0.
        -12    1    1    2    0    0 -0.47345637524E+00 -0.11020773087E+00 -0.10754818531E+01  0.11802406109E+01  0.00000000000E+00 0.  1.
         11    1    3    3    0    0  0.59022557706E+01  0.68550355272E+01  0.45955085219E+01  0.10146271931E+02  0.51100000000E-03 0. -1.
        -11    1    3    3    0    0 -0.21365655870E+02  0.31599489683E+02  0.45411703455E+00  0.38147414349E+02  0.51100000000E-03 0.  1.
         12    1    3    3    0    0  0.15936856474E+02 -0.38344317479E+02 -0.39741437033E+01  0.41714073110E+02  0.00000000000E+00 0. -1.
</event>
<event>
 7    1  0.2578619E-015  0.9000789E+02  0.7816164E-02  0.1186339E+00
        -11   -1    0    0    0    0  0.00000000000E+00  0.00000000000E+00  0.45593999997E+02  0.45594000000E+02  0.51100000000E-03 0. -1.
         11   -1    0    0    0    0 -0.00000000000E+00 -0.00000000000E+00 -0.45593999997E+02  0.45594000000E+02  0.51100000000E-03 0.  1.
    9900012    2    1    2    0    0  0.62311185576E-01  0.98819316789E+00  0.64205885126E+00  0.90007894924E+02  0.90000158337E+02 0.  0.
        -12    1    1    2    0    0 -0.62311185576E-01 -0.98819316789E+00 -0.64205885126E+00  0.11801050756E+01  0.00000000000E+00 0.  1.
         11    1    3    3    0    0 -0.84699283444E+01 -0.24944790464E+02  0.29276806882E+02  0.39384180567E+02  0.51100000000E-03 0. -1.
        -11    1    3    3    0    0 -0.83516771781E+01  0.11314958499E+02  0.30758210046E+00  0.14066748186E+02  0.51100000000E-03 0.  1.
        -12    1    3    3    0    0  0.16883916708E+02  0.14618025133E+02 -0.28942330131E+02  0.36556966171E+02  0.00000000000E+00 0.  1.
</event>
<event>
 7    1  0.2578619E-015  0.9000768E+02  0.7816164E-02  0.1186339E+00
        -11   -1    0    0    0    0  0.00000000000E+00  0.00000000000E+00  0.45593999997E+02  0.45594000000E+02  0.51100000000E-03 0.  1.
         11   -1    0    0    0    0 -0.00000000000E+00 -0.00000000000E+00 -0.45593999997E+02  0.45594000000E+02  0.51100000000E-03 0. -1.
    9900012    2    1    2    0    0  0.61105018885E+00 -0.50630705168E+00 -0.87374109457E+00  0.90007681118E+02  0.89999941708E+02 0.  0.
        -12    1    1    2    0    0 -0.61105018885E+00  0.50630705168E+00  0.87374109457E+00  0.11803188824E+01  0.00000000000E+00 0.  1.
         11    1    3    3    0    0  0.89679513406E+01  0.27621204934E+01 -0.41235790319E+01  0.10249749517E+02  0.51100000000E-03 0. -1.
        -11    1    3    3    0    0  0.35269003516E+02 -0.26663808066E+01  0.66736228784E+01  0.35993741654E+02  0.51100000000E-03 0.  1.
         12    1    3    3    0    0 -0.43625904668E+02 -0.60204673856E+00 -0.34237849410E+01  0.43764189947E+02  0.00000000000E+00 0. -1.
</event>
<event>
 7    1  0.2578619E-015  0.9000767E+02  0.7816164E-02  0.1186339E+00
        -11   -1    0    0    0    0  0.00000000000E+00  0.00000000000E+00  0.45593999997E+02  0.45594000000E+02  0.51100000000E-03 0.  1.
         11   -1    0    0    0    0 -0.00000000000E+00 -0.00000000000E+00 -0.45593999997E+02  0.45594000000E+02  0.51100000000E-03 0. -1.
    9900012    2    1    2    0    0 -0.23032988184E+00  0.91019049818E+00 -0.71531976148E+00  0.90007669132E+02  0.89999929564E+02 0.  0.
        -12    1    1    2    0    0  0.23032988184E+00 -0.91019049818E+00  0.71531976148E+00  0.11803308683E+01  0.00000000000E+00 0.  1.
         11    1    3    3    0    0  0.68380270493E+01 -0.22315202080E+01 -0.40405559036E+01  0.82501144620E+01  0.51100000000E-03 0. -1.
        -11    1    3    3    0    0 -0.14007557834E+02 -0.37385138590E+02  0.67849031206E+01  0.40495619201E+02  0.51100000000E-03 0.  1.
         12    1    3    3    0    0  0.69392009028E+01  0.40526849296E+02 -0.34596669785E+01  0.41261935469E+02  0.00000000000E+00 0. -1.
</event>
<event>
 7    1  0.2578619E-015  0.9000768E+02  0.7816164E-02  0.1186339E+00
        -11   -1    0    0    0    0  0.00000000000E+00  0.00000000000E+00  0.45593999997E+02  0.45594000000E+02  0.51100000000E-03 0.  1.
         11   -1    0    0    0    0 -0.00000000000E+00 -0.00000000000E+00 -0.45593999997E+02  0.45594000000E+02  0.51100000000E-03 0. -1.
    9900012    2    1    2    0    0 -0.67218945673E+00  0.94954821139E+00  0.19916245196E+00  0.90007683875E+02  0.89999944503E+02 0.  0.
        -12    1    1    2    0    0  0.67218945673E+00 -0.94954821139E+00 -0.19916245196E+00  0.11803161245E+01  0.00000000000E+00 0.  1.
         11    1    3    3    0    0  0.58906529840E+01  0.54960291085E+01  0.58485230800E+01  0.99554683977E+01  0.51100000000E-03 0. -1.
        -11    1    3    3    0    0 -0.13767121407E+02  0.35318774614E+02  0.48145554706E+01  0.38211639806E+02  0.51100000000E-03 0.  1.
         12    1    3    3    0    0  0.72042789661E+01 -0.39865255511E+02 -0.10463916099E+02  0.41840575671E+02  0.00000000000E+00 0. -1.
</event>
<event>
 7    1  0.2578619E-015  0.9000767E+02  0.7816164E-02  0.1186339E+00
        -11   -1    0    0    0    0  0.00000000000E+00  0.00000000000E+00  0.45593999997E+02  0.45594000000E+02  0.51100000000E-03 0. -1.
         11   -1    0    0    0    0 -0.00000000000E+00 -0.00000000000E+00 -0.45593999997E+02  0.45594000000E+02  0.51100000000E-03 0.  1.
    9900012    2    1    2    0    0  0.83629657610E+00 -0.76560171138E+00 -0.32809903612E+00  0.90007666606E+02  0.89999927005E+02 0.  0.
        -12    1    1    2    0    0 -0.83629657610E+00  0.76560171138E+00  0.32809903612E+00  0.11803333941E+01  0.00000000000E+00 0.  1.
         11    1    3    3    0    0  0.17711842501E+01 -0.58056852492E+01 -0.94717270324E+01  0.11249741690E+02  0.51100000000E-03 0. -1.
        -11    1    3    3    0    0  0.68162754946E+01 -0.22705798994E+02 -0.24752236545E+02  0.34273723664E+02  0.51100000000E-03 0.  1.
         12    1    3    3    0    0 -0.77511631685E+01  0.27745882532E+02  0.33895864542E+02  0.44484201251E+02  0.00000000000E+00 0. -1.
</event>
<event>
 7    1  0.2578619E-015  0.9000680E+02  0.7816164E-02  0.1186341E+00
        -11   -1    0    0    0    0  0.00000000000E+00  0.00000000000E+00  0.45593999997E+02  0.45594000000E+02  0.51100000000E-03 0.  1.
         11   -1    0    0    0    0 -0.00000000000E+00 -0.00000000000E+00 -0.45593999997E+02  0.45594000000E+02  0.51100000000E-03 0. -1.
    9900012    2    1    2    0    0  0.11108141849E+01 -0.51664485113E-01  0.39832158374E+00  0.90006798300E+02  0.89999047232E+02 0.  0.
        -12    1    1    2    0    0 -0.11108141849E+01  0.51664485113E-01 -0.39832158374E+00  0.11812017001E+01  0.00000000000E+00 0.  1.
         11    1    3    3    0    0 -0.35538626806E+01 -0.81935215494E+01 -0.27446498614E+01  0.93432777148E+01  0.51100000000E-03 0. -1.
        -11    1    3    3    0    0 -0.27360990636E+02  0.12650394647E+02  0.27005470641E+02  0.40471616451E+02  0.51100000000E-03 0.  1.
         12    1    3    3    0    0  0.32025667502E+02 -0.45085375826E+01 -0.23862499196E+02  0.40191904134E+02  0.00000000000E+00 0. -1.
</event>
<event>
 7    1  0.2578619E-015  0.9000758E+02  0.7816164E-02  0.1186339E+00
        -11   -1    0    0    0    0  0.00000000000E+00  0.00000000000E+00  0.45593999997E+02  0.45594000000E+02  0.51100000000E-03 0.  1.
         11   -1    0    0    0    0 -0.00000000000E+00 -0.00000000000E+00 -0.45593999997E+02  0.45594000000E+02  0.51100000000E-03 0. -1.
    9900012    2    1    2    0    0  0.18297696856E+00  0.94989653495E-01 -0.11622764615E+01  0.90007580508E+02  0.89999839770E+02 0.  0.
        -12    1    1    2    0    0 -0.18297696856E+00 -0.94989653495E-01  0.11622764615E+01  0.11804194925E+01  0.00000000000E+00 0.  1.
         11    1    3    3    0    0  0.15124321695E+00 -0.18111497522E+01  0.11089474779E+01  0.21290614612E+01  0.51100000000E-03 0. -1.
        -11    1    3    3    0    0 -0.22803905283E+02 -0.35119759647E+02  0.92369613577E+01  0.42880497539E+02  0.51100000000E-03 0.  1.
         12    1    3    3    0    0  0.22835639034E+02  0.37025899053E+02 -0.11508185297E+02  0.44998021507E+02  0.00000000000E+00 0. -1.
</event>
<event>
 7    1  0.2578619E-015  0.9000777E+02  0.7816164E-02  0.1186339E+00
        -11   -1    0    0    0    0  0.00000000000E+00  0.00000000000E+00  0.45593999997E+02  0.45594000000E+02  0.51100000000E-03 0.  1.
         11   -1    0    0    0    0 -0.00000000000E+00 -0.00000000000E+00 -0.45593999997E+02  0.45594000000E+02  0.51100000000E-03 0. -1.
    9900012    2    1    2    0    0  0.11702179427E+01 -0.11065333621E+00 -0.10622423735E+00  0.90007772148E+02  0.90000033940E+02 0.  0.
        -12    1    1    2    0    0 -0.11702179427E+01  0.11065333621E+00  0.10622423735E+00  0.11802278521E+01  0.00000000000E+00 0.  1.
         11    1    3    3    0    0  0.28536643473E+02 -0.14995255851E+02 -0.21064362360E+02  0.38508506600E+02  0.51100000000E-03 0. -1.
        -11    1    3    3    0    0  0.57498079856E+01 -0.53682463253E+01  0.12515246814E+01  0.79652165551E+01  0.51100000000E-03 0.  1.
        -12    1    3    3    0    0 -0.33116233515E+02  0.20252848840E+02  0.19706613441E+02  0.43534048992E+02  0.00000000000E+00 0.  1.
</event>
<event>
 7    1  0.2578619E-015  0.9000803E+02  0.7816164E-02  0.1186338E+00
        -11   -1    0    0    0    0  0.00000000000E+00  0.00000000000E+00  0.45593999997E+02  0.45594000000E+02  0.51100000000E-03 0.  1.
         11   -1    0    0    0    0 -0.00000000000E+00 -0.00000000000E+00 -0.45593999997E+02  0.45594000000E+02  0.51100000000E-03 0. -1.
    9900012    2    1    2    0    0  0.52048792748E+00 -0.91353449219E+00 -0.53561065763E+00  0.90008028929E+02  0.90000294111E+02 0.  0.
        -12    1    1    2    0    0 -0.52048792748E+00  0.91353449219E+00  0.53561065763E+00  0.11799710707E+01  0.00000000000E+00 0.  1.
         11    1    3    3    0    0 -0.29923739548E+02 -0.18974485408E+02 -0.22037265118E+02  0.41726518417E+02  0.51100000000E-03 0. -1.
        -11    1    3    3    0    0  0.78786513376E+01 -0.43355339858E+01 -0.13967343062E+01  0.91005971686E+01  0.51100000000E-03 0.  1.
        -12    1    3    3    0    0  0.22565576138E+02  0.22396484902E+02  0.22898388766E+02  0.39180913344E+02  0.00000000000E+00 0.  1.
</event>
<event>
 7    1  0.2578619E-015  0.9000791E+02  0.7816164E-02  0.1186339E+00
        -11   -1    0    0    0    0  0.00000000000E+00  0.00000000000E+00  0.45593999997E+02  0.45594000000E+02  0.51100000000E-03 0. -1.
         11   -1    0    0    0    0 -0.00000000000E+00 -0.00000000000E+00 -0.45593999997E+02  0.45594000000E+02  0.51100000000E-03 0.  1.
    9900012    2    1    2    0    0  0.53888377748E+00  0.33590256091E+00  0.99468131428E+00  0.90007907981E+02  0.90000171566E+02 0.  0.
        -12    1    1    2    0    0 -0.53888377748E+00 -0.33590256091E+00 -0.99468131428E+00  0.11800920189E+01  0.00000000000E+00 0.  1.
         11    1    3    3    0    0 -0.80479199872E+01 -0.44188047997E+01  0.57771140077E+01  0.10847575697E+02  0.51100000000E-03 0. -1.
        -11    1    3    3    0    0  0.54890203682E+01 -0.36851245971E+02 -0.34624258604E+01  0.37418338649E+02  0.51100000000E-03 0.  1.
         12    1    3    3    0    0  0.30977833966E+01  0.41605953331E+02 -0.13200068331E+01  0.41741993635E+02  0.00000000000E+00 0. -1.
</event>
<event>
 7    1  0.2578619E-015  0.9000771E+02  0.7816164E-02  0.1186339E+00
        -11   -1    0    0    0    0  0.00000000000E+00  0.00000000000E+00  0.45593999997E+02  0.45594000000E+02  0.51100000000E-03 0. -1.
         11   -1    0    0    0    0 -0.00000000000E+00 -0.00000000000E+00 -0.45593999997E+02  0.45594000000E+02  0.51100000000E-03 0.  1.
    9900012    2    1    2    0    0  0.66454911631E+00  0.96502149683E+00 -0.14207955921E+00  0.90007712485E+02  0.89999973490E+02 0.  0.
        -12    1    1    2    0    0 -0.66454911631E+00 -0.96502149683E+00  0.14207955921E+00  0.11802875152E+01  0.00000000000E+00 0.  1.
         11    1    3    3    0    0 -0.60341143163E-01  0.10714761348E+02 -0.39782665286E+01  0.11429626268E+02  0.51100000000E-03 0. -1.
        -11    1    3    3    0    0 -0.32146576030E+02  0.52577829148E+01 -0.17127426304E+02  0.36802110859E+02  0.51100000000E-03 0.  1.
         12    1    3    3    0    0  0.32871466290E+02 -0.15007522765E+02  0.20963613274E+02  0.41775975358E+02  0.00000000000E+00 0. -1.
</event>
<event>
 7    1  0.2578619E-015  0.9000746E+02  0.7816164E-02  0.1186340E+00
        -11   -1    0    0    0    0  0.00000000000E+00  0.00000000000E+00  0.45593999997E+02  0.45594000000E+02  0.51100000000E-03 0.  1.
         11   -1    0    0    0    0 -0.00000000000E+00 -0.00000000000E+00 -0.45593999997E+02  0.45594000000E+02  0.51100000000E-03 0. -1.
    9900012    2    1    2    0    0 -0.40803661495E+00  0.10709031923E+01 -0.28345790918E+00  0.90007459483E+02  0.89999717148E+02 0.  0.
        -12    1    1    2    0    0  0.40803661495E+00 -0.10709031923E+01  0.28345790918E+00  0.11805405172E+01  0.00000000000E+00 0.  1.
         11    1    3    3    0    0  0.78703479220E+01  0.29569019781E+01  0.61636788368E+01  0.10424806127E+02  0.51100000000E-03 0. -1.
        -11    1    3    3    0    0  0.32362772598E+02 -0.14768294601E+02  0.36780767059E+01  0.35762827407E+02  0.51100000000E-03 0.  1.
         12    1    3    3    0    0 -0.40641157135E+02  0.12882295815E+02 -0.10125213452E+02  0.43819825949E+02  0.00000000000E+00 0. -1.
</event>
<event>
 7    1  0.2578619E-015  0.9000740E+02  0.7816164E-02  0.1186340E+00
        -11   -1    0    0    0    0  0.00000000000E+00  0.00000000000E+00  0.45593999997E+02  0.45594000000E+02  0.51100000000E-03 0.  1.
         11   -1    0    0    0    0 -0.00000000000E+00 -0.00000000000E+00 -0.45593999997E+02  0.45594000000E+02  0.51100000000E-03 0. -1.
    9900012    2    1    2    0    0 -0.16205826991E-01  0.11786065260E+01  0.66591503291E-01  0.90007402524E+02  0.89999659437E+02 0.  0.
        -12    1    1    2    0    0  0.16205826991E-01 -0.11786065260E+01 -0.66591503291E-01  0.11805974759E+01  0.00000000000E+00 0.  1.
         11    1    3    3    0    0 -0.75170333329E+00 -0.17165962105E+02 -0.31607373616E+02  0.35975844397E+02  0.51100000000E-03 0. -1.
        -11    1    3    3    0    0 -0.91758210826E+00  0.19233727320E+01 -0.94668526651E+01  0.97037425376E+01  0.51100000000E-03 0.  1.
        -12    1    3    3    0    0  0.16530796146E+01  0.16421195899E+02  0.41140817785E+02  0.44327815590E+02  0.00000000000E+00 0.  1.
</event>
<event>
 7    1  0.2578619E-015  0.9000834E+02  0.7816164E-02  0.1186338E+00
        -11   -1    0    0    0    0  0.00000000000E+00  0.00000000000E+00  0.45593999997E+02  0.45594000000E+02  0.51100000000E-03 0.  1.
         11   -1    0    0    0    0 -0.00000000000E+00 -0.00000000000E+00 -0.45593999997E+02  0.45594000000E+02  0.51100000000E-03 0. -1.
    9900012    2    1    2    0    0  0.10911976951E+01 -0.20064203417E+00 -0.40077812379E+00  0.90008342109E+02  0.90000611423E+02 0.  0.
        -12    1    1    2    0    0 -0.10911976951E+01  0.20064203417E+00  0.40077812379E+00  0.11796578911E+01  0.00000000000E+00 0.  1.
         11    1    3    3    0    0  0.33663804314E+02  0.52648042826E+01 -0.19152754815E+02  0.39087055431E+02  0.51100000000E-03 0. -1.
        -11    1    3    3    0    0  0.29043820155E+00  0.10300462891E+02  0.92464895323E+00  0.10345958924E+02  0.51100000000E-03 0.  1.
        -12    1    3    3    0    0 -0.32863044821E+02 -0.15765909208E+02  0.17827327738E+02  0.40575327753E+02  0.00000000000E+00 0.  1.
</event>
<event>
 7    1  0.2578619E-015  0.9000774E+02  0.7816164E-02  0.1186339E+00
        -11   -1    0    0    0    0  0.00000000000E+00  0.00000000000E+00  0.45593999997E+02  0.45594000000E+02  0.51100000000E-03 0.  1.
         11   -1    0    0    0    0 -0.00000000000E+00 -0.00000000000E+00 -0.45593999997E+02  0.45594000000E+02  0.51100000000E-03 0. -1.
    9900012    2    1    2    0    0  0.47941838068E+00 -0.28581557777E+00 -0.10399439865E+01  0.90007739002E+02  0.90000000357E+02 0.  0.
        -12    1    1    2    0    0 -0.47941838068E+00  0.28581557777E+00  0.10399439865E+01  0.11802609979E+01  0.00000000000E+00 0.  1.
         11    1    3    3    0    0 -0.36674848079E+01  0.45593990882E+01  0.61159415373E+01  0.84642368829E+01  0.51100000000E-03 0. -1.
        -11    1    3    3    0    0  0.24980670898E+01  0.16891098866E+02  0.32260695652E+02  0.36500712929E+02  0.51100000000E-03 0.  1.
         12    1    3    3    0    0  0.16488360988E+01 -0.21736313532E+02 -0.39416581176E+02  0.45042789190E+02  0.00000000000E+00 0. -1.
</event>
<event>
 7    1  0.2578619E-015  0.9000787E+02  0.7816164E-02  0.1186339E+00
        -11   -1    0    0    0    0  0.00000000000E+00  0.00000000000E+00  0.45593999997E+02  0.45594000000E+02  0.51100000000E-03 0. -1.
         11   -1    0    0    0    0 -0.00000000000E+00 -0.00000000000E+00 -0.45593999997E+02  0.45594000000E+02  0.51100000000E-03 0.  1.
    9900012    2    1    2    0    0  0.11194759317E+01 -0.24955374536E+00  0.27785005550E+00  0.90007871157E+02  0.90000134256E+02 0.  0.
        -12    1    1    2    0    0 -0.11194759317E+01  0.24955374536E+00 -0.27785005550E+00  0.11801288434E+01  0.00000000000E+00 0.  1.
         11    1    3    3    0    0  0.50604864445E+01 -0.66697662679E+01 -0.43010413778E+00  0.83832747154E+01  0.51100000000E-03 0. -1.
        -11    1    3    3    0    0 -0.19873490788E+02  0.14781012659E+02 -0.34274062438E+02  0.42286467429E+02  0.51100000000E-03 0.  1.
         12    1    3    3    0    0  0.15932480275E+02 -0.83608001368E+01  0.34982016631E+02  0.39338129013E+02  0.00000000000E+00 0. -1.
</event>
<event>
 7    1  0.2578619E-015  0.9000774E+02  0.7816164E-02  0.1186339E+00
        -11   -1    0    0    0    0  0.00000000000E+00  0.00000000000E+00  0.45593999997E+02  0.45594000000E+02  0.51100000000E-03 0.  1.
         11   -1    0    0    0    0 -0.00000000000E+00 -0.00000000000E+00 -0.45593999997E+02  0.45594000000E+02  0.51100000000E-03 0. -1.
    9900012    2    1    2    0    0  0.10245714951E+01 -0.46358486142E+00 -0.35826120130E+00  0.90007742079E+02  0.90000003474E+02 0.  0.
        -12    1    1    2    0    0 -0.10245714951E+01  0.46358486142E+00  0.35826120130E+00  0.11802579212E+01  0.00000000000E+00 0.  1.
         11    1    3    3    0    0 -0.52612982993E+00  0.13527676835E+02 -0.91598946672E+01  0.16345596463E+02  0.51100000000E-03 0. -1.
        -11    1    3    3    0    0 -0.33644097765E+02 -0.54705287347E+01  0.14432284295E+02  0.37015440417E+02  0.51100000000E-03 0.  1.
         12    1    3    3    0    0  0.35194799090E+02 -0.85207329616E+01 -0.56306508290E+01  0.36646705199E+02  0.00000000000E+00 0. -1.
</event>
<event>
 7    1  0.2578619E-015  0.9000773E+02  0.7816164E-02  0.1186339E+00
        -11   -1    0    0    0    0  0.00000000000E+00  0.00000000000E+00  0.45593999997E+02  0.45594000000E+02  0.51100000000E-03 0. -1.
         11   -1    0    0    0    0 -0.00000000000E+00 -0.00000000000E+00 -0.45593999997E+02  0.45594000000E+02  0.51100000000E-03 0.  1.
    9900012    2    1    2    0    0 -0.92922193362E+00  0.64862584660E+00  0.32994548723E+00  0.90007731846E+02  0.89999993106E+02 0.  0.
        -12    1    1    2    0    0  0.92922193362E+00 -0.64862584660E+00 -0.32994548723E+00  0.11802681540E+01  0.00000000000E+00 0.  1.
         11    1    3    3    0    0  0.27916374510E+02 -0.13548257994E+02  0.26565508845E+02  0.40848568162E+02  0.51100000000E-03 0. -1.
        -11    1    3    3    0    0 -0.79911739893E+01  0.44403895391E+01  0.49494097088E+01  0.10395796156E+02  0.51100000000E-03 0.  1.
        -12    1    3    3    0    0 -0.20854422454E+02  0.97564943018E+01 -0.31184973066E+02  0.38763367528E+02  0.00000000000E+00 0.  1.
</event>
<event>
 7    1  0.2578619E-015  0.9000766E+02  0.7816164E-02  0.1186339E+00
        -11   -1    0    0    0    0  0.00000000000E+00  0.00000000000E+00  0.45593999997E+02  0.45594000000E+02  0.51100000000E-03 0.  1.
         11   -1    0    0    0    0 -0.00000000000E+00 -0.00000000000E+00 -0.45593999997E+02  0.45594000000E+02  0.51100000000E-03 0. -1.
    9900012    2    1    2    0    0  0.50360071781E+00  0.10647303160E+01  0.77030558099E-01  0.90007661898E+02  0.89999922235E+02 0.  0.
        -12    1    1    2    0    0 -0.50360071781E+00 -0.10647303160E+01 -0.77030558099E-01  0.11803381023E+01  0.00000000000E+00 0.  1.
         11    1    3    3    0    0  0.35356396431E+01 -0.10130590756E+02 -0.13690466427E+01  0.10816834367E+02  0.51100000000E-03 0. -1.
        -11    1    3    3    0    0  0.14940370648E+02  0.30735352383E+02  0.26068530033E+02  0.42981912703E+02  0.51100000000E-03 0.  1.
         12    1    3    3    0    0 -0.17972409573E+02 -0.19540031311E+02 -0.24622452833E+02  0.36208914828E+02  0.00000000000E+00 0. -1.
</event>
<event>
 7    1  0.2578619E-015  0.9000772E+02  0.7816164E-02  0.1186339E+00
        -11   -1    0    0    0    0  0.00000000000E+00  0.00000000000E+00  0.45593999997E+02  0.45594000000E+02  0.51100000000E-03 0.  1.
         11   -1    0    0    0    0 -0.00000000000E+00 -0.00000000000E+00 -0.45593999997E+02  0.45594000000E+02  0.51100000000E-03 0. -1.
    9900012    2    1    2    0    0  0.14504469604E+00 -0.48364162171E+00 -0.10668190139E+01  0.90007724612E+02  0.89999985777E+02 0.  0.
        -12    1    1    2    0    0 -0.14504469604E+00  0.48364162171E+00  0.10668190139E+01  0.11802753876E+01  0.00000000000E+00 0.  1.
         11    1    3    3    0    0  0.10096511350E+01  0.55226223887E+01 -0.82613231539E+01  0.99884039754E+01  0.51100000000E-03 0. -1.
        -11    1    3    3    0    0 -0.35818294630E+01  0.36298065853E+02  0.90741740375E+01  0.37586163966E+02  0.51100000000E-03 0.  1.
         12    1    3    3    0    0  0.27172230240E+01 -0.42304329863E+02 -0.18796698975E+01  0.42433156671E+02  0.00000000000E+00 0. -1.
</event>
<event>
 7    1  0.2578619E-015  0.9000776E+02  0.7816164E-02  0.1186339E+00
        -11   -1    0    0    0    0  0.00000000000E+00  0.00000000000E+00  0.45593999997E+02  0.45594000000E+02  0.51100000000E-03 0. -1.
         11   -1    0    0    0    0 -0.00000000000E+00 -0.00000000000E+00 -0.45593999997E+02  0.45594000000E+02  0.51100000000E-03 0.  1.
    9900012    2    1    2    0    0  0.82400439155E+00  0.76431164431E+00  0.36027876842E+00  0.90007764296E+02  0.90000025984E+02 0.  0.
        -12    1    1    2    0    0 -0.82400439155E+00 -0.76431164431E+00 -0.36027876842E+00  0.11802357044E+01  0.00000000000E+00 0.  1.
         11    1    3    3    0    0  0.35615196806E+02  0.86380796852E+01  0.15116250439E+02  0.39642902162E+02  0.51100000000E-03 0. -1.
        -11    1    3    3    0    0 -0.35760552843E+01  0.57454097443E+01  0.71707920612E+01  0.98599271586E+01  0.51100000000E-03 0.  1.
        -12    1    3    3    0    0 -0.31215137130E+02 -0.13619177785E+02 -0.21926763732E+02  0.40504934975E+02  0.00000000000E+00 0.  1.
</event>
<event>
 7    1  0.2578619E-015  0.9000827E+02  0.7816164E-02  0.1186338E+00
        -11   -1    0    0    0    0  0.00000000000E+00  0.00000000000E+00  0.45593999997E+02  0.45594000000E+02  0.51100000000E-03 0. -1.
         11   -1    0    0    0    0 -0.00000000000E+00 -0.00000000000E+00 -0.45593999997E+02  0.45594000000E+02  0.51100000000E-03 0.  1.
    9900012    2    1    2    0    0  0.92575195422E+00 -0.11028151064E+00  0.72289972084E+00  0.90008270074E+02  0.90000538437E+02 0.  0.
        -12    1    1    2    0    0 -0.92575195422E+00  0.11028151064E+00 -0.72289972084E+00  0.11797299262E+01  0.00000000000E+00 0.  1.
         11    1    3    3    0    0  0.71359307544E+01  0.19201727500E+01  0.44311675399E+01  0.86164851970E+01  0.51100000000E-03 0. -1.
        -11    1    3    3    0    0 -0.20125174324E+02  0.17448973855E+02 -0.33739601361E+02  0.42986626181E+02  0.51100000000E-03 0.  1.
         12    1    3    3    0    0  0.13914995523E+02 -0.19479428115E+02  0.30031333542E+02  0.38405158696E+02  0.00000000000E+00 0. -1.
</event>
<event>
 7    1  0.2578619E-015  0.9000773E+02  0.7816164E-02  0.1186339E+00
        -11   -1    0    0    0    0  0.00000000000E+00  0.00000000000E+00  0.45593999997E+02  0.45594000000E+02  0.51100000000E-03 0. -1.
         11   -1    0    0    0    0 -0.00000000000E+00 -0.00000000000E+00 -0.45593999997E+02  0.45594000000E+02  0.51100000000E-03 0.  1.
    9900012    2    1    2    0    0 -0.42417566168E+00  0.84694131076E+00  0.70413021886E+00  0.90007731412E+02  0.89999992666E+02 0.  0.
        -12    1    1    2    0    0  0.42417566168E+00 -0.84694131076E+00 -0.70413021886E+00  0.11802685885E+01  0.00000000000E+00 0.  1.
         11    1    3    3    0    0  0.26169126773E+00  0.10481859024E+02  0.18439194647E+01  0.10646026967E+02  0.51100000000E-03 0. -1.
        -11    1    3    3    0    0  0.26395943636E+02 -0.29165768041E+01 -0.29420216915E+02  0.39633337284E+02  0.51100000000E-03 0.  1.
         12    1    3    3    0    0 -0.27081810566E+02 -0.67183409094E+01  0.28280427669E+02  0.39728367160E+02  0.00000000000E+00 0. -1.
</event>
<event>
 7    1  0.2578619E-015  0.9000776E+02  0.7816164E-02  0.1186339E+00
        -11   -1    0    0    0    0  0.00000000000E+00  0.00000000000E+00  0.45593999997E+02  0.45594000000E+02  0.51100000000E-03 0. -1.
         11   -1    0    0    0    0 -0.00000000000E+00 -0.00000000000E+00 -0.45593999997E+02  0.45594000000E+02  0.51100000000E-03 0.  1.
    9900012    2    1    2    0    0 -0.34002861809E+00 -0.10835840829E+01  0.32123898622E+00  0.90007759172E+02  0.90000020793E+02 0.  0.
        -12    1    1    2    0    0  0.34002861809E+00  0.10835840829E+01 -0.32123898622E+00  0.11802408280E+01  0.00000000000E+00 0.  1.
         11    1    3    3    0    0 -0.65232019015E+01  0.79234459459E+01 -0.23765752589E+01  0.10534764778E+02  0.51100000000E-03 0. -1.
        -11    1    3    3    0    0  0.83611172378E+01  0.94324597290E+00 -0.37280113112E+02  0.38217860070E+02  0.51100000000E-03 0.  1.
         12    1    3    3    0    0 -0.21779439543E+01 -0.99502760017E+01  0.39977927357E+02  0.41255134324E+02  0.00000000000E+00 0. -1.
</event>
<event>
 7    1  0.2578619E-015  0.9000771E+02  0.7816164E-02  0.1186339E+00
        -11   -1    0    0    0    0  0.00000000000E+00  0.00000000000E+00  0.45593999997E+02  0.45594000000E+02  0.51100000000E-03 0. -1.
         11   -1    0    0    0    0 -0.00000000000E+00 -0.00000000000E+00 -0.45593999997E+02  0.45594000000E+02  0.51100000000E-03 0.  1.
    9900012    2    1    2    0    0 -0.67936951951E+00 -0.84888454853E+00  0.45926773683E+00  0.90007714113E+02  0.89999975139E+02 0.  0.
        -12    1    1    2    0    0  0.67936951951E+00  0.84888454853E+00 -0.45926773683E+00  0.11802858869E+01  0.00000000000E+00 0.  1.
         11    1    3    3    0    0 -0.35217331944E+01 -0.76197584443E+01 -0.25140718803E+01  0.87626412184E+01  0.51100000000E-03 0. -1.
        -11    1    3    3    0    0 -0.15833234599E+02 -0.32126407027E+02 -0.80526858752E+01  0.36710258735E+02  0.51100000000E-03 0.  1.
         12    1    3    3    0    0  0.18675598274E+02  0.38897280923E+02  0.11026025492E+02  0.44534814160E+02  0.00000000000E+00 0. -1.
</event>
<event>
 7    1  0.2578619E-015  0.9000768E+02  0.7816164E-02  0.1186339E+00
        -11   -1    0    0    0    0  0.00000000000E+00  0.00000000000E+00  0.45593999997E+02  0.45594000000E+02  0.51100000000E-03 0.  1.
         11   -1    0    0    0    0 -0.00000000000E+00 -0.00000000000E+00 -0.45593999997E+02  0.45594000000E+02  0.51100000000E-03 0. -1.
    9900012    2    1    2    0    0 -0.55950165717E+00  0.98617093630E+00 -0.32797774464E+00  0.90007684525E+02  0.89999945161E+02 0.  0.
        -12    1    1    2    0    0  0.55950165717E+00 -0.98617093630E+00  0.32797774464E+00  0.11803154752E+01  0.00000000000E+00 0.  1.
         11    1    3    3    0    0  0.17958615530E+02 -0.32788139147E+02  0.48427208683E+01  0.37696497001E+02  0.51100000000E-03 0. -1.
        -11    1    3    3    0    0  0.62396941739E+01 -0.32919940304E+01  0.15774586458E+01  0.72290652315E+01  0.51100000000E-03 0.  1.
        -12    1    3    3    0    0 -0.24757811361E+02  0.37066304113E+02 -0.67481572587E+01  0.45082122293E+02  0.00000000000E+00 0.  1.
</event>
<event>
 7    1  0.2578619E-015  0.9000807E+02  0.7816164E-02  0.1186338E+00
        -11   -1    0    0    0    0  0.00000000000E+00  0.00000000000E+00  0.45593999997E+02  0.45594000000E+02  0.51100000000E-03 0. -1.
         11   -1    0    0    0    0 -0.00000000000E+00 -0.00000000000E+00 -0.45593999997E+02  0.45594000000E+02  0.51100000000E-03 0.  1.
    9900012    2    1    2    0    0  0.72063502752E+00 -0.79644474429E+00  0.48846161269E+00  0.90008070417E+02  0.90000336146E+02 0.  0.
        -12    1    1    2    0    0 -0.72063502752E+00  0.79644474429E+00 -0.48846161269E+00  0.11799295829E+01  0.00000000000E+00 0.  1.
         11    1    3    3    0    0  0.13185013455E+02 -0.14369570617E+02 -0.16071391583E+01  0.19568138288E+02  0.51100000000E-03 0. -1.
        -11    1    3    3    0    0  0.22334547004E+02 -0.12635424602E+02 -0.54330268169E+01  0.26229825112E+02  0.51100000000E-03 0.  1.
         12    1    3    3    0    0 -0.34798925431E+02  0.26208550475E+02  0.75286275879E+01  0.44210107018E+02  0.00000000000E+00 0. -1.
</event>
<event>
 7    1  0.2578619E-015  0.9000767E+02  0.7816164E-02  0.1186339E+00
        -11   -1    0    0    0    0  0.00000000000E+00  0.00000000000E+00  0.45593999997E+02  0.45594000000E+02  0.51100000000E-03 0. -1.
         11   -1    0    0    0    0 -0.00000000000E+00 -0.00000000000E+00 -0.45593999997E+02  0.45594000000E+02  0.51100000000E-03 0.  1.
    9900012    2    1    2    0    0  0.10492051718E+01 -0.53480986801E+00 -0.79468539248E-01  0.90007674479E+02  0.89999934982E+02 0.  0.
        -12    1    1    2    0    0 -0.10492051718E+01  0.53480986801E+00  0.79468539248E-01  0.11803255213E+01  0.00000000000E+00 0.  1.
         11    1    3    3    0    0  0.28759472881E+02 -0.20309555452E+02  0.16987687955E+02  0.39091774907E+02  0.51100000000E-03 0. -1.
        -11    1    3    3    0    0 -0.40311304433E+01 -0.13566408560E+01  0.89295134581E+01  0.98907379867E+01  0.51100000000E-03 0.  1.
        -12    1    3    3    0    0 -0.23679137266E+02  0.21131386440E+02 -0.25996669952E+02  0.41025161585E+02  0.00000000000E+00 0.  1.
</event>
<event>
 7    1  0.2578619E-015  0.9000791E+02  0.7816164E-02  0.1186339E+00
        -11   -1    0    0    0    0  0.00000000000E+00  0.00000000000E+00  0.45593999997E+02  0.45594000000E+02  0.51100000000E-03 0. -1.
         11   -1    0    0    0    0 -0.00000000000E+00 -0.00000000000E+00 -0.45593999997E+02  0.45594000000E+02  0.51100000000E-03 0.  1.
    9900012    2    1    2    0    0  0.83317944959E+00  0.13476106660E+00  0.82477482621E+00  0.90007914387E+02  0.90000178057E+02 0.  0.
        -12    1    1    2    0    0 -0.83317944959E+00 -0.13476106660E+00 -0.82477482621E+00  0.11800856131E+01  0.00000000000E+00 0.  1.
         11    1    3    3    0    0 -0.37726224091E+02  0.27575488882E-01  0.15677770779E+02  0.40854145952E+02  0.51100000000E-03 0. -1.
        -11    1    3    3    0    0 -0.13601537330E+01 -0.22684244603E+01 -0.81973732153E+01  0.86135181895E+01  0.51100000000E-03 0.  1.
        -12    1    3    3    0    0  0.39919557274E+02  0.23756100380E+01 -0.66556227376E+01  0.40540250246E+02  0.00000000000E+00 0.  1.
</event>
<event>
 7    1  0.2578619E-015  0.9000771E+02  0.7816164E-02  0.1186339E+00
        -11   -1    0    0    0    0  0.00000000000E+00  0.00000000000E+00  0.45593999997E+02  0.45594000000E+02  0.51100000000E-03 0. -1.
         11   -1    0    0    0    0 -0.00000000000E+00 -0.00000000000E+00 -0.45593999997E+02  0.45594000000E+02  0.51100000000E-03 0.  1.
    9900012    2    1    2    0    0 -0.78818895443E+00 -0.58774159626E+00  0.65299180956E+00  0.90007711766E+02  0.89999972761E+02 0.  0.
        -12    1    1    2    0    0  0.78818895443E+00  0.58774159626E+00 -0.65299180956E+00  0.11802882340E+01  0.00000000000E+00 0.  1.
         11    1    3    3    0    0 -0.15670632718E+02  0.45839989732E+01 -0.57127343983E+00  0.16337323219E+02  0.51100000000E-03 0. -1.
        -11    1    3    3    0    0 -0.67903377652E+01 -0.17495561068E+02 -0.28967317476E+02  0.34515341894E+02  0.51100000000E-03 0.  1.
         12    1    3    3    0    0  0.21672781529E+02  0.12323820498E+02  0.30191582726E+02  0.39155046652E+02  0.00000000000E+00 0. -1.
</event>
<event>
 7    1  0.2578619E-015  0.9000776E+02  0.7816164E-02  0.1186339E+00
        -11   -1    0    0    0    0  0.00000000000E+00  0.00000000000E+00  0.45593999997E+02  0.45594000000E+02  0.51100000000E-03 0.  1.
         11   -1    0    0    0    0 -0.00000000000E+00 -0.00000000000E+00 -0.45593999997E+02  0.45594000000E+02  0.51100000000E-03 0. -1.
    9900012    2    1    2    0    0  0.55242604495E+00  0.91219685833E+00  0.50565780368E+00  0.90007759576E+02  0.90000021203E+02 0.  0.
        -12    1    1    2    0    0 -0.55242604495E+00 -0.91219685833E+00 -0.50565780368E+00  0.11802404238E+01  0.00000000000E+00 0.  1.
         11    1    3    3    0    0 -0.44217999471E+01 -0.20672463356E+01 -0.60448438159E+01  0.77695533465E+01  0.51100000000E-03 0. -1.
        -11    1    3    3    0    0 -0.30263628651E+02 -0.95022816640E+01  0.25152599926E+02  0.40482513005E+02  0.51100000000E-03 0.  1.
         12    1    3    3    0    0  0.35237854643E+02  0.12481724858E+02 -0.18602098307E+02  0.41755693224E+02  0.00000000000E+00 0. -1.
</event>
<event>
 7    1  0.2578619E-015  0.9000771E+02  0.7816164E-02  0.1186339E+00
        -11   -1    0    0    0    0  0.00000000000E+00  0.00000000000E+00  0.45593999997E+02  0.45594000000E+02  0.51100000000E-03 0.  1.
         11   -1    0    0    0    0 -0.00000000000E+00 -0.00000000000E+00 -0.45593999997E+02  0.45594000000E+02  0.51100000000E-03 0. -1.
    9900012    2    1    2    0    0  0.11270785801E+01  0.30218637831E+00 -0.17739758043E+00  0.90007706547E+02  0.89999967474E+02 0.  0.
        -12    1    1    2    0    0 -0.11270785801E+01 -0.30218637831E+00  0.17739758043E+00  0.11802934527E+01  0.00000000000E+00 0.  1.
         11    1    3    3    0    0 -0.23776152568E+01 -0.98104058050E+01 -0.44629681663E+00  0.10104271249E+02  0.51100000000E-03 0. -1.
        -11    1    3    3    0    0 -0.33948229622E+02 -0.81775431109E+01  0.11451529093E+02  0.36749041139E+02  0.51100000000E-03 0.  1.
         12    1    3    3    0    0  0.37452923459E+02  0.18290135294E+02 -0.11182629857E+02  0.43154394159E+02  0.00000000000E+00 0. -1.
</event>
<event>
 7    1  0.2578619E-015  0.9000777E+02  0.7816164E-02  0.1186339E+00
        -11   -1    0    0    0    0  0.00000000000E+00  0.00000000000E+00  0.45593999997E+02  0.45594000000E+02  0.51100000000E-03 0.  1.
         11   -1    0    0    0    0 -0.00000000000E+00 -0.00000000000E+00 -0.45593999997E+02  0.45594000000E+02  0.51100000000E-03 0. -1.
    9900012    2    1    2    0    0 -0.27888727637E+00  0.11454263629E+01  0.56137578546E-01  0.90007774982E+02  0.90000036812E+02 0.  0.
        -12    1    1    2    0    0  0.27888727637E+00 -0.11454263629E+01 -0.56137578546E-01  0.11802250182E+01  0.00000000000E+00 0.  1.
         11    1    3    3    0    0 -0.26278927590E+02  0.25054433230E+02  0.22073806295E+02  0.42491876686E+02  0.51100000000E-03 0. -1.
        -11    1    3    3    0    0 -0.95651517001E+00  0.22917420127E+01 -0.62978128642E+01  0.67697451840E+01  0.51100000000E-03 0.  1.
        -12    1    3    3    0    0  0.26956555483E+02 -0.26200748880E+02 -0.15719855852E+02  0.40746153111E+02  0.00000000000E+00 0.  1.
</event>
<event>
 7    1  0.2578619E-015  0.9000776E+02  0.7816164E-02  0.1186339E+00
        -11   -1    0    0    0    0  0.00000000000E+00  0.00000000000E+00  0.45593999997E+02  0.45594000000E+02  0.51100000000E-03 0. -1.
         11   -1    0    0    0    0 -0.00000000000E+00 -0.00000000000E+00 -0.45593999997E+02  0.45594000000E+02  0.51100000000E-03 0.  1.
    9900012    2    1    2    0    0 -0.75261003383E+00  0.44466085848E+00 -0.79298458882E+00  0.90007758626E+02  0.90000020240E+02 0.  0.
        -12    1    1    2    0    0  0.75261003383E+00 -0.44466085848E+00  0.79298458882E+00  0.11802413737E+01  0.00000000000E+00 0.  1.
         11    1    3    3    0    0 -0.52506748404E+01  0.83625028353E+01 -0.64720478390E+00  0.98954491684E+01  0.51100000000E-03 0. -1.
        -11    1    3    3    0    0 -0.13936257364E+02  0.32638999349E+02 -0.17591580025E+01  0.35533339063E+02  0.51100000000E-03 0.  1.
         12    1    3    3    0    0  0.18434322171E+02 -0.40556841326E+02  0.16133781976E+01  0.44578970395E+02  0.00000000000E+00 0. -1.
</event>
<event>
 7    1  0.2578619E-015  0.9000895E+02  0.7816164E-02  0.1186337E+00
        -11   -1    0    0    0    0  0.00000000000E+00  0.00000000000E+00  0.45593999997E+02  0.45594000000E+02  0.51100000000E-03 0.  1.
         11   -1    0    0    0    0 -0.00000000000E+00 -0.00000000000E+00 -0.45593999997E+02  0.45594000000E+02  0.51100000000E-03 0. -1.
    9900012    2    1    2    0    0  0.10571419628E+01 -0.48667214019E+00 -0.18913054199E+00  0.90008945606E+02  0.90001222880E+02 0.  0.
        -12    1    1    2    0    0 -0.10571419628E+01  0.48667214019E+00  0.18913054199E+00  0.11790543938E+01  0.00000000000E+00 0.  1.
         11    1    3    3    0    0  0.32620552575E+02 -0.97089385944E+01 -0.28660335737E+02  0.44494705120E+02  0.51100000000E-03 0. -1.
        -11    1    3    3    0    0 -0.46439344252E+01  0.68431197079E+01  0.46385609548E+01  0.94821232999E+01  0.51100000000E-03 0.  1.
        -12    1    3    3    0    0 -0.26919476187E+02  0.23791467463E+01  0.23832644241E+02  0.36032117186E+02  0.00000000000E+00 0.  1.
</event>
<event>
 7    1  0.2578619E-015  0.9000780E+02  0.7816164E-02  0.1186339E+00
        -11   -1    0    0    0    0  0.00000000000E+00  0.00000000000E+00  0.45593999997E+02  0.45594000000E+02  0.51100000000E-03 0.  1.
         11   -1    0    0    0    0 -0.00000000000E+00 -0.00000000000E+00 -0.45593999997E+02  0.45594000000E+02  0.51100000000E-03 0. -1.
    9900012    2    1    2    0    0 -0.72459699594E+00  0.87637153606E+00 -0.31592732926E+00  0.90007797495E+02  0.90000059622E+02 0.  0.
        -12    1    1    2    0    0  0.72459699594E+00 -0.87637153606E+00  0.31592732926E+00  0.11802025051E+01  0.00000000000E+00 0.  1.
         11    1    3    3    0    0  0.24883499372E+02  0.25592297080E+02 -0.13310491452E+02  0.38096238578E+02  0.51100000000E-03 0. -1.
        -11    1    3    3    0    0 -0.55104375662E+01  0.84964969475E+01 -0.19526199898E+01  0.10313491535E+02  0.51100000000E-03 0.  1.
        -12    1    3    3    0    0 -0.20097658802E+02 -0.33212422491E+02  0.14947184113E+02  0.41598067382E+02  0.00000000000E+00 0.  1.
</event>
<event>
 7    1  0.2578619E-015  0.9000776E+02  0.7816164E-02  0.1186339E+00
        -11   -1    0    0    0    0  0.00000000000E+00  0.00000000000E+00  0.45593999997E+02  0.45594000000E+02  0.51100000000E-03 0.  1.
         11   -1    0    0    0    0 -0.00000000000E+00 -0.00000000000E+00 -0.45593999997E+02  0.45594000000E+02  0.51100000000E-03 0. -1.
    9900012    2    1    2    0    0  0.10751485079E+01 -0.26721265957E+00  0.40697328370E+00  0.90007756731E+02  0.90000018320E+02 0.  0.
        -12    1    1    2    0    0 -0.10751485079E+01  0.26721265957E+00 -0.40697328370E+00  0.11802432686E+01  0.00000000000E+00 0.  1.
         11    1    3    3    0    0 -0.92656603563E+01  0.39168919139E+02  0.97202374297E+01  0.41407000668E+02  0.51100000000E-03 0. -1.
        -11    1    3    3    0    0 -0.59698812329E+01 -0.44286501229E+01  0.30715630308E+01  0.80428181354E+01  0.51100000000E-03 0.  1.
        -12    1    3    3    0    0  0.16310690097E+02 -0.35007481676E+02 -0.12384827177E+02  0.40557937928E+02  0.00000000000E+00 0.  1.
</event>
<event>
 7    1  0.2578619E-015  0.9000772E+02  0.7816164E-02  0.1186339E+00
        -11   -1    0    0    0    0  0.00000000000E+00  0.00000000000E+00  0.45593999997E+02  0.45594000000E+02  0.51100000000E-03 0. -1.
         11   -1    0    0    0    0 -0.00000000000E+00 -0.00000000000E+00 -0.45593999997E+02  0.45594000000E+02  0.51100000000E-03 0.  1.
    9900012    2    1    2    0    0 -0.79096679672E-01  0.11172492328E+01 -0.37223476063E+00  0.90007720012E+02  0.89999981116E+02 0.  0.
        -12    1    1    2    0    0  0.79096679672E-01 -0.11172492328E+01  0.37223476063E+00  0.11802799879E+01  0.00000000000E+00 0.  1.
         11    1    3    3    0    0  0.16817606044E+01 -0.88236662464E+01  0.37323963119E+01  0.97270852391E+01  0.51100000000E-03 0. -1.
        -11    1    3    3    0    0 -0.29374871439E+02  0.49662752004E+01 -0.29869725857E+02  0.42187053517E+02  0.51100000000E-03 0.  1.
         12    1    3    3    0    0  0.27614014155E+02  0.49746402788E+01  0.25765094784E+02  0.38093581256E+02  0.00000000000E+00 0. -1.
</event>
<event>
 7    1  0.2578619E-015  0.9000781E+02  0.7816164E-02  0.1186339E+00
        -11   -1    0    0    0    0  0.00000000000E+00  0.00000000000E+00  0.45593999997E+02  0.45594000000E+02  0.51100000000E-03 0.  1.
         11   -1    0    0    0    0 -0.00000000000E+00 -0.00000000000E+00 -0.45593999997E+02  0.45594000000E+02  0.51100000000E-03 0. -1.
    9900012    2    1    2    0    0  0.94383012191E+00 -0.11374047142E+00  0.69935285610E+00  0.90007810773E+02  0.90000073075E+02 0.  0.
        -12    1    1    2    0    0 -0.94383012191E+00  0.11374047142E+00 -0.69935285610E+00  0.11801892269E+01  0.00000000000E+00 0.  1.
         11    1    3    3    0    0 -0.42419613352E+01  0.74519599921E+01  0.42697700616E+01  0.95789811741E+01  0.51100000000E-03 0. -1.
        -11    1    3    3    0    0  0.40786097801E+01 -0.31442664310E+02  0.26984989043E+02  0.41634911199E+02  0.51100000000E-03 0.  1.
         12    1    3    3    0    0  0.11071816770E+01  0.23876963847E+02 -0.30555406248E+02  0.38793918400E+02  0.00000000000E+00 0. -1.
</event>
<event>
 7    1  0.2578619E-015  0.9000775E+02  0.7816164E-02  0.1186339E+00
        -11   -1    0    0    0    0  0.00000000000E+00  0.00000000000E+00  0.45593999997E+02  0.45594000000E+02  0.51100000000E-03 0. -1.
         11   -1    0    0    0    0 -0.00000000000E+00 -0.00000000000E+00 -0.45593999997E+02  0.45594000000E+02  0.51100000000E-03 0.  1.
    9900012    2    1    2    0    0  0.11163191673E+01 -0.14366830092E+00  0.35522270710E+00  0.90007749079E+02  0.90000010567E+02 0.  0.
        -12    1    1    2    0    0 -0.11163191673E+01  0.14366830092E+00 -0.35522270710E+00  0.11802509206E+01  0.00000000000E+00 0.  1.
         11    1    3    3    0    0  0.92902850359E+01 -0.16762740060E+01 -0.49821288508E+01  0.10674310223E+02  0.51100000000E-03 0. -1.
        -11    1    3    3    0    0 -0.19493260276E+02 -0.11442274808E+02 -0.31441781996E+02  0.38723358640E+02  0.51100000000E-03 0.  1.
         12    1    3    3    0    0  0.11319294407E+02  0.12974880513E+02  0.36779133554E+02  0.40610080217E+02  0.00000000000E+00 0. -1.
</event>
<event>
 7    1  0.2578619E-015  0.9000778E+02  0.7816164E-02  0.1186339E+00
        -11   -1    0    0    0    0  0.00000000000E+00  0.00000000000E+00  0.45593999997E+02  0.45594000000E+02  0.51100000000E-03 0. -1.
         11   -1    0    0    0    0 -0.00000000000E+00 -0.00000000000E+00 -0.45593999997E+02  0.45594000000E+02  0.51100000000E-03 0.  1.
    9900012    2    1    2    0    0  0.92841929761E+00 -0.61389852995E+00  0.39254842251E+00  0.90007776266E+02  0.90000038113E+02 0.  0.
        -12    1    1    2    0    0 -0.92841929761E+00  0.61389852995E+00 -0.39254842251E+00  0.11802237336E+01  0.00000000000E+00 0.  1.
         11    1    3    3    0    0 -0.49074387653E+01 -0.25294531724E+02  0.25383677082E+02  0.36169425664E+02  0.51100000000E-03 0. -1.
        -11    1    3    3    0    0  0.23804117373E+01 -0.71222326632E+01  0.57606515914E+01  0.94645478057E+01  0.51100000000E-03 0.  1.
        -12    1    3    3    0    0  0.34554463255E+01  0.31802865857E+02 -0.30751780251E+02  0.44373802797E+02  0.00000000000E+00 0.  1.
</event>
<event>
 7    1  0.2578619E-015  0.9000769E+02  0.7816164E-02  0.1186339E+00
        -11   -1    0    0    0    0  0.00000000000E+00  0.00000000000E+00  0.45593999997E+02  0.45594000000E+02  0.51100000000E-03 0. -1.
         11   -1    0    0    0    0 -0.00000000000E+00 -0.00000000000E+00 -0.45593999997E+02  0.45594000000E+02  0.51100000000E-03 0.  1.
    9900012    2    1    2    0    0 -0.92984872550E-02  0.78155060309E-01  0.11776779142E+01  0.90007694978E+02  0.89999955752E+02 0.  0.
        -12    1    1    2    0    0  0.92984872550E-02 -0.78155060309E-01 -0.11776779142E+01  0.11803050220E+01  0.00000000000E+00 0.  1.
         11    1    3    3    0    0  0.12714768321E+02 -0.28314446499E+02  0.15074852714E+02  0.34505425640E+02  0.51100000000E-03 0. -1.
        -11    1    3    3    0    0  0.19840190610E+01 -0.80168795393E+01  0.71726743331E+01  0.10938644639E+02  0.51100000000E-03 0.  1.
        -12    1    3    3    0    0 -0.14708085869E+02  0.36409481099E+02 -0.21069849133E+02  0.44563624699E+02  0.00000000000E+00 0.  1.
</event>
<event>
 7    1  0.2578619E-015  0.9000800E+02  0.7816164E-02  0.1186339E+00
        -11   -1    0    0    0    0  0.00000000000E+00  0.00000000000E+00  0.45593999997E+02  0.45594000000E+02  0.51100000000E-03 0. -1.
         11   -1    0    0    0    0 -0.00000000000E+00 -0.00000000000E+00 -0.45593999997E+02  0.45594000000E+02  0.51100000000E-03 0.  1.
    9900012    2    1    2    0    0  0.11570141285E+01  0.55036806945E-01 -0.22511753862E+00  0.90008004809E+02  0.90000269672E+02 0.  0.
        -12    1    1    2    0    0 -0.11570141285E+01 -0.55036806945E-01  0.22511753862E+00  0.11799951906E+01  0.00000000000E+00 0.  1.
         11    1    3    3    0    0 -0.15553420937E+02  0.21123310476E+01 -0.50440854998E+01  0.16486771791E+02  0.51100000000E-03 0. -1.
        -11    1    3    3    0    0 -0.21676730909E+02  0.10879868347E+02 -0.14903143803E+02  0.28466750669E+02  0.51100000000E-03 0.  1.
         12    1    3    3    0    0  0.38387165975E+02 -0.12937162588E+02  0.19722111764E+02  0.45054482350E+02  0.00000000000E+00 0. -1.
</event>
<event>
 7    1  0.2578619E-015  0.9000777E+02  0.7816164E-02  0.1186339E+00
        -11   -1    0    0    0    0  0.00000000000E+00  0.00000000000E+00  0.45593999997E+02  0.45594000000E+02  0.51100000000E-03 0.  1.
         11   -1    0    0    0    0 -0.00000000000E+00 -0.00000000000E+00 -0.45593999997E+02  0.45594000000E+02  0.51100000000E-03 0. -1.
    9900012    2    1    2    0    0  0.54820218327E-01 -0.89991805300E+00 -0.76162723586E+00  0.90007773833E+02  0.90000035648E+02 0.  0.
        -12    1    1    2    0    0 -0.54820218327E-01  0.89991805300E+00  0.76162723586E+00  0.11802261668E+01  0.00000000000E+00 0.  1.
         11    1    3    3    0    0 -0.68856992215E+01  0.46492223221E+01 -0.23612713923E+01  0.86373447782E+01  0.51100000000E-03 0. -1.
        -11    1    3    3    0    0 -0.14457828147E+01  0.34787643898E+02  0.15190716311E+02  0.37987212562E+02  0.51100000000E-03 0.  1.
         12    1    3    3    0    0  0.83863022545E+01 -0.40336784273E+02 -0.13591072155E+02  0.43383216493E+02  0.00000000000E+00 0. -1.
</event>
<event>
 7    1  0.2578619E-015  0.9000709E+02  0.7816164E-02  0.1186340E+00
        -11   -1    0    0    0    0  0.00000000000E+00  0.00000000000E+00  0.45593999997E+02  0.45594000000E+02  0.51100000000E-03 0.  1.
         11   -1    0    0    0    0 -0.00000000000E+00 -0.00000000000E+00 -0.45593999997E+02  0.45594000000E+02  0.51100000000E-03 0. -1.
    9900012    2    1    2    0    0  0.56398224501E+00  0.86926479976E+00 -0.56643772477E+00  0.90007089774E+02  0.89999342557E+02 0.  0.
        -12    1    1    2    0    0 -0.56398224501E+00 -0.86926479976E+00  0.56643772477E+00  0.11809102256E+01  0.00000000000E+00 0.  1.
         11    1    3    3    0    0  0.60825022205E+01  0.15859139250E+02  0.15191183881E+00  0.16986235854E+02  0.51100000000E-03 0. -1.
        -11    1    3    3    0    0 -0.26403313238E+02  0.88887499510E+01  0.20731353849E+02  0.34726558400E+02  0.51100000000E-03 0.  1.
         12    1    3    3    0    0  0.20884793263E+02 -0.23878624401E+02 -0.21449703412E+02  0.38294295520E+02  0.00000000000E+00 0. -1.
</event>
<event>
 7    1  0.2578619E-015  0.9000792E+02  0.7816164E-02  0.1186339E+00
        -11   -1    0    0    0    0  0.00000000000E+00  0.00000000000E+00  0.45593999997E+02  0.45594000000E+02  0.51100000000E-03 0.  1.
         11   -1    0    0    0    0 -0.00000000000E+00 -0.00000000000E+00 -0.45593999997E+02  0.45594000000E+02  0.51100000000E-03 0. -1.
    9900012    2    1    2    0    0 -0.35008840653E+00 -0.32738621126E+00 -0.10783544350E+01  0.90007918684E+02  0.90000182411E+02 0.  0.
        -12    1    1    2    0    0  0.35008840653E+00  0.32738621126E+00  0.10783544350E+01  0.11800813155E+01  0.00000000000E+00 0.  1.
         11    1    3    3    0    0 -0.18522605575E+01  0.95588469872E+01 -0.11208875649E+01  0.98009598556E+01  0.51100000000E-03 0. -1.
        -11    1    3    3    0    0 -0.23353177471E+02 -0.22922899213E+02  0.26139561270E+02  0.41882059046E+02  0.51100000000E-03 0.  1.
         12    1    3    3    0    0  0.24855349622E+02  0.13036666015E+02 -0.26097028140E+02  0.38324899783E+02  0.00000000000E+00 0. -1.
</event>
<event>
 7    1  0.2578619E-015  0.9000777E+02  0.7816164E-02  0.1186339E+00
        -11   -1    0    0    0    0  0.00000000000E+00  0.00000000000E+00  0.45593999997E+02  0.45594000000E+02  0.51100000000E-03 0. -1.
         11   -1    0    0    0    0 -0.00000000000E+00 -0.00000000000E+00 -0.45593999997E+02  0.45594000000E+02  0.51100000000E-03 0.  1.
    9900012    2    1    2    0    0 -0.27495236030E+00 -0.63412093499E-01  0.11460011457E+01  0.90007771836E+02  0.90000033624E+02 0.  0.
        -12    1    1    2    0    0  0.27495236030E+00  0.63412093499E-01 -0.11460011457E+01  0.11802281644E+01  0.00000000000E+00 0.  1.
         11    1    3    3    0    0  0.32307971398E+02 -0.26405000776E+02  0.54375540914E+01  0.42078451452E+02  0.51100000000E-03 0. -1.
        -11    1    3    3    0    0 -0.12759782241E+01  0.61706757176E+01  0.66020522559E+01  0.91264699359E+01  0.51100000000E-03 0.  1.
        -12    1    3    3    0    0 -0.31306945535E+02  0.20170912965E+02 -0.10893605202E+02  0.38802850447E+02  0.00000000000E+00 0.  1.
</event>
<event>
 7    1  0.2578619E-015  0.9000776E+02  0.7816164E-02  0.1186339E+00
        -11   -1    0    0    0    0  0.00000000000E+00  0.00000000000E+00  0.45593999997E+02  0.45594000000E+02  0.51100000000E-03 0. -1.
         11   -1    0    0    0    0 -0.00000000000E+00 -0.00000000000E+00 -0.45593999997E+02  0.45594000000E+02  0.51100000000E-03 0.  1.
    9900012    2    1    2    0    0 -0.11742644919E+01  0.11379348994E+00 -0.33396635867E-01  0.90007762147E+02  0.90000023807E+02 0.  0.
        -12    1    1    2    0    0  0.11742644919E+01 -0.11379348994E+00  0.33396635867E-01  0.11802378534E+01  0.00000000000E+00 0.  1.
         11    1    3    3    0    0 -0.28176856412E+02 -0.29569974210E+02  0.65230100987E+01  0.41362643449E+02  0.51100000000E-03 0. -1.
        -11    1    3    3    0    0 -0.51431450228E+01  0.76704522846E+01 -0.15444168227E+01  0.93633862763E+01  0.51100000000E-03 0.  1.
        -12    1    3    3    0    0  0.32145736943E+02  0.22013315416E+02 -0.50119899119E+01  0.39281732422E+02  0.00000000000E+00 0.  1.
</event>
<event>
 7    1  0.2578619E-015  0.9000786E+02  0.7816164E-02  0.1186339E+00
        -11   -1    0    0    0    0  0.00000000000E+00  0.00000000000E+00  0.45593999997E+02  0.45594000000E+02  0.51100000000E-03 0.  1.
         11   -1    0    0    0    0 -0.00000000000E+00 -0.00000000000E+00 -0.45593999997E+02  0.45594000000E+02  0.51100000000E-03 0. -1.
    9900012    2    1    2    0    0  0.14542225136E+00 -0.40138919398E-01 -0.11704591631E+01  0.90007858730E+02  0.90000121665E+02 0.  0.
        -12    1    1    2    0    0 -0.14542225136E+00  0.40138919398E-01  0.11704591631E+01  0.11801412697E+01  0.00000000000E+00 0.  1.
         11    1    3    3    0    0 -0.12311519896E+02 -0.11109484704E+02 -0.65527206539E+01  0.17830656768E+02  0.51100000000E-03 0. -1.
        -11    1    3    3    0    0 -0.14278355793E+02  0.29667643092E+02  0.17671922204E+02  0.37367597266E+02  0.51100000000E-03 0.  1.
         12    1    3    3    0    0  0.26735297940E+02 -0.18598297307E+02 -0.12289660714E+02  0.34809604696E+02  0.00000000000E+00 0. -1.
</event>
<event>
 7    1  0.2578619E-015  0.9000768E+02  0.7816164E-02  0.1186339E+00
        -11   -1    0    0    0    0  0.00000000000E+00  0.00000000000E+00  0.45593999997E+02  0.45594000000E+02  0.51100000000E-03 0. -1.
         11   -1    0    0    0    0 -0.00000000000E+00 -0.00000000000E+00 -0.45593999997E+02  0.45594000000E+02  0.51100000000E-03 0.  1.
    9900012    2    1    2    0    0 -0.20924712647E+00 -0.59419107369E+00  0.99814681886E+00  0.90007684591E+02  0.89999945228E+02 0.  0.
        -12    1    1    2    0    0  0.20924712647E+00  0.59419107369E+00 -0.99814681886E+00  0.11803154087E+01  0.00000000000E+00 0.  1.
         11    1    3    3    0    0  0.14314009350E+02 -0.31152304946E+02  0.27552312996E+02  0.43982802535E+02  0.51100000000E-03 0. -1.
        -11    1    3    3    0    0 -0.81569468451E+01  0.44809217074E+01 -0.17367761036E+01  0.94673561609E+01  0.51100000000E-03 0.  1.
        -12    1    3    3    0    0 -0.63663096314E+01  0.26077192165E+02 -0.24817390074E+02  0.36557525896E+02  0.00000000000E+00 0.  1.
</event>
<event>
 7    1  0.2578619E-015  0.9000777E+02  0.7816164E-02  0.1186339E+00
        -11   -1    0    0    0    0  0.00000000000E+00  0.00000000000E+00  0.45593999997E+02  0.45594000000E+02  0.51100000000E-03 0. -1.
         11   -1    0    0    0    0 -0.00000000000E+00 -0.00000000000E+00 -0.45593999997E+02  0.45594000000E+02  0.51100000000E-03 0.  1.
    9900012    2    1    2    0    0  0.22297173425E-01  0.10576256355E+01  0.52331877393E+00  0.90007774730E+02  0.90000036556E+02 0.  0.
        -12    1    1    2    0    0 -0.22297173425E-01 -0.10576256355E+01 -0.52331877393E+00  0.11802252700E+01  0.00000000000E+00 0.  1.
         11    1    3    3    0    0 -0.18386516493E+01  0.97044129983E+01 -0.27610798021E+01  0.10255721986E+02  0.51100000000E-03 0. -1.
        -11    1    3    3    0    0  0.26503887977E+02  0.61241903533E+01 -0.26776162062E+02  0.38169682215E+02  0.51100000000E-03 0.  1.
         12    1    3    3    0    0 -0.24642939154E+02 -0.14770977716E+02  0.30060560638E+02  0.41582370528E+02  0.00000000000E+00 0. -1.
</event>
<event>
 7    1  0.2578619E-015  0.9000767E+02  0.7816164E-02  0.1186339E+00
        -11   -1    0    0    0    0  0.00000000000E+00  0.00000000000E+00  0.45593999997E+02  0.45594000000E+02  0.51100000000E-03 0. -1.
         11   -1    0    0    0    0 -0.00000000000E+00 -0.00000000000E+00 -0.45593999997E+02  0.45594000000E+02  0.51100000000E-03 0.  1.
    9900012    2    1    2    0    0 -0.63561264219E+00  0.99361427531E+00  0.43675534829E-01  0.90007669406E+02  0.89999929842E+02 0.  0.
        -12    1    1    2    0    0  0.63561264219E+00 -0.99361427531E+00 -0.43675534829E-01  0.11803305941E+01  0.00000000000E+00 0.  1.
         11    1    3    3    0    0  0.95342493329E+01  0.31006312044E+02 -0.24229017706E+02  0.40488746537E+02  0.51100000000E-03 0. -1.
        -11    1    3    3    0    0  0.70268846531E+01 -0.50065897709E+01 -0.25700464018E+01  0.90026767037E+01  0.51100000000E-03 0.  1.
        -12    1    3    3    0    0 -0.17196746628E+02 -0.25006107997E+02  0.26842739643E+02  0.40516246165E+02  0.00000000000E+00 0.  1.
</event>
<event>
 7    1  0.2578619E-015  0.9000777E+02  0.7816164E-02  0.1186339E+00
        -11   -1    0    0    0    0  0.00000000000E+00  0.00000000000E+00  0.45593999997E+02  0.45594000000E+02  0.51100000000E-03 0.  1.
         11   -1    0    0    0    0 -0.00000000000E+00 -0.00000000000E+00 -0.45593999997E+02  0.45594000000E+02  0.51100000000E-03 0. -1.
    9900012    2    1    2    0    0  0.99538508496E+00 -0.17483661832E+00  0.60958331650E+00  0.90007766493E+02  0.90000028211E+02 0.  0.
        -12    1    1    2    0    0 -0.99538508496E+00  0.17483661832E+00 -0.60958331650E+00  0.11802335066E+01  0.00000000000E+00 0.  1.
         11    1    3    3    0    0  0.10028541013E+02 -0.74783879860E+01 -0.38298036983E+02  0.40289422417E+02  0.51100000000E-03 0. -1.
        -11    1    3    3    0    0  0.63317812177E+01 -0.59924805322E+01  0.46305254612E+01  0.98713242590E+01  0.51100000000E-03 0.  1.
        -12    1    3    3    0    0 -0.15364937145E+02  0.13296031900E+02  0.34277094838E+02  0.39847019817E+02  0.00000000000E+00 0.  1.
</event>
<event>
 7    1  0.2578619E-015  0.9000770E+02  0.7816164E-02  0.1186339E+00
        -11   -1    0    0    0    0  0.00000000000E+00  0.00000000000E+00  0.45593999997E+02  0.45594000000E+02  0.51100000000E-03 0. -1.
         11   -1    0    0    0    0 -0.00000000000E+00 -0.00000000000E+00 -0.45593999997E+02  0.45594000000E+02  0.51100000000E-03 0.  1.
    9900012    2    1    2    0    0  0.10343910350E+01 -0.22749503791E+00  0.52095271776E+00  0.90007698962E+02  0.89999959789E+02 0.  0.
        -12    1    1    2    0    0 -0.10343910350E+01  0.22749503791E+00 -0.52095271776E+00  0.11803010378E+01  0.00000000000E+00 0.  1.
         11    1    3    3    0    0  0.12205108798E+02  0.12295060537E+02  0.33226451899E+02  0.37471726681E+02  0.51100000000E-03 0. -1.
        -11    1    3    3    0    0 -0.23855764480E+01 -0.83878089239E+01  0.72977974440E+01  0.11371198764E+02  0.51100000000E-03 0.  1.
        -12    1    3    3    0    0 -0.87851413151E+01 -0.41347466510E+01 -0.40003296626E+02  0.41164773517E+02  0.00000000000E+00 0.  1.
</event>
<event>
 7    1  0.2578619E-015  0.9000768E+02  0.7816164E-02  0.1186339E+00
        -11   -1    0    0    0    0  0.00000000000E+00  0.00000000000E+00  0.45593999997E+02  0.45594000000E+02  0.51100000000E-03 0.  1.
         11   -1    0    0    0    0 -0.00000000000E+00 -0.00000000000E+00 -0.45593999997E+02  0.45594000000E+02  0.51100000000E-03 0. -1.
    9900012    2    1    2    0    0  0.10450349737E+01 -0.26240383825E+00 -0.48187706704E+00  0.90007678273E+02  0.89999938827E+02 0.  0.
        -12    1    1    2    0    0 -0.10450349737E+01  0.26240383825E+00  0.48187706704E+00  0.11803217266E+01  0.00000000000E+00 0.  1.
         11    1    3    3    0    0  0.33319267229E+02  0.64125401347E+01 -0.12665184167E+02  0.36217414732E+02  0.51100000000E-03 0. -1.
        -11    1    3    3    0    0  0.47866648868E+01  0.81317586446E+01 -0.45976895522E+01  0.10496495076E+02  0.51100000000E-03 0.  1.
        -12    1    3    3    0    0 -0.37060897142E+02 -0.14806702618E+02  0.16780996652E+02  0.43293768466E+02  0.00000000000E+00 0.  1.
</event>
<event>
 7    1  0.2578619E-015  0.9000787E+02  0.7816164E-02  0.1186339E+00
        -11   -1    0    0    0    0  0.00000000000E+00  0.00000000000E+00  0.45593999997E+02  0.45594000000E+02  0.51100000000E-03 0. -1.
         11   -1    0    0    0    0 -0.00000000000E+00 -0.00000000000E+00 -0.45593999997E+02  0.45594000000E+02  0.51100000000E-03 0.  1.
    9900012    2    1    2    0    0  0.42255381130E+00  0.10081578458E+01 -0.44472655110E+00  0.90007866249E+02  0.90000129283E+02 0.  0.
        -12    1    1    2    0    0 -0.42255381130E+00 -0.10081578458E+01  0.44472655110E+00  0.11801337512E+01  0.00000000000E+00 0.  1.
         11    1    3    3    0    0  0.68105994589E+01 -0.43949949982E+01 -0.51569332571E+01  0.96069874000E+01  0.51100000000E-03 0. -1.
        -11    1    3    3    0    0  0.29452143523E+01  0.41948151802E+02  0.69260463373E+01  0.42617975612E+02  0.51100000000E-03 0.  1.
         12    1    3    3    0    0 -0.93332599999E+01 -0.36544998958E+02 -0.22138396312E+01  0.37782903236E+02  0.00000000000E+00 0. -1.
</event>
<event>
 7    1  0.2578619E-015  0.9000792E+02  0.7816164E-02  0.1186339E+00
        -11   -1    0    0    0    0  0.00000000000E+00  0.00000000000E+00  0.45593999997E+02  0.45594000000E+02  0.51100000000E-03 0. -1.
         11   -1    0    0    0    0 -0.00000000000E+00 -0.00000000000E+00 -0.45593999997E+02  0.45594000000E+02  0.51100000000E-03 0.  1.
    9900012    2    1    2    0    0  0.21149162733E-01 -0.28062581807E+00  0.11460338704E+01  0.90007918745E+02  0.90000182472E+02 0.  0.
        -12    1    1    2    0    0 -0.21149162733E-01  0.28062581807E+00 -0.11460338704E+01  0.11800812553E+01  0.00000000000E+00 0.  1.
         11    1    3    3    0    0 -0.75508069921E+01 -0.21970960226E+02  0.30017309094E+02  0.37957563475E+02  0.51100000000E-03 0. -1.
        -11    1    3    3    0    0 -0.71565594487E+01 -0.20198645712E+01  0.43850511027E+01  0.86327787799E+01  0.51100000000E-03 0.  1.
        -12    1    3    3    0    0  0.14728515604E+02  0.23710198979E+02 -0.33256326326E+02  0.43417576489E+02  0.00000000000E+00 0.  1.
</event>
<event>
 7    1  0.2578619E-015  0.9000774E+02  0.7816164E-02  0.1186339E+00
        -11   -1    0    0    0    0  0.00000000000E+00  0.00000000000E+00  0.45593999997E+02  0.45594000000E+02  0.51100000000E-03 0. -1.
         11   -1    0    0    0    0 -0.00000000000E+00 -0.00000000000E+00 -0.45593999997E+02  0.45594000000E+02  0.51100000000E-03 0.  1.
    9900012    2    1    2    0    0  0.63791538704E+00 -0.76009555271E+00  0.63900951968E+00  0.90007739666E+02  0.90000001029E+02 0.  0.
        -12    1    1    2    0    0 -0.63791538704E+00  0.76009555271E+00 -0.63900951968E+00  0.11802603342E+01  0.00000000000E+00 0.  1.
         11    1    3    3    0    0  0.11264968223E+02 -0.28047799299E+01 -0.16374157521E+02  0.20071854281E+02  0.51100000000E-03 0. -1.
        -11    1    3    3    0    0  0.27592148183E+02 -0.18460464777E+01 -0.63103994511E+00  0.27661032892E+02  0.51100000000E-03 0.  1.
         12    1    3    3    0    0 -0.38219201019E+02  0.38907308549E+01  0.17644206985E+02  0.42274852493E+02  0.00000000000E+00 0. -1.
</event>
<event>
 7    1  0.2578619E-015  0.9000780E+02  0.7816164E-02  0.1186339E+00
        -11   -1    0    0    0    0  0.00000000000E+00  0.00000000000E+00  0.45593999997E+02  0.45594000000E+02  0.51100000000E-03 0.  1.
         11   -1    0    0    0    0 -0.00000000000E+00 -0.00000000000E+00 -0.45593999997E+02  0.45594000000E+02  0.51100000000E-03 0. -1.
    9900012    2    1    2    0    0 -0.29868566491E+00  0.71365419058E-01 -0.11395452260E+01  0.90007801088E+02  0.90000063262E+02 0.  0.
        -12    1    1    2    0    0  0.29868566491E+00 -0.71365419058E-01  0.11395452260E+01  0.11801989119E+01  0.00000000000E+00 0.  1.
         11    1    3    3    0    0 -0.28489777936E+02  0.23535325409E+02 -0.70452030948E+01  0.37619328488E+02  0.51100000000E-03 0. -1.
        -11    1    3    3    0    0 -0.17178374817E+01  0.55663442512E+01 -0.66661349438E+01  0.88528249326E+01  0.51100000000E-03 0.  1.
        -12    1    3    3    0    0  0.29908929753E+02 -0.29030304241E+02  0.12571792813E+02  0.43535647668E+02  0.00000000000E+00 0.  1.
</event>
<event>
 7    1  0.2578619E-015  0.9000755E+02  0.7816164E-02  0.1186339E+00
        -11   -1    0    0    0    0  0.00000000000E+00  0.00000000000E+00  0.45593999997E+02  0.45594000000E+02  0.51100000000E-03 0.  1.
         11   -1    0    0    0    0 -0.00000000000E+00 -0.00000000000E+00 -0.45593999997E+02  0.45594000000E+02  0.51100000000E-03 0. -1.
    9900012    2    1    2    0    0  0.11077098605E+01 -0.53303398832E-01  0.40448275579E+00  0.90007547253E+02  0.89999806077E+02 0.  0.
        -12    1    1    2    0    0 -0.11077098605E+01  0.53303398832E-01 -0.40448275579E+00  0.11804527467E+01  0.00000000000E+00 0.  1.
         11    1    3    3    0    0 -0.70890244131E+01  0.14845807081E+02 -0.87799764912E+01  0.18647794574E+02  0.51100000000E-03 0. -1.
        -11    1    3    3    0    0 -0.96058734331E+01  0.20032581720E+02  0.20836047133E+02  0.30458463441E+02  0.51100000000E-03 0.  1.
         12    1    3    3    0    0  0.17802607707E+02 -0.34931692200E+02 -0.11651587886E+02  0.40901289239E+02  0.00000000000E+00 0. -1.
</event>
<event>
 7    1  0.2578619E-015  0.9000775E+02  0.7816164E-02  0.1186339E+00
        -11   -1    0    0    0    0  0.00000000000E+00  0.00000000000E+00  0.45593999997E+02  0.45594000000E+02  0.51100000000E-03 0.  1.
         11   -1    0    0    0    0 -0.00000000000E+00 -0.00000000000E+00 -0.45593999997E+02  0.45594000000E+02  0.51100000000E-03 0. -1.
    9900012    2    1    2    0    0  0.83903396753E+00  0.19562056791E+00 -0.80669027861E+00  0.90007748073E+02  0.90000009548E+02 0.  0.
        -12    1    1    2    0    0 -0.83903396753E+00 -0.19562056791E+00  0.80669027861E+00  0.11802519269E+01  0.00000000000E+00 0.  1.
         11    1    3    3    0    0  0.33340159471E+02 -0.10412485447E+02  0.14758239368E+02  0.37918224065E+02  0.51100000000E-03 0. -1.
        -11    1    3    3    0    0  0.36403583838E+01  0.63866248834E+01  0.62629449203E+01  0.96574150734E+01  0.51100000000E-03 0.  1.
        -12    1    3    3    0    0 -0.36141483887E+02  0.42214811318E+01 -0.21827874567E+02  0.42432108935E+02  0.00000000000E+00 0.  1.
</event>
<event>
 7    1  0.2578619E-015  0.9000773E+02  0.7816164E-02  0.1186339E+00
        -11   -1    0    0    0    0  0.00000000000E+00  0.00000000000E+00  0.45593999997E+02  0.45594000000E+02  0.51100000000E-03 0. -1.
         11   -1    0    0    0    0 -0.00000000000E+00 -0.00000000000E+00 -0.45593999997E+02  0.45594000000E+02  0.51100000000E-03 0.  1.
    9900012    2    1    2    0    0 -0.67814329741E+00 -0.49174226522E-01 -0.96474674324E+00  0.90007731931E+02  0.89999993192E+02 0.  0.
        -12    1    1    2    0    0  0.67814329741E+00  0.49174226522E-01  0.96474674324E+00  0.11802680691E+01  0.00000000000E+00 0.  1.
         11    1    3    3    0    0 -0.60799690864E+01  0.59781207765E+01  0.20009236803E+01  0.87582902410E+01  0.51100000000E-03 0. -1.
        -11    1    3    3    0    0 -0.15537019851E+02  0.30026634027E+02  0.13525340319E+02  0.36413356998E+02  0.51100000000E-03 0.  1.
         12    1    3    3    0    0  0.20938845640E+02 -0.36053929030E+02 -0.16491010743E+02  0.44836084692E+02  0.00000000000E+00 0. -1.
</event>
<event>
 7    1  0.2578619E-015  0.9000773E+02  0.7816164E-02  0.1186339E+00
        -11   -1    0    0    0    0  0.00000000000E+00  0.00000000000E+00  0.45593999997E+02  0.45594000000E+02  0.51100000000E-03 0.  1.
         11   -1    0    0    0    0 -0.00000000000E+00 -0.00000000000E+00 -0.45593999997E+02  0.45594000000E+02  0.51100000000E-03 0. -1.
    9900012    2    1    2    0    0 -0.89389895343E+00  0.76395383817E+00 -0.10174111348E+00  0.90007732208E+02  0.89999993474E+02 0.  0.
        -12    1    1    2    0    0  0.89389895343E+00 -0.76395383817E+00  0.10174111348E+00  0.11802677916E+01  0.00000000000E+00 0.  1.
         11    1    3    3    0    0  0.82480823749E-01  0.78287340038E+01  0.54939285799E+01  0.95644723164E+01  0.51100000000E-03 0. -1.
        -11    1    3    3    0    0 -0.10878868868E+02  0.68121043734E+01  0.34534185648E+02  0.36842428428E+02  0.51100000000E-03 0.  1.
         12    1    3    3    0    0  0.99024890903E+01 -0.13876884539E+02 -0.40129855341E+02  0.43600831464E+02  0.00000000000E+00 0. -1.
</event>
<event>
 7    1  0.2578619E-015  0.9000778E+02  0.7816164E-02  0.1186339E+00
        -11   -1    0    0    0    0  0.00000000000E+00  0.00000000000E+00  0.45593999997E+02  0.45594000000E+02  0.51100000000E-03 0.  1.
         11   -1    0    0    0    0 -0.00000000000E+00 -0.00000000000E+00 -0.45593999997E+02  0.45594000000E+02  0.51100000000E-03 0. -1.
    9900012    2    1    2    0    0 -0.14476945872E+00  0.59788690018E+00 -0.10072151948E+01  0.90007784176E+02  0.90000046128E+02 0.  0.
        -12    1    1    2    0    0  0.14476945872E+00 -0.59788690018E+00  0.10072151948E+01  0.11802158236E+01  0.00000000000E+00 0.  1.
         11    1    3    3    0    0  0.11344407114E+02 -0.55362184369E+01 -0.37588494196E+02  0.39651484002E+02  0.51100000000E-03 0. -1.
        -11    1    3    3    0    0 -0.47130040910E+01 -0.61529758555E+01 -0.30387058089E+01  0.83249776392E+01  0.51100000000E-03 0.  1.
        -12    1    3    3    0    0 -0.67761724817E+01  0.12287081193E+02  0.39619984810E+02  0.42031322536E+02  0.00000000000E+00 0.  1.
</event>
<event>
 7    1  0.2578619E-015  0.9000782E+02  0.7816164E-02  0.1186339E+00
        -11   -1    0    0    0    0  0.00000000000E+00  0.00000000000E+00  0.45593999997E+02  0.45594000000E+02  0.51100000000E-03 0. -1.
         11   -1    0    0    0    0 -0.00000000000E+00 -0.00000000000E+00 -0.45593999997E+02  0.45594000000E+02  0.51100000000E-03 0.  1.
    9900012    2    1    2    0    0  0.10643693653E+01  0.74862461612E-01 -0.50432595886E+00  0.90007817299E+02  0.90000079688E+02 0.  0.
        -12    1    1    2    0    0 -0.10643693653E+01 -0.74862461612E-01  0.50432595886E+00  0.11801827006E+01  0.00000000000E+00 0.  1.
         11    1    3    3    0    0  0.16458455096E+02 -0.32200981090E+02  0.17195081194E+02  0.40043161024E+02  0.51100000000E-03 0. -1.
        -11    1    3    3    0    0 -0.71406496480E+01 -0.48655772050E+01 -0.25166914277E+01  0.89998030499E+01  0.51100000000E-03 0.  1.
        -12    1    3    3    0    0 -0.82534360829E+01  0.37141420756E+02 -0.15182715725E+02  0.40964853225E+02  0.00000000000E+00 0.  1.
</event>
<event>
 7    1  0.2578619E-015  0.9000775E+02  0.7816164E-02  0.1186339E+00
        -11   -1    0    0    0    0  0.00000000000E+00  0.00000000000E+00  0.45593999997E+02  0.45594000000E+02  0.51100000000E-03 0.  1.
         11   -1    0    0    0    0 -0.00000000000E+00 -0.00000000000E+00 -0.45593999997E+02  0.45594000000E+02  0.51100000000E-03 0. -1.
    9900012    2    1    2    0    0  0.30764685757E+00 -0.56279652015E+00 -0.99076002972E+00  0.90007749201E+02  0.90000010690E+02 0.  0.
        -12    1    1    2    0    0 -0.30764685757E+00  0.56279652015E+00  0.99076002972E+00  0.11802507990E+01  0.00000000000E+00 0.  1.
         11    1    3    3    0    0 -0.38426961411E+01 -0.27457656598E+01 -0.22035195994E+01  0.52116256175E+01  0.51100000000E-03 0. -1.
        -11    1    3    3    0    0  0.12393066424E+01 -0.39589916071E+02 -0.11125318941E+02  0.41142071620E+02  0.51100000000E-03 0.  1.
         12    1    3    3    0    0  0.29110363563E+01  0.41772885210E+02  0.12338078511E+02  0.43654051963E+02  0.00000000000E+00 0. -1.
</event>
<event>
 7    1  0.2578619E-015  0.9000774E+02  0.7816164E-02  0.1186339E+00
        -11   -1    0    0    0    0  0.00000000000E+00  0.00000000000E+00  0.45593999997E+02  0.45594000000E+02  0.51100000000E-03 0.  1.
         11   -1    0    0    0    0 -0.00000000000E+00 -0.00000000000E+00 -0.45593999997E+02  0.45594000000E+02  0.51100000000E-03 0. -1.
    9900012    2    1    2    0    0  0.68306762737E+00  0.48233489045E+00 -0.83293273169E+00  0.90007743559E+02  0.90000004974E+02 0.  0.
        -12    1    1    2    0    0 -0.68306762737E+00 -0.48233489045E+00  0.83293273169E+00  0.11802564406E+01  0.00000000000E+00 0.  1.
         11    1    3    3    0    0  0.65553609812E+01 -0.28273034193E+01 -0.54061568991E+01  0.89550508038E+01  0.51100000000E-03 0. -1.
        -11    1    3    3    0    0  0.10377592344E+02  0.25838700889E+02  0.31723259955E+02  0.42210165943E+02  0.51100000000E-03 0.  1.
         12    1    3    3    0    0 -0.16249885698E+02 -0.22529062579E+02 -0.27150035788E+02  0.38842526812E+02  0.00000000000E+00 0. -1.
</event>
<event>
 7    1  0.2578619E-015  0.9000755E+02  0.7816164E-02  0.1186339E+00
        -11   -1    0    0    0    0  0.00000000000E+00  0.00000000000E+00  0.45593999997E+02  0.45594000000E+02  0.51100000000E-03 0. -1.
         11   -1    0    0    0    0 -0.00000000000E+00 -0.00000000000E+00 -0.45593999997E+02  0.45594000000E+02  0.51100000000E-03 0.  1.
    9900012    2    1    2    0    0 -0.10324761451E+01 -0.55962937769E+00 -0.11944892037E+00  0.90007550901E+02  0.89999809773E+02 0.  0.
        -12    1    1    2    0    0  0.10324761451E+01  0.55962937769E+00  0.11944892037E+00  0.11804490989E+01  0.00000000000E+00 0.  1.
         11    1    3    3    0    0  0.19165196346E+02  0.10967341259E+02  0.29409251149E+02  0.36776233884E+02  0.51100000000E-03 0. -1.
        -11    1    3    3    0    0  0.75305119330E+01  0.65749634117E+01 -0.20591422591E+01  0.10206802680E+02  0.51100000000E-03 0.  1.
        -12    1    3    3    0    0 -0.27728184424E+02 -0.18101934048E+02 -0.27469557810E+02  0.43024514338E+02  0.00000000000E+00 0.  1.
</event>
<event>
 7    1  0.2578619E-015  0.9000780E+02  0.7816164E-02  0.1186339E+00
        -11   -1    0    0    0    0  0.00000000000E+00  0.00000000000E+00  0.45593999997E+02  0.45594000000E+02  0.51100000000E-03 0.  1.
         11   -1    0    0    0    0 -0.00000000000E+00 -0.00000000000E+00 -0.45593999997E+02  0.45594000000E+02  0.51100000000E-03 0. -1.
    9900012    2    1    2    0    0 -0.90407671183E+00 -0.32339182110E+00 -0.68624987568E+00  0.90007798380E+02  0.90000060519E+02 0.  0.
        -12    1    1    2    0    0  0.90407671183E+00  0.32339182110E+00  0.68624987568E+00  0.11802016195E+01  0.00000000000E+00 0.  1.
         11    1    3    3    0    0 -0.20038030836E+02 -0.28824425432E+02 -0.14528875154E+02  0.37992872947E+02  0.51100000000E-03 0. -1.
        -11    1    3    3    0    0 -0.62023641441E+01 -0.48815105772E+01  0.44712186592E+01  0.90713980758E+01  0.51100000000E-03 0.  1.
        -12    1    3    3    0    0  0.25336318269E+02  0.33382544188E+02  0.93714066188E+01  0.42943527357E+02  0.00000000000E+00 0.  1.
</event>
<event>
 7    1  0.2578619E-015  0.9000746E+02  0.7816164E-02  0.1186340E+00
        -11   -1    0    0    0    0  0.00000000000E+00  0.00000000000E+00  0.45593999997E+02  0.45594000000E+02  0.51100000000E-03 0.  1.
         11   -1    0    0    0    0 -0.00000000000E+00 -0.00000000000E+00 -0.45593999997E+02  0.45594000000E+02  0.51100000000E-03 0. -1.
    9900012    2    1    2    0    0 -0.92603459955E+00 -0.16434715746E+00 -0.71353327460E+00  0.90007457836E+02  0.89999715479E+02 0.  0.
        -12    1    1    2    0    0  0.92603459955E+00  0.16434715746E+00  0.71353327460E+00  0.11805421643E+01  0.00000000000E+00 0.  1.
         11    1    3    3    0    0 -0.43131022514E+01 -0.89796149689E+01  0.89586205520E+01  0.13397507920E+02  0.51100000000E-03 0. -1.
        -11    1    3    3    0    0 -0.67116909853E+01 -0.19309710289E+02  0.24042023101E+02  0.31558367867E+02  0.51100000000E-03 0.  1.
         12    1    3    3    0    0  0.10098758637E+02  0.28124978101E+02 -0.33714176928E+02  0.45051582049E+02  0.00000000000E+00 0. -1.
</event>
<event>
 7    1  0.2578619E-015  0.9000776E+02  0.7816164E-02  0.1186339E+00
        -11   -1    0    0    0    0  0.00000000000E+00  0.00000000000E+00  0.45593999997E+02  0.45594000000E+02  0.51100000000E-03 0.  1.
         11   -1    0    0    0    0 -0.00000000000E+00 -0.00000000000E+00 -0.45593999997E+02  0.45594000000E+02  0.51100000000E-03 0. -1.
    9900012    2    1    2    0    0 -0.82384718783E+00  0.58727168456E+00  0.60773664120E+00  0.90007764411E+02  0.90000026101E+02 0.  0.
        -12    1    1    2    0    0  0.82384718783E+00 -0.58727168456E+00 -0.60773664120E+00  0.11802355889E+01  0.00000000000E+00 0.  1.
         11    1    3    3    0    0  0.26830135679E+02 -0.17373055774E+02 -0.15181458842E+02  0.35385815524E+02  0.51100000000E-03 0. -1.
        -11    1    3    3    0    0  0.68898553305E+01 -0.16530269366E+01 -0.60269054453E+01  0.93019457124E+01  0.51100000000E-03 0.  1.
        -12    1    3    3    0    0 -0.34543838197E+02  0.19613354395E+02  0.21816100928E+02  0.45320003175E+02  0.00000000000E+00 0.  1.
</event>
<event>
 7    1  0.2578619E-015  0.9000771E+02  0.7816164E-02  0.1186339E+00
        -11   -1    0    0    0    0  0.00000000000E+00  0.00000000000E+00  0.45593999997E+02  0.45594000000E+02  0.51100000000E-03 0. -1.
         11   -1    0    0    0    0 -0.00000000000E+00 -0.00000000000E+00 -0.45593999997E+02  0.45594000000E+02  0.51100000000E-03 0.  1.
    9900012    2    1    2    0    0 -0.11315471037E+00 -0.14968911231E+00  0.11652766247E+01  0.90007711717E+02  0.89999972712E+02 0.  0.
        -12    1    1    2    0    0  0.11315471037E+00  0.14968911231E+00 -0.11652766247E+01  0.11802882830E+01  0.00000000000E+00 0.  1.
         11    1    3    3    0    0  0.47946684606E+01 -0.20868898231E+01  0.73614818381E+01  0.90296937874E+01  0.51100000000E-03 0. -1.
        -11    1    3    3    0    0  0.35105788390E+02 -0.10027138245E+02 -0.12813559674E+02  0.38692986336E+02  0.51100000000E-03 0.  1.
         12    1    3    3    0    0 -0.40013611561E+02  0.11964338956E+02  0.66173544609E+01  0.42285031593E+02  0.00000000000E+00 0. -1.
</event>
<event>
 7    1  0.2578619E-015  0.9000772E+02  0.7816164E-02  0.1186339E+00
        -11   -1    0    0    0    0  0.00000000000E+00  0.00000000000E+00  0.45593999997E+02  0.45594000000E+02  0.51100000000E-03 0.  1.
         11   -1    0    0    0    0 -0.00000000000E+00 -0.00000000000E+00 -0.45593999997E+02  0.45594000000E+02  0.51100000000E-03 0. -1.
    9900012    2    1    2    0    0 -0.11150646026E+01  0.34366975415E+00 -0.17772215813E+00  0.90007719045E+02  0.89999980136E+02 0.  0.
        -12    1    1    2    0    0  0.11150646026E+01 -0.34366975415E+00  0.17772215813E+00  0.11802809553E+01  0.00000000000E+00 0.  1.
         11    1    3    3    0    0  0.34884885833E+01  0.63285806768E+01 -0.71375373148E+01  0.10157013595E+02  0.51100000000E-03 0. -1.
        -11    1    3    3    0    0  0.20431112575E+02 -0.34100641560E+02  0.12781674647E+02  0.41757099072E+02  0.51100000000E-03 0.  1.
         12    1    3    3    0    0 -0.25034665760E+02  0.28115730637E+02 -0.58218594904E+01  0.38093606379E+02  0.00000000000E+00 0. -1.
</event>
<event>
 7    1  0.2578619E-015  0.9000777E+02  0.7816164E-02  0.1186339E+00
        -11   -1    0    0    0    0  0.00000000000E+00  0.00000000000E+00  0.45593999997E+02  0.45594000000E+02  0.51100000000E-03 0.  1.
         11   -1    0    0    0    0 -0.00000000000E+00 -0.00000000000E+00 -0.45593999997E+02  0.45594000000E+02  0.51100000000E-03 0. -1.
    9900012    2    1    2    0    0 -0.43743814410E-02  0.34370543193E+00 -0.11290680336E+01  0.90007768165E+02  0.90000029905E+02 0.  0.
        -12    1    1    2    0    0  0.43743814410E-02 -0.34370543193E+00  0.11290680336E+01  0.11802318347E+01  0.00000000000E+00 0.  1.
         11    1    3    3    0    0  0.28899680321E+00  0.87073662343E+01  0.66341755884E+00  0.87373834189E+01  0.51100000000E-03 0. -1.
        -11    1    3    3    0    0  0.30437516024E+01  0.17691546131E+02  0.33064801093E+02  0.37623613595E+02  0.51100000000E-03 0.  1.
         12    1    3    3    0    0 -0.33371227870E+01 -0.26055206934E+02 -0.34857286686E+02  0.43646771151E+02  0.00000000000E+00 0. -1.
</event>
<event>
 7    1  0.2578619E-015  0.9000771E+02  0.7816164E-02  0.1186339E+00
        -11   -1    0    0    0    0  0.00000000000E+00  0.00000000000E+00  0.45593999997E+02  0.45594000000E+02  0.51100000000E-03 0. -1.
         11   -1    0    0    0    0 -0.00000000000E+00 -0.00000000000E+00 -0.45593999997E+02  0.45594000000E+02  0.51100000000E-03 0.  1.
    9900012    2    1    2    0    0 -0.66055597064E+00 -0.17239755281E-02  0.97813409687E+00  0.90007710428E+02  0.89999971406E+02 0.  0.
        -12    1    1    2    0    0  0.66055597064E+00  0.17239755281E-02 -0.97813409687E+00  0.11802895721E+01  0.00000000000E+00 0.  1.
         11    1    3    3    0    0  0.94441162651E+01  0.34706758543E+02  0.21277090504E+02  0.41790728651E+02  0.51100000000E-03 0. -1.
        -11    1    3    3    0    0  0.76349851019E+01 -0.50904996203E+01 -0.34825685097E+01  0.98150123574E+01  0.51100000000E-03 0.  1.
        -12    1    3    3    0    0 -0.17739657338E+02 -0.29617982898E+02 -0.16816387898E+02  0.38401969420E+02  0.00000000000E+00 0.  1.
</event>
<event>
 7    1  0.2578619E-015  0.9000761E+02  0.7816164E-02  0.1186339E+00
        -11   -1    0    0    0    0  0.00000000000E+00  0.00000000000E+00  0.45593999997E+02  0.45594000000E+02  0.51100000000E-03 0.  1.
         11   -1    0    0    0    0 -0.00000000000E+00 -0.00000000000E+00 -0.45593999997E+02  0.45594000000E+02  0.51100000000E-03 0. -1.
    9900012    2    1    2    0    0  0.39511411765E-01 -0.11636026547E+01  0.19436805431E+00  0.90007613949E+02  0.89999873653E+02 0.  0.
        -12    1    1    2    0    0 -0.39511411765E-01  0.11636026547E+01 -0.19436805431E+00  0.11803860514E+01  0.00000000000E+00 0.  1.
         11    1    3    3    0    0 -0.88963915433E+01 -0.31704803791E+02  0.29524313074E+02  0.44226976255E+02  0.51100000000E-03 0. -1.
        -11    1    3    3    0    0  0.48706472306E+01  0.76260151781E+01 -0.98004107044E+00  0.91016368145E+01  0.51100000000E-03 0.  1.
        -12    1    3    3    0    0  0.40652557244E+01  0.22915185958E+02 -0.28349903949E+02  0.36679000879E+02  0.00000000000E+00 0.  1.
</event>
<event>
 7    1  0.2578619E-015  0.9000775E+02  0.7816164E-02  0.1186339E+00
        -11   -1    0    0    0    0  0.00000000000E+00  0.00000000000E+00  0.45593999997E+02  0.45594000000E+02  0.51100000000E-03 0. -1.
         11   -1    0    0    0    0 -0.00000000000E+00 -0.00000000000E+00 -0.45593999997E+02  0.45594000000E+02  0.51100000000E-03 0.  1.
    9900012    2    1    2    0    0  0.11720959992E+01  0.82860329473E-01  0.11092685949E+00  0.90007754418E+02  0.90000015976E+02 0.  0.
        -12    1    1    2    0    0 -0.11720959992E+01 -0.82860329473E-01 -0.11092685949E+00  0.11802455819E+01  0.00000000000E+00 0.  1.
         11    1    3    3    0    0 -0.15622907039E+02  0.39171878291E+02  0.12520612824E+02  0.43991783539E+02  0.51100000000E-03 0. -1.
        -11    1    3    3    0    0  0.63454093953E+01 -0.37335053598E+01 -0.10411794691E+01  0.74355455492E+01  0.51100000000E-03 0.  1.
        -12    1    3    3    0    0  0.10449593643E+02 -0.35355512602E+02 -0.11368506496E+02  0.38580425329E+02  0.00000000000E+00 0.  1.
</event>
<event>
 7    1  0.2578619E-015  0.9000777E+02  0.7816164E-02  0.1186339E+00
        -11   -1    0    0    0    0  0.00000000000E+00  0.00000000000E+00  0.45593999997E+02  0.45594000000E+02  0.51100000000E-03 0. -1.
         11   -1    0    0    0    0 -0.00000000000E+00 -0.00000000000E+00 -0.45593999997E+02  0.45594000000E+02  0.51100000000E-03 0.  1.
    9900012    2    1    2    0    0 -0.10990817133E+01 -0.26405403512E+00 -0.33947126352E+00  0.90007768716E+02  0.90000030463E+02 0.  0.
        -12    1    1    2    0    0  0.10990817133E+01  0.26405403512E+00  0.33947126352E+00  0.11802312844E+01  0.00000000000E+00 0.  1.
         11    1    3    3    0    0  0.52919116640E+01  0.77630496428E+01  0.26730924389E+01  0.97680444442E+01  0.51100000000E-03 0. -1.
        -11    1    3    3    0    0 -0.33170115466E+02  0.15818037168E+02  0.15502545995E+02  0.39884781465E+02  0.51100000000E-03 0.  1.
         12    1    3    3    0    0  0.26779122089E+02 -0.23845140846E+02 -0.18515109698E+02  0.40354942807E+02  0.00000000000E+00 0. -1.
</event>
<event>
 7    1  0.2578619E-015  0.9000774E+02  0.7816164E-02  0.1186339E+00
        -11   -1    0    0    0    0  0.00000000000E+00  0.00000000000E+00  0.45593999997E+02  0.45594000000E+02  0.51100000000E-03 0. -1.
         11   -1    0    0    0    0 -0.00000000000E+00 -0.00000000000E+00 -0.45593999997E+02  0.45594000000E+02  0.51100000000E-03 0.  1.
    9900012    2    1    2    0    0 -0.90190651113E+00 -0.73084976301E+00  0.21313710614E+00  0.90007744029E+02  0.90000005450E+02 0.  0.
        -12    1    1    2    0    0  0.90190651113E+00  0.73084976301E+00 -0.21313710614E+00  0.11802559709E+01  0.00000000000E+00 0.  1.
         11    1    3    3    0    0  0.21894289634E+01  0.68859253312E+01 -0.79106490758E+01  0.10713913193E+02  0.51100000000E-03 0. -1.
        -11    1    3    3    0    0  0.37442237760E+02 -0.38075415374E+01  0.84854028502E+01  0.38580054469E+02  0.51100000000E-03 0.  1.
         12    1    3    3    0    0 -0.40533573234E+02 -0.38092335568E+01 -0.36161666831E+00  0.40713776367E+02  0.00000000000E+00 0. -1.
</event>
<event>
 7    1  0.2578619E-015  0.9000779E+02  0.7816164E-02  0.1186339E+00
        -11   -1    0    0    0    0  0.00000000000E+00  0.00000000000E+00  0.45593999997E+02  0.45594000000E+02  0.51100000000E-03 0. -1.
         11   -1    0    0    0    0 -0.00000000000E+00 -0.00000000000E+00 -0.45593999997E+02  0.45594000000E+02  0.51100000000E-03 0.  1.
    9900012    2    1    2    0    0  0.92671174535E+00  0.39737577817E+00  0.61334429674E+00  0.90007790953E+02  0.90000052994E+02 0.  0.
        -12    1    1    2    0    0 -0.92671174535E+00 -0.39737577817E+00 -0.61334429674E+00  0.11802090469E+01  0.00000000000E+00 0.  1.
         11    1    3    3    0    0  0.24220518103E+02 -0.42900098955E+01  0.12030924394E+02  0.27382125997E+02  0.51100000000E-03 0. -1.
        -11    1    3    3    0    0  0.18610821922E+02  0.19330083092E+01  0.12752584775E+01  0.18754346114E+02  0.51100000000E-03 0.  1.
        -12    1    3    3    0    0 -0.41904628279E+02  0.27543773645E+01 -0.12692838575E+02  0.43871318842E+02  0.00000000000E+00 0.  1.
</event>
<event>
 7    1  0.2578619E-015  0.9000766E+02  0.7816164E-02  0.1186339E+00
        -11   -1    0    0    0    0  0.00000000000E+00  0.00000000000E+00  0.45593999997E+02  0.45594000000E+02  0.51100000000E-03 0.  1.
         11   -1    0    0    0    0 -0.00000000000E+00 -0.00000000000E+00 -0.45593999997E+02  0.45594000000E+02  0.51100000000E-03 0. -1.
    9900012    2    1    2    0    0  0.51465209764E+00 -0.10620135662E+01 -0.21746382130E-01  0.90007655770E+02  0.89999916026E+02 0.  0.
        -12    1    1    2    0    0 -0.51465209764E+00  0.10620135662E+01  0.21746382130E-01  0.11803442301E+01  0.00000000000E+00 0.  1.
         11    1    3    3    0    0 -0.45739083629E+01  0.30208053336E+01 -0.27792535369E+01  0.61457426776E+01  0.51100000000E-03 0. -1.
        -11    1    3    3    0    0 -0.81917474807E+01  0.29433861928E+02 -0.24093529056E+02  0.38909575909E+02  0.51100000000E-03 0.  1.
         12    1    3    3    0    0  0.13280307941E+02 -0.33516680828E+02  0.26851036210E+02  0.44952337184E+02  0.00000000000E+00 0. -1.
</event>
<event>
 7    1  0.2578619E-015  0.9000785E+02  0.7816164E-02  0.1186339E+00
        -11   -1    0    0    0    0  0.00000000000E+00  0.00000000000E+00  0.45593999997E+02  0.45594000000E+02  0.51100000000E-03 0. -1.
         11   -1    0    0    0    0 -0.00000000000E+00 -0.00000000000E+00 -0.45593999997E+02  0.45594000000E+02  0.51100000000E-03 0.  1.
    9900012    2    1    2    0    0 -0.42349047958E+00 -0.91903466345E+00  0.60727289743E+00  0.90007852013E+02  0.90000114860E+02 0.  0.
        -12    1    1    2    0    0  0.42349047958E+00  0.91903466345E+00 -0.60727289743E+00  0.11801479869E+01  0.00000000000E+00 0.  1.
         11    1    3    3    0    0  0.83844528044E+01  0.63740691638E+01  0.39745097045E+01  0.11257199216E+02  0.51100000000E-03 0. -1.
        -11    1    3    3    0    0 -0.19074923319E+02  0.31639631609E+02 -0.91832381991E+01  0.38069027464E+02  0.51100000000E-03 0.  1.
         12    1    3    3    0    0  0.10266980035E+02 -0.38932735436E+02  0.58160013921E+01  0.40681625333E+02  0.00000000000E+00 0. -1.
</event>
<event>
 7    1  0.2578619E-015  0.9000766E+02  0.7816164E-02  0.1186339E+00
        -11   -1    0    0    0    0  0.00000000000E+00  0.00000000000E+00  0.45593999997E+02  0.45594000000E+02  0.51100000000E-03 0.  1.
         11   -1    0    0    0    0 -0.00000000000E+00 -0.00000000000E+00 -0.45593999997E+02  0.45594000000E+02  0.51100000000E-03 0. -1.
    9900012    2    1    2    0    0 -0.91070400428E+00 -0.74680955791E+00  0.78022926339E-01  0.90007663660E+02  0.89999924020E+02 0.  0.
        -12    1    1    2    0    0  0.91070400428E+00  0.74680955791E+00 -0.78022926339E-01  0.11803363403E+01  0.00000000000E+00 0.  1.
         11    1    3    3    0    0 -0.78064419545E+01  0.37525759076E+01  0.32915047555E+01  0.92658710194E+01  0.51100000000E-03 0. -1.
        -11    1    3    3    0    0 -0.29443816653E+02  0.90190469086E+01  0.18875270642E+02  0.36118657067E+02  0.51100000000E-03 0.  1.
         12    1    3    3    0    0  0.36339554603E+02 -0.13518432374E+02 -0.22088752472E+02  0.44623135573E+02  0.00000000000E+00 0. -1.
</event>
<event>
 7    1  0.2578619E-015  0.9000780E+02  0.7816164E-02  0.1186339E+00
        -11   -1    0    0    0    0  0.00000000000E+00  0.00000000000E+00  0.45593999997E+02  0.45594000000E+02  0.51100000000E-03 0.  1.
         11   -1    0    0    0    0 -0.00000000000E+00 -0.00000000000E+00 -0.45593999997E+02  0.45594000000E+02  0.51100000000E-03 0. -1.
    9900012    2    1    2    0    0  0.46487192705E+00  0.46966665409E+00 -0.97783915571E+00  0.90007804216E+02  0.90000066431E+02 0.  0.
        -12    1    1    2    0    0 -0.46487192705E+00 -0.46966665409E+00  0.97783915571E+00  0.11801957842E+01  0.00000000000E+00 0.  1.
         11    1    3    3    0    0  0.29175590542E+01  0.79482630782E+01 -0.76714476015E+01  0.11425329114E+02  0.51100000000E-03 0. -1.
        -11    1    3    3    0    0 -0.32923351524E+02  0.18256132348E+02  0.87348228063E+01  0.38646223277E+02  0.51100000000E-03 0.  1.
         12    1    3    3    0    0  0.30470664397E+02 -0.25734728772E+02 -0.20412143606E+01  0.39936251825E+02  0.00000000000E+00 0. -1.
</event>
<event>
 7    1  0.2578619E-015  0.9000774E+02  0.7816164E-02  0.1186339E+00
        -11   -1    0    0    0    0  0.00000000000E+00  0.00000000000E+00  0.45593999997E+02  0.45594000000E+02  0.51100000000E-03 0. -1.
         11   -1    0    0    0    0 -0.00000000000E+00 -0.00000000000E+00 -0.45593999997E+02  0.45594000000E+02  0.51100000000E-03 0.  1.
    9900012    2    1    2    0    0  0.11549323104E+01  0.24185682159E+00  0.25337780255E-01  0.90007743516E+02  0.90000004931E+02 0.  0.
        -12    1    1    2    0    0 -0.11549323104E+01 -0.24185682159E+00 -0.25337780255E-01  0.11802564835E+01  0.00000000000E+00 0.  1.
         11    1    3    3    0    0 -0.90093439917E+01  0.16976351005E+00  0.33097520875E+01  0.95995603000E+01  0.51100000000E-03 0. -1.
        -11    1    3    3    0    0 -0.33843798686E+02 -0.73448459908E+01  0.50805285766E+01  0.35002303396E+02  0.51100000000E-03 0.  1.
         12    1    3    3    0    0  0.44008074989E+02  0.74169393023E+01 -0.83649428839E+01  0.45405879820E+02  0.00000000000E+00 0. -1.
</event>
<event>
 7    1  0.2578619E-015  0.9000746E+02  0.7816164E-02  0.1186340E+00
        -11   -1    0    0    0    0  0.00000000000E+00  0.00000000000E+00  0.45593999997E+02  0.45594000000E+02  0.51100000000E-03 0. -1.
         11   -1    0    0    0    0 -0.00000000000E+00 -0.00000000000E+00 -0.45593999997E+02  0.45594000000E+02  0.51100000000E-03 0.  1.
    9900012    2    1    2    0    0 -0.81308777032E+00  0.57725411017E+00  0.63192837922E+00  0.90007463043E+02  0.89999720755E+02 0.  0.
        -12    1    1    2    0    0  0.81308777032E+00 -0.57725411017E+00 -0.63192837922E+00  0.11805369568E+01  0.00000000000E+00 0.  1.
         11    1    3    3    0    0 -0.43842863053E+00  0.81329033419E+01  0.58662097411E+01  0.10037367853E+02  0.51100000000E-03 0. -1.
        -11    1    3    3    0    0 -0.17976220962E+02  0.29785134198E+02 -0.14452717167E+02  0.37672002509E+02  0.51100000000E-03 0.  1.
         12    1    3    3    0    0  0.17601561823E+02 -0.37340783430E+02  0.92184358051E+01  0.42298092681E+02  0.00000000000E+00 0. -1.
</event>
<event>
 7    1  0.2578619E-015  0.9000772E+02  0.7816164E-02  0.1186339E+00
        -11   -1    0    0    0    0  0.00000000000E+00  0.00000000000E+00  0.45593999997E+02  0.45594000000E+02  0.51100000000E-03 0. -1.
         11   -1    0    0    0    0 -0.00000000000E+00 -0.00000000000E+00 -0.45593999997E+02  0.45594000000E+02  0.51100000000E-03 0.  1.
    9900012    2    1    2    0    0  0.15203753446E-01 -0.41743625593E+00  0.11038920133E+01  0.90007719627E+02  0.89999980726E+02 0.  0.
        -12    1    1    2    0    0 -0.15203753446E-01  0.41743625593E+00 -0.11038920133E+01  0.11802803730E+01  0.00000000000E+00 0.  1.
         11    1    3    3    0    0  0.84154805710E+01 -0.71977603459E+01  0.13411481947E+01  0.11154673728E+02  0.51100000000E-03 0. -1.
        -11    1    3    3    0    0  0.35002939271E+02  0.10816166814E+01 -0.15991204784E+01  0.35056138390E+02  0.51100000000E-03 0.  1.
         12    1    3    3    0    0 -0.43403216089E+02  0.56987074085E+01  0.13618642971E+01  0.43796907509E+02  0.00000000000E+00 0. -1.
</event>
<event>
 7    1  0.2578619E-015  0.9000770E+02  0.7816164E-02  0.1186339E+00
        -11   -1    0    0    0    0  0.00000000000E+00  0.00000000000E+00  0.45593999997E+02  0.45594000000E+02  0.51100000000E-03 0.  1.
         11   -1    0    0    0    0 -0.00000000000E+00 -0.00000000000E+00 -0.45593999997E+02  0.45594000000E+02  0.51100000000E-03 0. -1.
    9900012    2    1    2    0    0 -0.10055351244E+01 -0.50936770204E+00 -0.35007631393E+00  0.90007699289E+02  0.89999960120E+02 0.  0.
        -12    1    1    2    0    0  0.10055351244E+01  0.50936770204E+00  0.35007631393E+00  0.11803007107E+01  0.00000000000E+00 0.  1.
         11    1    3    3    0    0  0.26693845359E+02  0.24657297929E+02 -0.73983048541E+01  0.37084749375E+02  0.51100000000E-03 0. -1.
        -11    1    3    3    0    0  0.80023480146E+01 -0.10827910031E+01  0.56111700572E+01  0.98333737738E+01  0.51100000000E-03 0.  1.
        -12    1    3    3    0    0 -0.35701728498E+02 -0.24083874628E+02  0.14370584829E+01  0.43089576140E+02  0.00000000000E+00 0.  1.
</event>
<event>
 7    1  0.2578619E-015  0.9000780E+02  0.7816164E-02  0.1186339E+00
        -11   -1    0    0    0    0  0.00000000000E+00  0.00000000000E+00  0.45593999997E+02  0.45594000000E+02  0.51100000000E-03 0.  1.
         11   -1    0    0    0    0 -0.00000000000E+00 -0.00000000000E+00 -0.45593999997E+02  0.45594000000E+02  0.51100000000E-03 0. -1.
    9900012    2    1    2    0    0 -0.11557172578E+01  0.12797878151E-01 -0.23880979456E+00  0.90007798202E+02  0.90000060338E+02 0.  0.
        -12    1    1    2    0    0  0.11557172578E+01 -0.12797878151E-01  0.23880979456E+00  0.11802017979E+01  0.00000000000E+00 0.  1.
         11    1    3    3    0    0 -0.50374366072E+01 -0.44479697880E+01  0.19568894379E+01  0.69992584849E+01  0.51100000000E-03 0. -1.
        -11    1    3    3    0    0 -0.28048998065E+02 -0.26250930333E+02 -0.42907695461E+01  0.38655767220E+02  0.51100000000E-03 0.  1.
         12    1    3    3    0    0  0.31930717414E+02  0.30711697999E+02  0.20950703137E+01  0.44352772497E+02  0.00000000000E+00 0. -1.
</event>
<event>
 7    1  0.2578619E-015  0.9000777E+02  0.7816164E-02  0.1186339E+00
        -11   -1    0    0    0    0  0.00000000000E+00  0.00000000000E+00  0.45593999997E+02  0.45594000000E+02  0.51100000000E-03 0.  1.
         11   -1    0    0    0    0 -0.00000000000E+00 -0.00000000000E+00 -0.45593999997E+02  0.45594000000E+02  0.51100000000E-03 0. -1.
    9900012    2    1    2    0    0 -0.57627352083E+00 -0.10295743254E+01  0.28949924761E-01  0.90007765887E+02  0.90000027597E+02 0.  0.
        -12    1    1    2    0    0  0.57627352083E+00  0.10295743254E+01 -0.28949924761E-01  0.11802341126E+01  0.00000000000E+00 0.  1.
         11    1    3    3    0    0 -0.14550223574E+01 -0.45253490532E+00 -0.11004032778E+02  0.11109033061E+02  0.51100000000E-03 0. -1.
        -11    1    3    3    0    0 -0.26036010820E+02  0.18572781561E+02 -0.16417498070E+02  0.35949357678E+02  0.51100000000E-03 0.  1.
         12    1    3    3    0    0  0.26914759657E+02 -0.19149820981E+02  0.27450480773E+02  0.42949375148E+02  0.00000000000E+00 0. -1.
</event>
<event>
 7    1  0.2578619E-015  0.9000780E+02  0.7816164E-02  0.1186339E+00
        -11   -1    0    0    0    0  0.00000000000E+00  0.00000000000E+00  0.45593999997E+02  0.45594000000E+02  0.51100000000E-03 0. -1.
         11   -1    0    0    0    0 -0.00000000000E+00 -0.00000000000E+00 -0.45593999997E+02  0.45594000000E+02  0.51100000000E-03 0.  1.
    9900012    2    1    2    0    0  0.29198197414E-01  0.11264742686E+01 -0.35082096659E+00  0.90007799948E+02  0.90000062107E+02 0.  0.
        -12    1    1    2    0    0 -0.29198197414E-01 -0.11264742686E+01  0.35082096659E+00  0.11802000522E+01  0.00000000000E+00 0.  1.
         11    1    3    3    0    0  0.93549771593E+01  0.26674640990E+01  0.11444707104E+02  0.15020395578E+02  0.51100000000E-03 0. -1.
        -11    1    3    3    0    0  0.11154502023E+02 -0.22325934947E+02 -0.31193160890E+02  0.39948511526E+02  0.51100000000E-03 0.  1.
         12    1    3    3    0    0 -0.20480280985E+02  0.20784945116E+02  0.19397632819E+02  0.35038892843E+02  0.00000000000E+00 0. -1.
</event>
<event>
 7    1  0.2578619E-015  0.9000773E+02  0.7816164E-02  0.1186339E+00
        -11   -1    0    0    0    0  0.00000000000E+00  0.00000000000E+00  0.45593999997E+02  0.45594000000E+02  0.51100000000E-03 0.  1.
         11   -1    0    0    0    0 -0.00000000000E+00 -0.00000000000E+00 -0.45593999997E+02  0.45594000000E+02  0.51100000000E-03 0. -1.
    9900012    2    1    2    0    0 -0.53850107483E+00  0.36893662507E+00 -0.98332550943E+00  0.90007734480E+02  0.89999995775E+02 0.  0.
        -12    1    1    2    0    0  0.53850107483E+00 -0.36893662507E+00  0.98332550943E+00  0.11802655203E+01  0.00000000000E+00 0.  1.
         11    1    3    3    0    0 -0.86305895835E+01  0.52729333749E+00  0.11769708257E+01  0.87264182463E+01  0.51100000000E-03 0. -1.
        -11    1    3    3    0    0  0.13477363986E+02 -0.34340754991E+02  0.18195682131E+02  0.41134044803E+02  0.51100000000E-03 0.  1.
         12    1    3    3    0    0 -0.53852754776E+01  0.34182398278E+02 -0.20355978466E+02  0.40147271431E+02  0.00000000000E+00 0. -1.
</event>
<event>
 7    1  0.2578619E-015  0.9000773E+02  0.7816164E-02  0.1186339E+00
        -11   -1    0    0    0    0  0.00000000000E+00  0.00000000000E+00  0.45593999997E+02  0.45594000000E+02  0.51100000000E-03 0.  1.
         11   -1    0    0    0    0 -0.00000000000E+00 -0.00000000000E+00 -0.45593999997E+02  0.45594000000E+02  0.51100000000E-03 0. -1.
    9900012    2    1    2    0    0 -0.79003757991E+00 -0.17147325702E-01 -0.87669087629E+00  0.90007728717E+02  0.89999989936E+02 0.  0.
        -12    1    1    2    0    0  0.79003757991E+00  0.17147325702E-01  0.87669087629E+00  0.11802712828E+01  0.00000000000E+00 0.  1.
         11    1    3    3    0    0 -0.55873181650E+01  0.60806537357E+01  0.40657097433E+01  0.92044809798E+01  0.51100000000E-03 0. -1.
        -11    1    3    3    0    0  0.19208701438E+02  0.24979852882E+02  0.20969216941E+02  0.37850697752E+02  0.51100000000E-03 0.  1.
         12    1    3    3    0    0 -0.14411420853E+02 -0.31077653943E+02 -0.25911617560E+02  0.42952549985E+02  0.00000000000E+00 0. -1.
</event>
<event>
 7    1  0.2578619E-015  0.9000770E+02  0.7816164E-02  0.1186339E+00
        -11   -1    0    0    0    0  0.00000000000E+00  0.00000000000E+00  0.45593999997E+02  0.45594000000E+02  0.51100000000E-03 0. -1.
         11   -1    0    0    0    0 -0.00000000000E+00 -0.00000000000E+00 -0.45593999997E+02  0.45594000000E+02  0.51100000000E-03 0.  1.
    9900012    2    1    2    0    0  0.11479509688E+01  0.27434799636E+00  0.69825628099E-02  0.90007700459E+02  0.89999961305E+02 0.  0.
        -12    1    1    2    0    0 -0.11479509688E+01 -0.27434799636E+00 -0.69825628099E-02  0.11802995408E+01  0.00000000000E+00 0.  1.
         11    1    3    3    0    0 -0.10825320587E+02 -0.16452394683E+01 -0.43415414963E+00  0.10958232923E+02  0.51100000000E-03 0. -1.
        -11    1    3    3    0    0 -0.23606486440E+02  0.84753834501E+01 -0.24535312969E+02  0.35086748345E+02  0.51100000000E-03 0.  1.
         12    1    3    3    0    0  0.35579757995E+02 -0.65557959854E+01  0.24976449681E+02  0.43962719191E+02  0.00000000000E+00 0. -1.
</event>
<event>
 7    1  0.2578619E-015  0.9000773E+02  0.7816164E-02  0.1186339E+00
        -11   -1    0    0    0    0  0.00000000000E+00  0.00000000000E+00  0.45593999997E+02  0.45594000000E+02  0.51100000000E-03 0.  1.
         11   -1    0    0    0    0 -0.00000000000E+00 -0.00000000000E+00 -0.45593999997E+02  0.45594000000E+02  0.51100000000E-03 0. -1.
    9900012    2    1    2    0    0 -0.73130775145E+00  0.81485449076E+00 -0.44073716023E+00  0.90007725408E+02  0.89999986583E+02 0.  0.
        -12    1    1    2    0    0  0.73130775145E+00 -0.81485449076E+00  0.44073716023E+00  0.11802745921E+01  0.00000000000E+00 0.  1.
         11    1    3    3    0    0  0.27140752209E+02 -0.16507308812E+02 -0.18148117690E+02  0.36585049551E+02  0.51100000000E-03 0. -1.
        -11    1    3    3    0    0  0.85920815065E+01  0.13674921648E+01 -0.21213592848E+01  0.89551138972E+01  0.51100000000E-03 0.  1.
        -12    1    3    3    0    0 -0.36464141467E+02  0.15954671138E+02  0.19828739815E+02  0.44467561960E+02  0.00000000000E+00 0.  1.
</event>
<event>
 7    1  0.2578619E-015  0.9000753E+02  0.7816164E-02  0.1186339E+00
        -11   -1    0    0    0    0  0.00000000000E+00  0.00000000000E+00  0.45593999997E+02  0.45594000000E+02  0.51100000000E-03 0.  1.
         11   -1    0    0    0    0 -0.00000000000E+00 -0.00000000000E+00 -0.45593999997E+02  0.45594000000E+02  0.51100000000E-03 0. -1.
    9900012    2    1    2    0    0 -0.92139985252E+00 -0.32102487085E+00 -0.66444436656E+00  0.90007525107E+02  0.89999783639E+02 0.  0.
        -12    1    1    2    0    0  0.92139985252E+00  0.32102487085E+00  0.66444436656E+00  0.11804748927E+01  0.00000000000E+00 0.  1.
         11    1    3    3    0    0  0.56364995446E+01  0.60755846757E+01 -0.32313021778E+01  0.88951767995E+01  0.51100000000E-03 0. -1.
        -11    1    3    3    0    0 -0.19510103788E+02  0.30738941152E+02  0.15699134850E+02  0.39648322641E+02  0.51100000000E-03 0.  1.
         12    1    3    3    0    0  0.12952204391E+02 -0.37135550698E+02 -0.13132277039E+02  0.41464025667E+02  0.00000000000E+00 0. -1.
</event>
<event>
 7    1  0.2578619E-015  0.9000760E+02  0.7816164E-02  0.1186339E+00
        -11   -1    0    0    0    0  0.00000000000E+00  0.00000000000E+00  0.45593999997E+02  0.45594000000E+02  0.51100000000E-03 0.  1.
         11   -1    0    0    0    0 -0.00000000000E+00 -0.00000000000E+00 -0.45593999997E+02  0.45594000000E+02  0.51100000000E-03 0. -1.
    9900012    2    1    2    0    0 -0.20294576137E-01 -0.11784396840E+01 -0.64943955427E-01  0.90007597663E+02  0.89999857153E+02 0.  0.
        -12    1    1    2    0    0  0.20294576137E-01  0.11784396840E+01  0.64943955427E-01  0.11804023365E+01  0.00000000000E+00 0.  1.
         11    1    3    3    0    0 -0.76587137305E+01 -0.16455263888E+02 -0.38464325716E+02  0.42531587775E+02  0.51100000000E-03 0. -1.
        -11    1    3    3    0    0  0.10474997434E+02  0.13977625100E+01  0.60887712462E+01  0.12196411227E+02  0.51100000000E-03 0.  1.
        -12    1    3    3    0    0 -0.28365782797E+01  0.13879061694E+02  0.32310610515E+02  0.35279598661E+02  0.00000000000E+00 0.  1.
</event>
<event>
 7    1  0.2578619E-015  0.9000797E+02  0.7816164E-02  0.1186339E+00
        -11   -1    0    0    0    0  0.00000000000E+00  0.00000000000E+00  0.45593999997E+02  0.45594000000E+02  0.51100000000E-03 0.  1.
         11   -1    0    0    0    0 -0.00000000000E+00 -0.00000000000E+00 -0.45593999997E+02  0.45594000000E+02  0.51100000000E-03 0. -1.
    9900012    2    1    2    0    0 -0.11560566155E+01 -0.22422180914E+00 -0.75681542658E-01  0.90007970334E+02  0.90000234742E+02 0.  0.
        -12    1    1    2    0    0  0.11560566155E+01  0.22422180914E+00  0.75681542658E-01  0.11800296665E+01  0.00000000000E+00 0.  1.
         11    1    3    3    0    0 -0.23259598050E+01  0.35439039673E+02 -0.15063738227E+02  0.38577867121E+02  0.51100000000E-03 0. -1.
        -11    1    3    3    0    0  0.77043676333E+01  0.28641305047E+01 -0.25377835284E+01  0.86023758157E+01  0.51100000000E-03 0.  1.
        -12    1    3    3    0    0 -0.65344644438E+01 -0.38527391987E+02  0.17525840212E+02  0.42827727397E+02  0.00000000000E+00 0.  1.
</event>
<event>
 7    1  0.2578619E-015  0.9000729E+02  0.7816164E-02  0.1186340E+00
        -11   -1    0    0    0    0  0.00000000000E+00  0.00000000000E+00  0.45593999997E+02  0.45594000000E+02  0.51100000000E-03 0.  1.
         11   -1    0    0    0    0 -0.00000000000E+00 -0.00000000000E+00 -0.45593999997E+02  0.45594000000E+02  0.51100000000E-03 0. -1.
    9900012    2    1    2    0    0  0.37526904159E+00  0.10513226634E+01  0.38465668406E+00  0.90007293872E+02  0.89999549350E+02 0.  0.
        -12    1    1    2    0    0 -0.37526904159E+00 -0.10513226634E+01 -0.38465668406E+00  0.11807061281E+01  0.00000000000E+00 0.  1.
         11    1    3    3    0    0  0.98163426862E+01 -0.88203993564E+00 -0.23506940557E+01  0.10132341338E+02  0.51100000000E-03 0. -1.
        -11    1    3    3    0    0 -0.31176115874E+02 -0.28075168041E+02 -0.42507832928E+01  0.42169116903E+02  0.51100000000E-03 0.  1.
         12    1    3    3    0    0  0.21735042229E+02  0.30008530640E+02  0.69861340325E+01  0.37705835631E+02  0.00000000000E+00 0. -1.
</event>
<event>
 7    1  0.2578619E-015  0.9000770E+02  0.7816164E-02  0.1186339E+00
        -11   -1    0    0    0    0  0.00000000000E+00  0.00000000000E+00  0.45593999997E+02  0.45594000000E+02  0.51100000000E-03 0. -1.
         11   -1    0    0    0    0 -0.00000000000E+00 -0.00000000000E+00 -0.45593999997E+02  0.45594000000E+02  0.51100000000E-03 0.  1.
    9900012    2    1    2    0    0 -0.11546212747E+01 -0.21629885238E+00 -0.11481230200E+00  0.90007696079E+02  0.89999956867E+02 0.  0.
        -12    1    1    2    0    0  0.11546212747E+01  0.21629885238E+00  0.11481230200E+00  0.11803039211E+01  0.00000000000E+00 0.  1.
         11    1    3    3    0    0  0.46395116768E+01  0.82399228918E+01 -0.63178456604E+01  0.11372623792E+02  0.51100000000E-03 0. -1.
        -11    1    3    3    0    0 -0.67567487344E+01  0.34566417731E+02  0.50965910911E+01  0.35587443420E+02  0.51100000000E-03 0.  1.
         12    1    3    3    0    0  0.96261578291E+00 -0.43022639475E+02  0.11064422673E+01  0.43047628867E+02  0.00000000000E+00 0. -1.
</event>
<event>
 7    1  0.2578619E-015  0.9000769E+02  0.7816164E-02  0.1186339E+00
        -11   -1    0    0    0    0  0.00000000000E+00  0.00000000000E+00  0.45593999997E+02  0.45594000000E+02  0.51100000000E-03 0.  1.
         11   -1    0    0    0    0 -0.00000000000E+00 -0.00000000000E+00 -0.45593999997E+02  0.45594000000E+02  0.51100000000E-03 0. -1.
    9900012    2    1    2    0    0  0.32292693493E+00  0.56098124199E+00 -0.98699598291E+00  0.90007685284E+02  0.89999945929E+02 0.  0.
        -12    1    1    2    0    0 -0.32292693493E+00 -0.56098124199E+00  0.98699598291E+00  0.11803147163E+01  0.00000000000E+00 0.  1.
         11    1    3    3    0    0  0.91340089791E+01  0.26764936331E+01 -0.38226451946E+01  0.10257014904E+02  0.51100000000E-03 0. -1.
        -11    1    3    3    0    0  0.18012597008E+01 -0.76833196124E+01  0.39964194365E+02  0.40735914968E+02  0.51100000000E-03 0.  1.
         12    1    3    3    0    0 -0.10612341745E+02  0.55678072213E+01 -0.37128545154E+02  0.39014755411E+02  0.00000000000E+00 0. -1.
</event>
<event>
 7    1  0.2578619E-015  0.9000773E+02  0.7816164E-02  0.1186339E+00
        -11   -1    0    0    0    0  0.00000000000E+00  0.00000000000E+00  0.45593999997E+02  0.45594000000E+02  0.51100000000E-03 0.  1.
         11   -1    0    0    0    0 -0.00000000000E+00 -0.00000000000E+00 -0.45593999997E+02  0.45594000000E+02  0.51100000000E-03 0. -1.
    9900012    2    1    2    0    0  0.84754380769E+00 -0.25609326491E+00 -0.78046793502E+00  0.90007726954E+02  0.89999988149E+02 0.  0.
        -12    1    1    2    0    0 -0.84754380769E+00  0.25609326491E+00  0.78046793502E+00  0.11802730463E+01  0.00000000000E+00 0.  1.
         11    1    3    3    0    0  0.21633874604E+01 -0.35559577402E+02  0.10415681483E+02  0.37116710675E+02  0.51100000000E-03 0. -1.
        -11    1    3    3    0    0 -0.11117258425E+02 -0.16922925566E+01  0.36759430217E+01  0.11830885273E+02  0.51100000000E-03 0.  1.
        -12    1    3    3    0    0  0.98014147721E+01  0.36995776693E+02 -0.14872092440E+02  0.41060131006E+02  0.00000000000E+00 0.  1.
</event>
<event>
 7    1  0.2578619E-015  0.9000774E+02  0.7816164E-02  0.1186339E+00
        -11   -1    0    0    0    0  0.00000000000E+00  0.00000000000E+00  0.45593999997E+02  0.45594000000E+02  0.51100000000E-03 0. -1.
         11   -1    0    0    0    0 -0.00000000000E+00 -0.00000000000E+00 -0.45593999997E+02  0.45594000000E+02  0.51100000000E-03 0.  1.
    9900012    2    1    2    0    0 -0.70656236849E+00  0.24918535173E+00  0.91197142613E+00  0.90007739180E+02  0.90000000538E+02 0.  0.
        -12    1    1    2    0    0  0.70656236849E+00 -0.24918535173E+00 -0.91197142613E+00  0.11802608195E+01  0.00000000000E+00 0.  1.
         11    1    3    3    0    0 -0.14145574640E+02 -0.30042676678E+02  0.14581517445E+02  0.36266794112E+02  0.51100000000E-03 0. -1.
        -11    1    3    3    0    0 -0.69010447812E+01 -0.59894629583E+01  0.18916041378E+01  0.93314656981E+01  0.51100000000E-03 0.  1.
        -12    1    3    3    0    0  0.20340057053E+02  0.36281324988E+02 -0.15561150157E+02  0.44409479371E+02  0.00000000000E+00 0.  1.
</event>
<event>
 7    1  0.2578619E-015  0.9000784E+02  0.7816164E-02  0.1186339E+00
        -11   -1    0    0    0    0  0.00000000000E+00  0.00000000000E+00  0.45593999997E+02  0.45594000000E+02  0.51100000000E-03 0. -1.
         11   -1    0    0    0    0 -0.00000000000E+00 -0.00000000000E+00 -0.45593999997E+02  0.45594000000E+02  0.51100000000E-03 0.  1.
    9900012    2    1    2    0    0 -0.98142794874E+00  0.63744544398E+00 -0.15246203206E+00  0.90007838069E+02  0.90000100731E+02 0.  0.
        -12    1    1    2    0    0  0.98142794874E+00 -0.63744544398E+00  0.15246203206E+00  0.11801619312E+01  0.00000000000E+00 0.  1.
         11    1    3    3    0    0  0.36533571397E+01  0.67345974368E+01  0.65416441366E+01  0.10074469182E+02  0.51100000000E-03 0. -1.
        -11    1    3    3    0    0  0.13261129370E+02  0.31809040257E+02  0.82404119457E+01  0.35434121741E+02  0.51100000000E-03 0.  1.
         12    1    3    3    0    0 -0.17895914459E+02 -0.37906192250E+02 -0.14934518114E+02  0.44499247146E+02  0.00000000000E+00 0. -1.
</event>
<event>
 7    1  0.2578619E-015  0.9000768E+02  0.7816164E-02  0.1186339E+00
        -11   -1    0    0    0    0  0.00000000000E+00  0.00000000000E+00  0.45593999997E+02  0.45594000000E+02  0.51100000000E-03 0. -1.
         11   -1    0    0    0    0 -0.00000000000E+00 -0.00000000000E+00 -0.45593999997E+02  0.45594000000E+02  0.51100000000E-03 0.  1.
    9900012    2    1    2    0    0  0.69607533063E+00 -0.41928411706E+00  0.85605948706E+00  0.90007678907E+02  0.89999939469E+02 0.  0.
        -12    1    1    2    0    0 -0.69607533063E+00  0.41928411706E+00 -0.85605948706E+00  0.11803210928E+01  0.00000000000E+00 0.  1.
         11    1    3    3    0    0 -0.79082419551E+00 -0.36098372031E+02 -0.36017163073E+01  0.36286226407E+02  0.51100000000E-03 0. -1.
        -11    1    3    3    0    0 -0.10868999653E+02 -0.40683915350E+01 -0.13922728231E+01  0.11688686283E+02  0.51100000000E-03 0.  1.
        -12    1    3    3    0    0  0.12355899179E+02  0.39747479449E+02  0.58500486175E+01  0.42032766218E+02  0.00000000000E+00 0.  1.
</event>
<event>
 7    1  0.2578619E-015  0.9000772E+02  0.7816164E-02  0.1186339E+00
        -11   -1    0    0    0    0  0.00000000000E+00  0.00000000000E+00  0.45593999997E+02  0.45594000000E+02  0.51100000000E-03 0. -1.
         11   -1    0    0    0    0 -0.00000000000E+00 -0.00000000000E+00 -0.45593999997E+02  0.45594000000E+02  0.51100000000E-03 0.  1.
    9900012    2    1    2    0    0 -0.71806316804E+00 -0.85770354583E+00  0.37655097752E+00  0.90007720065E+02  0.89999981170E+02 0.  0.
        -12    1    1    2    0    0  0.71806316804E+00  0.85770354583E+00 -0.37655097752E+00  0.11802799348E+01  0.00000000000E+00 0.  1.
         11    1    3    3    0    0  0.11274248913E+02  0.89501388693E+01 -0.25365310194E+01  0.14616691288E+02  0.51100000000E-03 0. -1.
        -11    1    3    3    0    0  0.43851291427E+01 -0.36746065407E+02  0.17164266289E+02  0.40793562212E+02  0.51100000000E-03 0.  1.
         12    1    3    3    0    0 -0.16377441224E+02  0.26938222992E+02 -0.14251184292E+02  0.34597466565E+02  0.00000000000E+00 0. -1.
</event>
<event>
 7    1  0.2578619E-015  0.9000775E+02  0.7816164E-02  0.1186339E+00
        -11   -1    0    0    0    0  0.00000000000E+00  0.00000000000E+00  0.45593999997E+02  0.45594000000E+02  0.51100000000E-03 0. -1.
         11   -1    0    0    0    0 -0.00000000000E+00 -0.00000000000E+00 -0.45593999997E+02  0.45594000000E+02  0.51100000000E-03 0.  1.
    9900012    2    1    2    0    0 -0.89273831827E-01  0.89035635011E+00  0.76960339432E+00  0.90007748488E+02  0.90000009968E+02 0.  0.
        -12    1    1    2    0    0  0.89273831827E-01 -0.89035635011E+00 -0.76960339432E+00  0.11802515121E+01  0.00000000000E+00 0.  1.
         11    1    3    3    0    0 -0.56975432049E+01  0.10312071193E+02  0.54462115286E+01  0.12979292397E+02  0.51100000000E-03 0. -1.
        -11    1    3    3    0    0 -0.30791770477E+02 -0.13894036536E+02  0.13151347500E+02  0.36251004423E+02  0.51100000000E-03 0.  1.
         12    1    3    3    0    0  0.36400039850E+02  0.44723216937E+01 -0.17827955634E+02  0.40777451668E+02  0.00000000000E+00 0. -1.
</event>
<event>
 7    1  0.2578619E-015  0.9000774E+02  0.7816164E-02  0.1186339E+00
        -11   -1    0    0    0    0  0.00000000000E+00  0.00000000000E+00  0.45593999997E+02  0.45594000000E+02  0.51100000000E-03 0.  1.
         11   -1    0    0    0    0 -0.00000000000E+00 -0.00000000000E+00 -0.45593999997E+02  0.45594000000E+02  0.51100000000E-03 0. -1.
    9900012    2    1    2    0    0  0.68084733587E+00 -0.94333926065E+00 -0.19895537776E+00  0.90007735073E+02  0.89999996376E+02 0.  0.
        -12    1    1    2    0    0 -0.68084733587E+00  0.94333926065E+00  0.19895537776E+00  0.11802649269E+01  0.00000000000E+00 0.  1.
         11    1    3    3    0    0 -0.31216852963E+01 -0.67538345601E+01 -0.43632348335E+02  0.44262185010E+02  0.51100000000E-03 0. -1.
        -11    1    3    3    0    0  0.50718839161E+01 -0.17368461805E+01  0.90329453694E+01  0.10504034626E+02  0.51100000000E-03 0.  1.
        -12    1    3    3    0    0 -0.12693512839E+01  0.75473414800E+01  0.34400447588E+02  0.35241515438E+02  0.00000000000E+00 0.  1.
</event>
<event>
 7    1  0.2578619E-015  0.9000772E+02  0.7816164E-02  0.1186339E+00
        -11   -1    0    0    0    0  0.00000000000E+00  0.00000000000E+00  0.45593999997E+02  0.45594000000E+02  0.51100000000E-03 0.  1.
         11   -1    0    0    0    0 -0.00000000000E+00 -0.00000000000E+00 -0.45593999997E+02  0.45594000000E+02  0.51100000000E-03 0. -1.
    9900012    2    1    2    0    0  0.47810099913E+00 -0.10722133827E+01  0.12177729002E+00  0.90007723841E+02  0.89999984996E+02 0.  0.
        -12    1    1    2    0    0 -0.47810099913E+00  0.10722133827E+01 -0.12177729002E+00  0.11802761591E+01  0.00000000000E+00 0.  1.
         11    1    3    3    0    0  0.45816474806E+01  0.14308566124E+01  0.81866032781E+01  0.94899587868E+01  0.51100000000E-03 0. -1.
        -11    1    3    3    0    0  0.13287824897E+02 -0.21512442300E+02  0.27008982454E+02  0.36997791795E+02  0.51100000000E-03 0.  1.
         12    1    3    3    0    0 -0.17391371378E+02  0.19009372305E+02 -0.35073808442E+02  0.43519973259E+02  0.00000000000E+00 0. -1.
</event>
<event>
 7    1  0.2578619E-015  0.9000760E+02  0.7816164E-02  0.1186339E+00
        -11   -1    0    0    0    0  0.00000000000E+00  0.00000000000E+00  0.45593999997E+02  0.45594000000E+02  0.51100000000E-03 0. -1.
         11   -1    0    0    0    0 -0.00000000000E+00 -0.00000000000E+00 -0.45593999997E+02  0.45594000000E+02  0.51100000000E-03 0.  1.
    9900012    2    1    2    0    0  0.77193746105E+00  0.28566300037E+00  0.84608345133E+00  0.90007598373E+02  0.89999857872E+02 0.  0.
        -12    1    1    2    0    0 -0.77193746105E+00 -0.28566300037E+00 -0.84608345133E+00  0.11804016266E+01  0.00000000000E+00 0.  1.
         11    1    3    3    0    0 -0.53669529949E+01  0.53434541304E+01  0.72427438003E+01  0.10479218698E+02  0.51100000000E-03 0. -1.
        -11    1    3    3    0    0  0.86722550272E+01  0.27903231562E+02 -0.27649381061E+02  0.40227933233E+02  0.51100000000E-03 0.  1.
         12    1    3    3    0    0 -0.25333645713E+01 -0.32961022692E+02  0.21252720712E+02  0.39300446443E+02  0.00000000000E+00 0. -1.
</event>
<event>
 7    1  0.2578619E-015  0.9000775E+02  0.7816164E-02  0.1186339E+00
        -11   -1    0    0    0    0  0.00000000000E+00  0.00000000000E+00  0.45593999997E+02  0.45594000000E+02  0.51100000000E-03 0.  1.
         11   -1    0    0    0    0 -0.00000000000E+00 -0.00000000000E+00 -0.45593999997E+02  0.45594000000E+02  0.51100000000E-03 0. -1.
    9900012    2    1    2    0    0 -0.11137384333E+01 -0.25053332743E+00 -0.29967933648E+00  0.90007750895E+02  0.90000012407E+02 0.  0.
        -12    1    1    2    0    0  0.11137384333E+01  0.25053332743E+00  0.29967933648E+00  0.11802491053E+01  0.00000000000E+00 0.  1.
         11    1    3    3    0    0 -0.21542922920E+02 -0.86520088915E+01  0.30126468769E+02  0.38033654919E+02  0.51100000000E-03 0. -1.
        -11    1    3    3    0    0 -0.52833103026E+01  0.12781833173E+02 -0.30524940659E+01  0.14163557014E+02  0.51100000000E-03 0.  1.
        -12    1    3    3    0    0  0.25712494789E+02 -0.43803576087E+01 -0.27373654040E+02  0.37810538961E+02  0.00000000000E+00 0.  1.
</event>
<event>
 7    1  0.2578619E-015  0.9000768E+02  0.7816164E-02  0.1186339E+00
        -11   -1    0    0    0    0  0.00000000000E+00  0.00000000000E+00  0.45593999997E+02  0.45594000000E+02  0.51100000000E-03 0.  1.
         11   -1    0    0    0    0 -0.00000000000E+00 -0.00000000000E+00 -0.45593999997E+02  0.45594000000E+02  0.51100000000E-03 0. -1.
    9900012    2    1    2    0    0  0.18768673752E-01  0.35081161182E+00 -0.11268199596E+01  0.90007684673E+02  0.89999945311E+02 0.  0.
        -12    1    1    2    0    0 -0.18768673752E-01 -0.35081161182E+00  0.11268199596E+01  0.11803153271E+01  0.00000000000E+00 0.  1.
         11    1    3    3    0    0  0.82980023978E+01 -0.17097683735E+01  0.40694389712E+01  0.93989619366E+01  0.51100000000E-03 0. -1.
        -11    1    3    3    0    0 -0.74755720906E+00  0.19351450416E+02  0.32856234484E+02  0.38138820376E+02  0.51100000000E-03 0.  1.
         12    1    3    3    0    0 -0.75316765150E+01 -0.17290870430E+02 -0.38052493415E+02  0.42469902360E+02  0.00000000000E+00 0. -1.
</event>
<event>
 7    1  0.2578619E-015  0.9000775E+02  0.7816164E-02  0.1186339E+00
        -11   -1    0    0    0    0  0.00000000000E+00  0.00000000000E+00  0.45593999997E+02  0.45594000000E+02  0.51100000000E-03 0.  1.
         11   -1    0    0    0    0 -0.00000000000E+00 -0.00000000000E+00 -0.45593999997E+02  0.45594000000E+02  0.51100000000E-03 0. -1.
    9900012    2    1    2    0    0 -0.71122021331E+00  0.79732946080E+00 -0.50143005863E+00  0.90007745551E+02  0.90000006992E+02 0.  0.
        -12    1    1    2    0    0  0.71122021331E+00 -0.79732946080E+00  0.50143005863E+00  0.11802544491E+01  0.00000000000E+00 0.  1.
         11    1    3    3    0    0 -0.25527887092E+02  0.32059822154E+02 -0.13724675661E+02  0.43218884046E+02  0.51100000000E-03 0. -1.
        -11    1    3    3    0    0  0.36132038206E+01  0.20316886909E+01  0.49537299613E+01  0.64592911048E+01  0.51100000000E-03 0.  1.
        -12    1    3    3    0    0  0.21203463058E+02 -0.33294181384E+02  0.82695156415E+01  0.40329570400E+02  0.00000000000E+00 0.  1.
</event>
<event>
 7    1  0.2578619E-015  0.9000780E+02  0.7816164E-02  0.1186339E+00
        -11   -1    0    0    0    0  0.00000000000E+00  0.00000000000E+00  0.45593999997E+02  0.45594000000E+02  0.51100000000E-03 0. -1.
         11   -1    0    0    0    0 -0.00000000000E+00 -0.00000000000E+00 -0.45593999997E+02  0.45594000000E+02  0.51100000000E-03 0.  1.
    9900012    2    1    2    0    0 -0.91664538203E+00 -0.64410063277E+00  0.37117139165E+00  0.90007799770E+02  0.90000061927E+02 0.  0.
        -12    1    1    2    0    0  0.91664538203E+00  0.64410063277E+00 -0.37117139165E+00  0.11802002303E+01  0.00000000000E+00 0.  1.
         11    1    3    3    0    0 -0.10738453717E+02  0.26533245427E+02  0.17581058889E+02  0.33591980190E+02  0.51100000000E-03 0. -1.
        -11    1    3    3    0    0  0.13899304224E+02  0.94920514794E+01 -0.54519123151E+01  0.17692174749E+02  0.51100000000E-03 0.  1.
        -12    1    3    3    0    0 -0.40774958887E+01 -0.36669397539E+02 -0.11757975182E+02  0.38723644831E+02  0.00000000000E+00 0.  1.
</event>
<event>
 7    1  0.2578619E-015  0.9000770E+02  0.7816164E-02  0.1186339E+00
        -11   -1    0    0    0    0  0.00000000000E+00  0.00000000000E+00  0.45593999997E+02  0.45594000000E+02  0.51100000000E-03 0. -1.
         11   -1    0    0    0    0 -0.00000000000E+00 -0.00000000000E+00 -0.45593999997E+02  0.45594000000E+02  0.51100000000E-03 0.  1.
    9900012    2    1    2    0    0  0.11537434576E+01  0.19629867423E-01  0.24818850268E+00  0.90007700534E+02  0.89999961381E+02 0.  0.
        -12    1    1    2    0    0 -0.11537434576E+01 -0.19629867423E-01 -0.24818850268E+00  0.11802994665E+01  0.00000000000E+00 0.  1.
         11    1    3    3    0    0  0.16555741921E+01  0.11444916048E+02  0.38900192688E+02  0.40582656649E+02  0.51100000000E-03 0. -1.
        -11    1    3    3    0    0  0.22456308162E+01  0.45823595142E+00  0.42469237640E+01  0.48258884849E+01  0.51100000000E-03 0.  1.
        -12    1    3    3    0    0 -0.27474615507E+01 -0.11883522132E+02 -0.42898927949E+02  0.44599155400E+02  0.00000000000E+00 0.  1.
</event>
<event>
 7    1  0.2887805E-015  0.9000776E+02  0.7816164E-02  0.1186339E+00
        -11   -1    0    0    0    0  0.00000000000E+00  0.00000000000E+00  0.45593999997E+02  0.45594000000E+02  0.51100000000E-03 0.  1.
         11   -1    0    0    0    0 -0.00000000000E+00 -0.00000000000E+00 -0.45593999997E+02  0.45594000000E+02  0.51100000000E-03 0. -1.
    9900012    2    1    2    0    0 -0.85800837604E+00  0.17640339208E+00 -0.79098725172E+00  0.90007763853E+02  0.90000025536E+02 0.  0.
        -12    1    1    2    0    0  0.85800837604E+00 -0.17640339208E+00  0.79098725172E+00  0.11802361469E+01  0.00000000000E+00 0.  1.
         11    1    3    3    0    0 -0.11182993792E+01 -0.58855362019E+01  0.67528584499E+01  0.90272491597E+01  0.51100000000E-03 0. -1.
        -11    1    3    3    0    0 -0.17446411508E+02  0.26958042292E+02  0.23342941029E+02  0.39698944758E+02  0.51100000000E-03 0.  1.
         12    1    3    3    0    0  0.17706702511E+02 -0.20896102698E+02 -0.30886786731E+02  0.41281569936E+02  0.00000000000E+00 0. -1.
</event>
<event>
 7    1  0.2578619E-015  0.9000771E+02  0.7816164E-02  0.1186339E+00
        -11   -1    0    0    0    0  0.00000000000E+00  0.00000000000E+00  0.45593999997E+02  0.45594000000E+02  0.51100000000E-03 0.  1.
         11   -1    0    0    0    0 -0.00000000000E+00 -0.00000000000E+00 -0.45593999997E+02  0.45594000000E+02  0.51100000000E-03 0. -1.
    9900012    2    1    2    0    0  0.88610927380E+00  0.47745577212E+00 -0.61639222277E+00  0.90007706379E+02  0.89999967303E+02 0.  0.
        -12    1    1    2    0    0 -0.88610927380E+00 -0.47745577212E+00  0.61639222277E+00  0.11802936210E+01  0.00000000000E+00 0.  1.
         11    1    3    3    0    0  0.30312807936E+02  0.29008459070E+02 -0.14202611536E+02  0.44295272855E+02  0.51100000000E-03 0. -1.
        -11    1    3    3    0    0 -0.46395981253E+01 -0.92829515350E+01 -0.21607920245E+01  0.10600381238E+02  0.51100000000E-03 0.  1.
        -12    1    3    3    0    0 -0.24787100537E+02 -0.19248051763E+02  0.15747011337E+02  0.35112052286E+02  0.00000000000E+00 0.  1.
</event>
<event>
 7    1  0.2578619E-015  0.9000756E+02  0.7816164E-02  0.1186339E+00
        -11   -1    0    0    0    0  0.00000000000E+00  0.00000000000E+00  0.45593999997E+02  0.45594000000E+02  0.51100000000E-03 0. -1.
         11   -1    0    0    0    0 -0.00000000000E+00 -0.00000000000E+00 -0.45593999997E+02  0.45594000000E+02  0.51100000000E-03 0.  1.
    9900012    2    1    2    0    0 -0.61311185977E+00  0.24535953666E+00  0.97843249220E+00  0.90007560422E+02  0.89999819420E+02 0.  0.
        -12    1    1    2    0    0  0.61311185977E+00 -0.24535953666E+00 -0.97843249220E+00  0.11804395777E+01  0.00000000000E+00 0.  1.
         11    1    3    3    0    0 -0.11602385167E+02  0.39578349771E+02  0.63542029941E+01  0.41730528491E+02  0.51100000000E-03 0. -1.
        -11    1    3    3    0    0  0.10626307570E+01 -0.62933072115E+01  0.88911020392E+01  0.10944706278E+02  0.51100000000E-03 0.  1.
        -12    1    3    3    0    0  0.99266425502E+01 -0.33039683023E+02 -0.14266872541E+02  0.37332325653E+02  0.00000000000E+00 0.  1.
</event>
<event>
 7    1  0.2578619E-015  0.9000773E+02  0.7816164E-02  0.1186339E+00
        -11   -1    0    0    0    0  0.00000000000E+00  0.00000000000E+00  0.45593999997E+02  0.45594000000E+02  0.51100000000E-03 0.  1.
         11   -1    0    0    0    0 -0.00000000000E+00 -0.00000000000E+00 -0.45593999997E+02  0.45594000000E+02  0.51100000000E-03 0. -1.
    9900012    2    1    2    0    0 -0.11764122048E+01 -0.89137690711E-01 -0.33955795133E-01  0.90007727066E+02  0.89999988263E+02 0.  0.
        -12    1    1    2    0    0  0.11764122048E+01  0.89137690711E-01  0.33955795133E-01  0.11802729344E+01  0.00000000000E+00 0.  1.
         11    1    3    3    0    0 -0.23630996432E+02 -0.75386343387E+01 -0.74891280527E+01  0.25910268993E+02  0.51100000000E-03 0. -1.
        -11    1    3    3    0    0 -0.15057339006E+02 -0.79127993062E+01 -0.10254715747E+02  0.19861899358E+02  0.51100000000E-03 0.  1.
        -12    1    3    3    0    0  0.37511923233E+02  0.15362295954E+02  0.17709888005E+02  0.44235558714E+02  0.00000000000E+00 0.  1.
</event>
<event>
 7    1  0.2578619E-015  0.9000776E+02  0.7816164E-02  0.1186339E+00
        -11   -1    0    0    0    0  0.00000000000E+00  0.00000000000E+00  0.45593999997E+02  0.45594000000E+02  0.51100000000E-03 0.  1.
         11   -1    0    0    0    0 -0.00000000000E+00 -0.00000000000E+00 -0.45593999997E+02  0.45594000000E+02  0.51100000000E-03 0. -1.
    9900012    2    1    2    0    0  0.23644186471E+00  0.86592161977E+00 -0.76631764761E+00  0.90007759455E+02  0.90000021080E+02 0.  0.
        -12    1    1    2    0    0 -0.23644186471E+00 -0.86592161977E+00  0.76631764761E+00  0.11802405450E+01  0.00000000000E+00 0.  1.
         11    1    3    3    0    0 -0.26879878899E+02 -0.22842890804E+02 -0.20693614381E+02  0.40896836386E+02  0.51100000000E-03 0. -1.
        -11    1    3    3    0    0  0.82782558399E+01 -0.31285749472E+01 -0.27231196488E+01  0.92592052484E+01  0.51100000000E-03 0.  1.
        -12    1    3    3    0    0  0.18838064924E+02  0.26837387371E+02  0.22650416382E+02  0.39851717821E+02  0.00000000000E+00 0.  1.
</event>
<event>
 7    1  0.2578619E-015  0.9000772E+02  0.7816164E-02  0.1186339E+00
        -11   -1    0    0    0    0  0.00000000000E+00  0.00000000000E+00  0.45593999997E+02  0.45594000000E+02  0.51100000000E-03 0.  1.
         11   -1    0    0    0    0 -0.00000000000E+00 -0.00000000000E+00 -0.45593999997E+02  0.45594000000E+02  0.51100000000E-03 0. -1.
    9900012    2    1    2    0    0  0.63972819849E+00 -0.96870629203E+00 -0.21310000474E+00  0.90007722211E+02  0.89999983344E+02 0.  0.
        -12    1    1    2    0    0 -0.63972819849E+00  0.96870629203E+00  0.21310000474E+00  0.11802777894E+01  0.00000000000E+00 0.  1.
         11    1    3    3    0    0 -0.23712380979E+02 -0.32693121473E+02 -0.11617244608E+02  0.42024725768E+02  0.51100000000E-03 0. -1.
        -11    1    3    3    0    0  0.67556111751E+01  0.18264169319E+01 -0.59563415057E+01  0.91897815834E+01  0.51100000000E-03 0.  1.
        -12    1    3    3    0    0  0.17596498002E+02  0.29897998249E+02  0.17360486109E+02  0.38793214860E+02  0.00000000000E+00 0.  1.
</event>
<event>
 7    1  0.2578619E-015  0.9000773E+02  0.7816164E-02  0.1186339E+00
        -11   -1    0    0    0    0  0.00000000000E+00  0.00000000000E+00  0.45593999997E+02  0.45594000000E+02  0.51100000000E-03 0.  1.
         11   -1    0    0    0    0 -0.00000000000E+00 -0.00000000000E+00 -0.45593999997E+02  0.45594000000E+02  0.51100000000E-03 0. -1.
    9900012    2    1    2    0    0  0.18776883560E+00  0.43349940357E+00 -0.10815985001E+01  0.90007731309E+02  0.89999992562E+02 0.  0.
        -12    1    1    2    0    0 -0.18776883560E+00 -0.43349940357E+00  0.10815985001E+01  0.11802686914E+01  0.00000000000E+00 0.  1.
         11    1    3    3    0    0  0.94977483966E+01  0.14230179730E+01 -0.17702093239E+01  0.97655438183E+01  0.51100000000E-03 0. -1.
        -11    1    3    3    0    0  0.61039837510E+01 -0.62060192843E+01  0.38291929341E+02  0.39268882667E+02  0.51100000000E-03 0.  1.
         12    1    3    3    0    0 -0.15413963312E+02  0.52165007149E+01 -0.37603318517E+02  0.40973304824E+02  0.00000000000E+00 0. -1.
</event>
<event>
 7    1  0.2578619E-015  0.9000780E+02  0.7816164E-02  0.1186339E+00
        -11   -1    0    0    0    0  0.00000000000E+00  0.00000000000E+00  0.45593999997E+02  0.45594000000E+02  0.51100000000E-03 0.  1.
         11   -1    0    0    0    0 -0.00000000000E+00 -0.00000000000E+00 -0.45593999997E+02  0.45594000000E+02  0.51100000000E-03 0. -1.
    9900012    2    1    2    0    0 -0.47757286376E+00  0.10685187883E+01  0.15185871423E+00  0.90007801157E+02  0.90000063332E+02 0.  0.
        -12    1    1    2    0    0  0.47757286376E+00 -0.10685187883E+01 -0.15185871423E+00  0.11801988435E+01  0.00000000000E+00 0.  1.
         11    1    3    3    0    0  0.24762450426E+02  0.71367916761E+01 -0.34666957948E+02  0.43196188723E+02  0.51100000000E-03 0. -1.
        -11    1    3    3    0    0 -0.10434500610E+02  0.18408965732E+01  0.32929881097E+01  0.11095561010E+02  0.51100000000E-03 0.  1.
        -12    1    3    3    0    0 -0.14805522680E+02 -0.79091694611E+01  0.31525828552E+02  0.35716051424E+02  0.00000000000E+00 0.  1.
</event>
<event>
 7    1  0.3295034E-015  0.9000771E+02  0.7816164E-02  0.1186339E+00
        -11   -1    0    0    0    0  0.00000000000E+00  0.00000000000E+00  0.45593999997E+02  0.45594000000E+02  0.51100000000E-03 0.  1.
         11   -1    0    0    0    0 -0.00000000000E+00 -0.00000000000E+00 -0.45593999997E+02  0.45594000000E+02  0.51100000000E-03 0. -1.
    9900012    2    1    2    0    0  0.67151426191E+00 -0.12701416891E+00 -0.96229708689E+00  0.90007712032E+02  0.89999973031E+02 0.  0.
        -12    1    1    2    0    0 -0.67151426191E+00  0.12701416891E+00  0.96229708689E+00  0.11802879676E+01  0.00000000000E+00 0.  1.
         11    1    3    3    0    0  0.18676718154E+01 -0.17055250951E+01  0.92169416628E+01  0.95576685304E+01  0.51100000000E-03 0. -1.
        -11    1    3    3    0    0 -0.12284677998E+02  0.13262017405E+02  0.31193011010E+02  0.36052716337E+02  0.51100000000E-03 0.  1.
         12    1    3    3    0    0  0.11088520444E+02 -0.11683506479E+02 -0.41372249759E+02  0.44397327165E+02  0.00000000000E+00 0. -1.
</event>
<event>
 7    1  0.2578619E-015  0.9000738E+02  0.7816164E-02  0.1186340E+00
        -11   -1    0    0    0    0  0.00000000000E+00  0.00000000000E+00  0.45593999997E+02  0.45594000000E+02  0.51100000000E-03 0.  1.
         11   -1    0    0    0    0 -0.00000000000E+00 -0.00000000000E+00 -0.45593999997E+02  0.45594000000E+02  0.51100000000E-03 0. -1.
    9900012    2    1    2    0    0  0.11423369846E+01  0.29224083615E+00 -0.59323716680E-01  0.90007382451E+02  0.89999639099E+02 0.  0.
        -12    1    1    2    0    0 -0.11423369846E+01 -0.29224083615E+00  0.59323716680E-01  0.11806175486E+01  0.00000000000E+00 0.  1.
         11    1    3    3    0    0 -0.91992777547E-01  0.83547345029E+01  0.47542838457E+01  0.96131819098E+01  0.51100000000E-03 0. -1.
        -11    1    3    3    0    0  0.14714029954E+02  0.55752074120E+01  0.33799173955E+02  0.37282298420E+02  0.51100000000E-03 0.  1.
         12    1    3    3    0    0 -0.13479700192E+02 -0.13637701079E+02 -0.38612781518E+02  0.43111902121E+02  0.00000000000E+00 0. -1.
</event>
<event>
 7    1  0.2578619E-015  0.9000769E+02  0.7816164E-02  0.1186339E+00
        -11   -1    0    0    0    0  0.00000000000E+00  0.00000000000E+00  0.45593999997E+02  0.45594000000E+02  0.51100000000E-03 0.  1.
         11   -1    0    0    0    0 -0.00000000000E+00 -0.00000000000E+00 -0.45593999997E+02  0.45594000000E+02  0.51100000000E-03 0. -1.
    9900012    2    1    2    0    0  0.65611270652E+00  0.58092117645E+00 -0.79067559525E+00  0.90007694449E+02  0.89999955216E+02 0.  0.
        -12    1    1    2    0    0 -0.65611270652E+00 -0.58092117645E+00  0.79067559525E+00  0.11803055510E+01  0.00000000000E+00 0.  1.
         11    1    3    3    0    0 -0.33404583762E+02  0.87732917526E+01 -0.10800339655E+02  0.36186795954E+02  0.51100000000E-03 0. -1.
        -11    1    3    3    0    0 -0.14685823031E+01 -0.43455084668E+01 -0.11312058343E+02  0.12206672029E+02  0.51100000000E-03 0.  1.
        -12    1    3    3    0    0  0.35529278772E+02 -0.38468621094E+01  0.21321722402E+02  0.41614226466E+02  0.00000000000E+00 0.  1.
</event>
<event>
 7    1  0.2578619E-015  0.9000767E+02  0.7816164E-02  0.1186339E+00
        -11   -1    0    0    0    0  0.00000000000E+00  0.00000000000E+00  0.45593999997E+02  0.45594000000E+02  0.51100000000E-03 0.  1.
         11   -1    0    0    0    0 -0.00000000000E+00 -0.00000000000E+00 -0.45593999997E+02  0.45594000000E+02  0.51100000000E-03 0. -1.
    9900012    2    1    2    0    0 -0.94955196270E+00 -0.61407333545E-01 -0.69840584859E+00  0.90007665082E+02  0.89999925461E+02 0.  0.
        -12    1    1    2    0    0  0.94955196270E+00  0.61407333545E-01  0.69840584859E+00  0.11803349185E+01  0.00000000000E+00 0.  1.
         11    1    3    3    0    0  0.11282067460E+02 -0.41077909047E+01 -0.33753921581E+02  0.35825775841E+02  0.51100000000E-03 0. -1.
        -11    1    3    3    0    0  0.46984004805E+01  0.19741296290E+01 -0.81350704506E+01  0.95995586547E+01  0.51100000000E-03 0.  1.
        -12    1    3    3    0    0 -0.16930019903E+02  0.20722539421E+01  0.41190586183E+02  0.44582330585E+02  0.00000000000E+00 0.  1.
</event>
<event>
 7    1  0.2578619E-015  0.9000771E+02  0.7816164E-02  0.1186339E+00
        -11   -1    0    0    0    0  0.00000000000E+00  0.00000000000E+00  0.45593999997E+02  0.45594000000E+02  0.51100000000E-03 0.  1.
         11   -1    0    0    0    0 -0.00000000000E+00 -0.00000000000E+00 -0.45593999997E+02  0.45594000000E+02  0.51100000000E-03 0. -1.
    9900012    2    1    2    0    0  0.64755273556E+00 -0.47382012226E+00  0.86559507631E+00  0.90007709828E+02  0.89999970798E+02 0.  0.
        -12    1    1    2    0    0 -0.64755273556E+00  0.47382012226E+00 -0.86559507631E+00  0.11802901718E+01  0.00000000000E+00 0.  1.
         11    1    3    3    0    0  0.20761551778E+02  0.10180218442E+02 -0.30265045220E+02  0.38087423674E+02  0.51100000000E-03 0. -1.
        -11    1    3    3    0    0  0.84397889481E+01 -0.73190869032E+01  0.27099574369E+01  0.11495344282E+02  0.51100000000E-03 0.  1.
        -12    1    3    3    0    0 -0.28553787990E+02 -0.33349516613E+01  0.28420682859E+02  0.40424941872E+02  0.00000000000E+00 0.  1.
</event>
<event>
 7    1  0.2578619E-015  0.9000763E+02  0.7816164E-02  0.1186339E+00
        -11   -1    0    0    0    0  0.00000000000E+00  0.00000000000E+00  0.45593999997E+02  0.45594000000E+02  0.51100000000E-03 0.  1.
         11   -1    0    0    0    0 -0.00000000000E+00 -0.00000000000E+00 -0.45593999997E+02  0.45594000000E+02  0.51100000000E-03 0. -1.
    9900012    2    1    2    0    0 -0.92663682482E+00 -0.72051257076E+00 -0.12436941652E+00  0.90007634836E+02  0.89999894815E+02 0.  0.
        -12    1    1    2    0    0  0.92663682482E+00  0.72051257076E+00  0.12436941652E+00  0.11803651645E+01  0.00000000000E+00 0.  1.
         11    1    3    3    0    0  0.29135126797E+02  0.15376508182E+02 -0.12153827516E+02  0.35114215652E+02  0.51100000000E-03 0. -1.
        -11    1    3    3    0    0  0.71264748951E+01  0.41544006916E+01 -0.45475524014E+01  0.94194438606E+01  0.51100000000E-03 0.  1.
        -12    1    3    3    0    0 -0.37188238517E+02 -0.20251421444E+02  0.16577010501E+02  0.45473975323E+02  0.00000000000E+00 0.  1.
</event>
<event>
 7    1  0.2578619E-015  0.9000775E+02  0.7816164E-02  0.1186339E+00
        -11   -1    0    0    0    0  0.00000000000E+00  0.00000000000E+00  0.45593999997E+02  0.45594000000E+02  0.51100000000E-03 0.  1.
         11   -1    0    0    0    0 -0.00000000000E+00 -0.00000000000E+00 -0.45593999997E+02  0.45594000000E+02  0.51100000000E-03 0. -1.
    9900012    2    1    2    0    0 -0.29636938512E+00 -0.76495394821E+00 -0.84852920911E+00  0.90007749529E+02  0.90000011023E+02 0.  0.
        -12    1    1    2    0    0  0.29636938512E+00  0.76495394821E+00  0.84852920911E+00  0.11802504709E+01  0.00000000000E+00 0.  1.
         11    1    3    3    0    0 -0.12709824933E+01  0.79270429498E+01  0.95406366389E+00  0.80847785475E+01  0.51100000000E-03 0. -1.
        -11    1    3    3    0    0  0.32175035436E+02 -0.63612228837E+00  0.24404024782E+02  0.40388042571E+02  0.51100000000E-03 0.  1.
         12    1    3    3    0    0 -0.31200422328E+02 -0.80558746097E+01 -0.26206617655E+02  0.41534928411E+02  0.00000000000E+00 0. -1.
</event>
<event>
 7    1  0.2578619E-015  0.9000770E+02  0.7816164E-02  0.1186339E+00
        -11   -1    0    0    0    0  0.00000000000E+00  0.00000000000E+00  0.45593999997E+02  0.45594000000E+02  0.51100000000E-03 0.  1.
         11   -1    0    0    0    0 -0.00000000000E+00 -0.00000000000E+00 -0.45593999997E+02  0.45594000000E+02  0.51100000000E-03 0. -1.
    9900012    2    1    2    0    0  0.87511236845E+00 -0.27501730129E+00 -0.74273040474E+00  0.90007701467E+02  0.89999962326E+02 0.  0.
        -12    1    1    2    0    0 -0.87511236845E+00  0.27501730129E+00  0.74273040474E+00  0.11802985332E+01  0.00000000000E+00 0.  1.
         11    1    3    3    0    0  0.23049118432E+02  0.33881544062E+01 -0.28785861462E+02  0.37031976333E+02  0.51100000000E-03 0. -1.
        -11    1    3    3    0    0  0.37285166350E+01 -0.89831817833E+01 -0.47706884931E+01  0.10833229445E+02  0.51100000000E-03 0.  1.
        -12    1    3    3    0    0 -0.25902522699E+02  0.53200100759E+01  0.32813819550E+02  0.42142495688E+02  0.00000000000E+00 0.  1.
</event>
<event>
 7    1  0.2578619E-015  0.9000776E+02  0.7816164E-02  0.1186339E+00
        -11   -1    0    0    0    0  0.00000000000E+00  0.00000000000E+00  0.45593999997E+02  0.45594000000E+02  0.51100000000E-03 0.  1.
         11   -1    0    0    0    0 -0.00000000000E+00 -0.00000000000E+00 -0.45593999997E+02  0.45594000000E+02  0.51100000000E-03 0. -1.
    9900012    2    1    2    0    0  0.11049804254E+01 -0.28106544898E+00 -0.30493892724E+00  0.90007759653E+02  0.90000021281E+02 0.  0.
        -12    1    1    2    0    0 -0.11049804254E+01  0.28106544898E+00  0.30493892724E+00  0.11802403469E+01  0.00000000000E+00 0.  1.
         11    1    3    3    0    0  0.10276546891E+02 -0.33962072493E+01  0.15281980281E+00  0.10824277982E+02  0.51100000000E-03 0. -1.
        -11    1    3    3    0    0  0.70652217724E+01  0.38189782740E+02 -0.83745841448E+01  0.39730473497E+02  0.51100000000E-03 0.  1.
         12    1    3    3    0    0 -0.16236788238E+02 -0.35074640940E+02  0.79168254148E+01  0.39453008174E+02  0.00000000000E+00 0. -1.
</event>
<event>
 7    1  0.2578619E-015  0.9000749E+02  0.7816164E-02  0.1186340E+00
        -11   -1    0    0    0    0  0.00000000000E+00  0.00000000000E+00  0.45593999997E+02  0.45594000000E+02  0.51100000000E-03 0.  1.
         11   -1    0    0    0    0 -0.00000000000E+00 -0.00000000000E+00 -0.45593999997E+02  0.45594000000E+02  0.51100000000E-03 0. -1.
    9900012    2    1    2    0    0  0.15338060754E+00 -0.17874410847E+00 -0.11567781642E+01  0.90007487066E+02  0.89999745095E+02 0.  0.
        -12    1    1    2    0    0 -0.15338060754E+00  0.17874410847E+00  0.11567781642E+01  0.11805129344E+01  0.00000000000E+00 0.  1.
         11    1    3    3    0    0  0.11590884368E+02  0.14483644999E+02 -0.37856600203E+02  0.42157404475E+02  0.51100000000E-03 0. -1.
        -11    1    3    3    0    0 -0.97963245709E+01  0.12138461508E+01  0.26125162499E+01  0.10211103711E+02  0.51100000000E-03 0.  1.
        -12    1    3    3    0    0 -0.16411791897E+01 -0.15876235258E+02  0.34087305789E+02  0.37638978879E+02  0.00000000000E+00 0.  1.
</event>
<event>
 7    1  0.2578619E-015  0.9000786E+02  0.7816164E-02  0.1186339E+00
        -11   -1    0    0    0    0  0.00000000000E+00  0.00000000000E+00  0.45593999997E+02  0.45594000000E+02  0.51100000000E-03 0.  1.
         11   -1    0    0    0    0 -0.00000000000E+00 -0.00000000000E+00 -0.45593999997E+02  0.45594000000E+02  0.51100000000E-03 0. -1.
    9900012    2    1    2    0    0  0.33441120424E-01 -0.27110185129E+00 -0.11480901452E+01  0.90007862083E+02  0.90000125062E+02 0.  0.
        -12    1    1    2    0    0 -0.33441120424E-01  0.27110185129E+00  0.11480901452E+01  0.11801379173E+01  0.00000000000E+00 0.  1.
         11    1    3    3    0    0  0.65716615105E+01 -0.79631467485E+01  0.17293103234E+01  0.10468474368E+02  0.51100000000E-03 0. -1.
        -11    1    3    3    0    0  0.19916428079E+01  0.40321974439E+02 -0.15895509784E+02  0.43387734388E+02  0.51100000000E-03 0.  1.
         12    1    3    3    0    0 -0.85298631980E+01 -0.32629929542E+02  0.13018109316E+02  0.36151653326E+02  0.00000000000E+00 0. -1.
</event>
<event>
 7    1  0.2578619E-015  0.9000771E+02  0.7816164E-02  0.1186339E+00
        -11   -1    0    0    0    0  0.00000000000E+00  0.00000000000E+00  0.45593999997E+02  0.45594000000E+02  0.51100000000E-03 0.  1.
         11   -1    0    0    0    0 -0.00000000000E+00 -0.00000000000E+00 -0.45593999997E+02  0.45594000000E+02  0.51100000000E-03 0. -1.
    9900012    2    1    2    0    0  0.34259072459E+00  0.18058480939E+00 -0.11149498843E+01  0.90007706595E+02  0.89999967522E+02 0.  0.
        -12    1    1    2    0    0 -0.34259072459E+00 -0.18058480939E+00  0.11149498843E+01  0.11802934052E+01  0.00000000000E+00 0.  1.
         11    1    3    3    0    0  0.12056272731E+02  0.31393760952E+02 -0.25816517550E+02  0.42395925719E+02  0.51100000000E-03 0. -1.
        -11    1    3    3    0    0 -0.68707185372E+01 -0.46575482123E+01 -0.31008977157E+01  0.88608744191E+01  0.51100000000E-03 0.  1.
        -12    1    3    3    0    0 -0.48429634688E+01 -0.26555627930E+02  0.27802465382E+02  0.38750906457E+02  0.00000000000E+00 0.  1.
</event>
<event>
 7    1  0.2578619E-015  0.9000766E+02  0.7816164E-02  0.1186339E+00
        -11   -1    0    0    0    0  0.00000000000E+00  0.00000000000E+00  0.45593999997E+02  0.45594000000E+02  0.51100000000E-03 0. -1.
         11   -1    0    0    0    0 -0.00000000000E+00 -0.00000000000E+00 -0.45593999997E+02  0.45594000000E+02  0.51100000000E-03 0.  1.
    9900012    2    1    2    0    0 -0.11272239624E+01  0.10814404066E+00 -0.33297611299E+00  0.90007660182E+02  0.89999920496E+02 0.  0.
        -12    1    1    2    0    0  0.11272239624E+01 -0.10814404066E+00  0.33297611299E+00  0.11803398183E+01  0.00000000000E+00 0.  1.
         11    1    3    3    0    0 -0.92661617368E+01  0.31307098856E+02  0.22336324021E+02  0.39558912563E+02  0.51100000000E-03 0. -1.
        -11    1    3    3    0    0  0.84685695990E+01  0.26173252695E+01  0.13539673508E+01  0.89666209058E+01  0.51100000000E-03 0.  1.
        -12    1    3    3    0    0 -0.32963182467E+00 -0.33816280085E+02 -0.24023267485E+02  0.41482126713E+02  0.00000000000E+00 0.  1.
</event>
<event>
 7    1  0.2578619E-015  0.9000771E+02  0.7816164E-02  0.1186339E+00
        -11   -1    0    0    0    0  0.00000000000E+00  0.00000000000E+00  0.45593999997E+02  0.45594000000E+02  0.51100000000E-03 0. -1.
         11   -1    0    0    0    0 -0.00000000000E+00 -0.00000000000E+00 -0.45593999997E+02  0.45594000000E+02  0.51100000000E-03 0.  1.
    9900012    2    1    2    0    0 -0.60449413427E+00  0.89587032774E+00  0.47442923052E+00  0.90007711943E+02  0.89999972941E+02 0.  0.
        -12    1    1    2    0    0  0.60449413427E+00 -0.89587032774E+00 -0.47442923052E+00  0.11802880569E+01  0.00000000000E+00 0.  1.
         11    1    3    3    0    0  0.39968806528E+01 -0.13567667115E+02  0.37654638451E+02  0.40223481240E+02  0.51100000000E-03 0. -1.
        -11    1    3    3    0    0 -0.84687357057E+00  0.10742527211E+02  0.13795771550E+01  0.10863807763E+02  0.51100000000E-03 0.  1.
        -12    1    3    3    0    0 -0.37545012165E+01  0.37210102322E+01 -0.38559786376E+02  0.38920422940E+02  0.00000000000E+00 0.  1.
</event>
<event>
 7    1  0.2578619E-015  0.9000777E+02  0.7816164E-02  0.1186339E+00
        -11   -1    0    0    0    0  0.00000000000E+00  0.00000000000E+00  0.45593999997E+02  0.45594000000E+02  0.51100000000E-03 0. -1.
         11   -1    0    0    0    0 -0.00000000000E+00 -0.00000000000E+00 -0.45593999997E+02  0.45594000000E+02  0.51100000000E-03 0.  1.
    9900012    2    1    2    0    0  0.12147822025E+00 -0.92653341873E+00 -0.72091097165E+00  0.90007773851E+02  0.90000035666E+02 0.  0.
        -12    1    1    2    0    0 -0.12147822025E+00  0.92653341873E+00  0.72091097165E+00  0.11802261491E+01  0.00000000000E+00 0.  1.
         11    1    3    3    0    0  0.64300966837E+01  0.39657458144E+01  0.42196770249E+01  0.86532628344E+01  0.51100000000E-03 0. -1.
        -11    1    3    3    0    0 -0.17988542066E+02  0.35047436487E+02 -0.52375091529E+01  0.39740935475E+02  0.51100000000E-03 0.  1.
         12    1    3    3    0    0  0.11679923603E+02 -0.39939715721E+02  0.29692115629E+00  0.41613575542E+02  0.00000000000E+00 0. -1.
</event>
<event>
 7    1  0.2578619E-015  0.9000773E+02  0.7816164E-02  0.1186339E+00
        -11   -1    0    0    0    0  0.00000000000E+00  0.00000000000E+00  0.45593999997E+02  0.45594000000E+02  0.51100000000E-03 0.  1.
         11   -1    0    0    0    0 -0.00000000000E+00 -0.00000000000E+00 -0.45593999997E+02  0.45594000000E+02  0.51100000000E-03 0. -1.
    9900012    2    1    2    0    0 -0.17867202521E+00 -0.11053091382E+01  0.37335682478E+00  0.90007734224E+02  0.89999995516E+02 0.  0.
        -12    1    1    2    0    0  0.17867202521E+00  0.11053091382E+01 -0.37335682478E+00  0.11802657761E+01  0.00000000000E+00 0.  1.
         11    1    3    3    0    0 -0.67539245477E+01  0.16210616046E+02 -0.37621610715E+02  0.41518491813E+02  0.51100000000E-03 0. -1.
        -11    1    3    3    0    0  0.15958192380E+01  0.56560511494E+01  0.12497504310E+02  0.13810328305E+02  0.51100000000E-03 0.  1.
        -12    1    3    3    0    0  0.49794332845E+01 -0.22971976333E+02  0.25497463229E+02  0.34678914106E+02  0.00000000000E+00 0.  1.
</event>
<event>
 7    1  0.2578619E-015  0.9000747E+02  0.7816164E-02  0.1186340E+00
        -11   -1    0    0    0    0  0.00000000000E+00  0.00000000000E+00  0.45593999997E+02  0.45594000000E+02  0.51100000000E-03 0. -1.
         11   -1    0    0    0    0 -0.00000000000E+00 -0.00000000000E+00 -0.45593999997E+02  0.45594000000E+02  0.51100000000E-03 0.  1.
    9900012    2    1    2    0    0 -0.90979808055E+00  0.62639022175E+00 -0.41659193455E+00  0.90007472111E+02  0.89999729942E+02 0.  0.
        -12    1    1    2    0    0  0.90979808055E+00 -0.62639022175E+00  0.41659193455E+00  0.11805278892E+01  0.00000000000E+00 0.  1.
         11    1    3    3    0    0 -0.28675526141E+02  0.21378045809E+02 -0.82763028062E+01  0.36712447896E+02  0.51100000000E-03 0. -1.
        -11    1    3    3    0    0 -0.68296641940E+01  0.38637496623E+01 -0.45361330586E+01  0.90636293968E+01  0.51100000000E-03 0.  1.
        -12    1    3    3    0    0  0.34595392255E+02 -0.24615405249E+02  0.12395843930E+02  0.44231394818E+02  0.00000000000E+00 0.  1.
</event>
<event>
 7    1  0.2578619E-015  0.9000779E+02  0.7816164E-02  0.1186339E+00
        -11   -1    0    0    0    0  0.00000000000E+00  0.00000000000E+00  0.45593999997E+02  0.45594000000E+02  0.51100000000E-03 0.  1.
         11   -1    0    0    0    0 -0.00000000000E+00 -0.00000000000E+00 -0.45593999997E+02  0.45594000000E+02  0.51100000000E-03 0. -1.
    9900012    2    1    2    0    0  0.24569406497E+00  0.76966200126E+00 -0.86032036491E+00  0.90007789722E+02  0.90000051746E+02 0.  0.
        -12    1    1    2    0    0 -0.24569406497E+00 -0.76966200126E+00  0.86032036491E+00  0.11802102779E+01  0.00000000000E+00 0.  1.
         11    1    3    3    0    0 -0.78011307420E+01  0.69147508310E+01 -0.34202988769E+01  0.10971320093E+02  0.51100000000E-03 0. -1.
        -11    1    3    3    0    0 -0.68469708075E+01 -0.21836828907E+02  0.33931911417E+02  0.40928018747E+02  0.51100000000E-03 0.  1.
         12    1    3    3    0    0  0.14893795614E+02  0.15691740077E+02 -0.31371932905E+02  0.38108450882E+02  0.00000000000E+00 0. -1.
</event>
<event>
 7    1  0.2578619E-015  0.9000778E+02  0.7816164E-02  0.1186339E+00
        -11   -1    0    0    0    0  0.00000000000E+00  0.00000000000E+00  0.45593999997E+02  0.45594000000E+02  0.51100000000E-03 0.  1.
         11   -1    0    0    0    0 -0.00000000000E+00 -0.00000000000E+00 -0.45593999997E+02  0.45594000000E+02  0.51100000000E-03 0. -1.
    9900012    2    1    2    0    0  0.67999894220E+00  0.59516930425E+00 -0.75913559071E+00  0.90007783110E+02  0.90000045047E+02 0.  0.
        -12    1    1    2    0    0 -0.67999894220E+00 -0.59516930425E+00  0.75913559071E+00  0.11802168899E+01  0.00000000000E+00 0.  1.
         11    1    3    3    0    0 -0.55190006204E+01 -0.77222631798E+01 -0.89486233861E-01  0.94921401440E+01  0.51100000000E-03 0. -1.
        -11    1    3    3    0    0 -0.24931130926E+02 -0.24609926135E+02 -0.28701643443E+01  0.35148934511E+02  0.51100000000E-03 0.  1.
         12    1    3    3    0    0  0.31130130489E+02  0.32927358619E+02  0.22005149875E+01  0.45366708455E+02  0.00000000000E+00 0. -1.
</event>
<event>
 7    1  0.2578619E-015  0.9000767E+02  0.7816164E-02  0.1186339E+00
        -11   -1    0    0    0    0  0.00000000000E+00  0.00000000000E+00  0.45593999997E+02  0.45594000000E+02  0.51100000000E-03 0. -1.
         11   -1    0    0    0    0 -0.00000000000E+00 -0.00000000000E+00 -0.45593999997E+02  0.45594000000E+02  0.51100000000E-03 0.  1.
    9900012    2    1    2    0    0  0.44593773075E+00 -0.18896026658E+00  0.10763931571E+01  0.90007665865E+02  0.89999926254E+02 0.  0.
        -12    1    1    2    0    0 -0.44593773075E+00  0.18896026658E+00 -0.10763931571E+01  0.11803341352E+01  0.00000000000E+00 0.  1.
         11    1    3    3    0    0  0.18231817720E+02 -0.22326391285E+02  0.26641650234E+02  0.39251043969E+02  0.51100000000E-03 0. -1.
        -11    1    3    3    0    0 -0.80146837382E+01  0.20739583509E+01  0.72954685449E+01  0.11034505889E+02  0.51100000000E-03 0.  1.
        -12    1    3    3    0    0 -0.97711962515E+01  0.20063472667E+02 -0.32860725622E+02  0.39722116007E+02  0.00000000000E+00 0.  1.
</event>
<event>
 7    1  0.2578619E-015  0.9000771E+02  0.7816164E-02  0.1186339E+00
        -11   -1    0    0    0    0  0.00000000000E+00  0.00000000000E+00  0.45593999997E+02  0.45594000000E+02  0.51100000000E-03 0. -1.
         11   -1    0    0    0    0 -0.00000000000E+00 -0.00000000000E+00 -0.45593999997E+02  0.45594000000E+02  0.51100000000E-03 0.  1.
    9900012    2    1    2    0    0 -0.87791796543E+00 -0.64815679657E+00  0.44970868108E+00  0.90007709746E+02  0.89999970714E+02 0.  0.
        -12    1    1    2    0    0  0.87791796543E+00  0.64815679657E+00 -0.44970868108E+00  0.11802902545E+01  0.00000000000E+00 0.  1.
         11    1    3    3    0    0 -0.13770328606E+02  0.92045516768E+01  0.11345346169E+01  0.16602195354E+02  0.51100000000E-03 0. -1.
        -11    1    3    3    0    0  0.13897534808E+02  0.15429421639E+02 -0.28848774641E+02  0.35545187078E+02  0.51100000000E-03 0.  1.
         12    1    3    3    0    0 -0.10051241674E+01 -0.25282130112E+02  0.28163948706E+02  0.37860327314E+02  0.00000000000E+00 0. -1.
</event>
<event>
 7    1  0.2578619E-015  0.9000797E+02  0.7816164E-02  0.1186339E+00
        -11   -1    0    0    0    0  0.00000000000E+00  0.00000000000E+00  0.45593999997E+02  0.45594000000E+02  0.51100000000E-03 0.  1.
         11   -1    0    0    0    0 -0.00000000000E+00 -0.00000000000E+00 -0.45593999997E+02  0.45594000000E+02  0.51100000000E-03 0. -1.
    9900012    2    1    2    0    0  0.54123629405E+00 -0.84570387312E+00 -0.61994198191E+00  0.90007966175E+02  0.90000230528E+02 0.  0.
        -12    1    1    2    0    0 -0.54123629405E+00  0.84570387312E+00  0.61994198191E+00  0.11800338249E+01  0.00000000000E+00 0.  1.
         11    1    3    3    0    0  0.31372236348E+01 -0.23527136341E+01 -0.10976846702E+02  0.11656268586E+02  0.51100000000E-03 0. -1.
        -11    1    3    3    0    0  0.33005111713E+02 -0.15431942793E+02  0.13372321485E+02  0.38811096863E+02  0.51100000000E-03 0.  1.
         12    1    3    3    0    0 -0.35601099054E+02  0.16938952555E+02 -0.30154167649E+01  0.39540600726E+02  0.00000000000E+00 0. -1.
</event>
<event>
 7    1  0.2578619E-015  0.9000774E+02  0.7816164E-02  0.1186339E+00
        -11   -1    0    0    0    0  0.00000000000E+00  0.00000000000E+00  0.45593999997E+02  0.45594000000E+02  0.51100000000E-03 0. -1.
         11   -1    0    0    0    0 -0.00000000000E+00 -0.00000000000E+00 -0.45593999997E+02  0.45594000000E+02  0.51100000000E-03 0.  1.
    9900012    2    1    2    0    0 -0.44376910324E+00 -0.59652240071E-01  0.10920226789E+01  0.90007744545E+02  0.90000005973E+02 0.  0.
        -12    1    1    2    0    0  0.44376910324E+00  0.59652240071E-01 -0.10920226789E+01  0.11802554545E+01  0.00000000000E+00 0.  1.
         11    1    3    3    0    0 -0.32784122490E+02  0.14150817301E+02 -0.15975799630E+02  0.39118671908E+02  0.51100000000E-03 0. -1.
        -11    1    3    3    0    0  0.37145476015E+01  0.80486411866E+01 -0.31067110313E+01  0.93930901479E+01  0.51100000000E-03 0.  1.
        -12    1    3    3    0    0  0.28625805786E+02 -0.22259110728E+02  0.20174533341E+02  0.41495982490E+02  0.00000000000E+00 0.  1.
</event>
<event>
 7    1  0.2578619E-015  0.9000772E+02  0.7816164E-02  0.1186339E+00
        -11   -1    0    0    0    0  0.00000000000E+00  0.00000000000E+00  0.45593999997E+02  0.45594000000E+02  0.51100000000E-03 0.  1.
         11   -1    0    0    0    0 -0.00000000000E+00 -0.00000000000E+00 -0.45593999997E+02  0.45594000000E+02  0.51100000000E-03 0. -1.
    9900012    2    1    2    0    0 -0.33424665314E+00  0.93487799130E+00 -0.63822804369E+00  0.90007723456E+02  0.89999984606E+02 0.  0.
        -12    1    1    2    0    0  0.33424665314E+00 -0.93487799130E+00  0.63822804369E+00  0.11802765437E+01  0.00000000000E+00 0.  1.
         11    1    3    3    0    0  0.19759147398E+01 -0.35760952381E+01 -0.31770699175E+02  0.32032327773E+02  0.51100000000E-03 0. -1.
        -11    1    3    3    0    0 -0.71132900250E+01  0.74531459957E+01 -0.11229990647E+02  0.15240110577E+02  0.51100000000E-03 0.  1.
        -12    1    3    3    0    0  0.48031286320E+01 -0.29421727662E+01  0.42362461778E+02  0.42735285107E+02  0.00000000000E+00 0.  1.
</event>
<event>
 7    1  0.2578619E-015  0.9000721E+02  0.7816164E-02  0.1186340E+00
        -11   -1    0    0    0    0  0.00000000000E+00  0.00000000000E+00  0.45593999997E+02  0.45594000000E+02  0.51100000000E-03 0.  1.
         11   -1    0    0    0    0 -0.00000000000E+00 -0.00000000000E+00 -0.45593999997E+02  0.45594000000E+02  0.51100000000E-03 0. -1.
    9900012    2    1    2    0    0  0.54820007974E+00 -0.76831624358E+00 -0.70952719286E+00  0.90007211274E+02  0.89999465661E+02 0.  0.
        -12    1    1    2    0    0 -0.54820007974E+00  0.76831624358E+00  0.70952719286E+00  0.11807887258E+01  0.00000000000E+00 0.  1.
         11    1    3    3    0    0  0.39848572925E+01 -0.18835896393E+02 -0.82399763591E+01  0.20941998262E+02  0.51100000000E-03 0. -1.
        -11    1    3    3    0    0 -0.40728653147E+01 -0.22519174076E+02  0.15577915382E+02  0.27683440554E+02  0.51100000000E-03 0.  1.
         12    1    3    3    0    0  0.63620810194E+00  0.40586754225E+02 -0.80474662161E+01  0.41381772458E+02  0.00000000000E+00 0. -1.
</event>
<event>
 7    1  0.2578619E-015  0.9000759E+02  0.7816164E-02  0.1186339E+00
        -11   -1    0    0    0    0  0.00000000000E+00  0.00000000000E+00  0.45593999997E+02  0.45594000000E+02  0.51100000000E-03 0. -1.
         11   -1    0    0    0    0 -0.00000000000E+00 -0.00000000000E+00 -0.45593999997E+02  0.45594000000E+02  0.51100000000E-03 0.  1.
    9900012    2    1    2    0    0  0.38614072959E+00 -0.52515140656E+00  0.98411349491E+00  0.90007589887E+02  0.89999849274E+02 0.  0.
        -12    1    1    2    0    0 -0.38614072959E+00  0.52515140656E+00 -0.98411349491E+00  0.11804101125E+01  0.00000000000E+00 0.  1.
         11    1    3    3    0    0  0.32868382509E+02 -0.24151582382E+02 -0.43917877301E+01  0.41023375045E+02  0.51100000000E-03 0. -1.
        -11    1    3    3    0    0  0.27879739109E+01  0.33898229631E+01  0.70295659944E+01  0.82872490357E+01  0.51100000000E-03 0.  1.
        -12    1    3    3    0    0 -0.35270215691E+02  0.20236608012E+02 -0.16536647694E+01  0.40696965807E+02  0.00000000000E+00 0.  1.
</event>
<event>
 7    1  0.2578619E-015  0.9000773E+02  0.7816164E-02  0.1186339E+00
        -11   -1    0    0    0    0  0.00000000000E+00  0.00000000000E+00  0.45593999997E+02  0.45594000000E+02  0.51100000000E-03 0.  1.
         11   -1    0    0    0    0 -0.00000000000E+00 -0.00000000000E+00 -0.45593999997E+02  0.45594000000E+02  0.51100000000E-03 0. -1.
    9900012    2    1    2    0    0 -0.31087740724E+00 -0.80776447095E+00  0.80243260942E+00  0.90007734650E+02  0.89999995948E+02 0.  0.
        -12    1    1    2    0    0  0.31087740724E+00  0.80776447095E+00 -0.80243260942E+00  0.11802653496E+01  0.00000000000E+00 0.  1.
         11    1    3    3    0    0 -0.57028191629E+01  0.19727187434E+01 -0.76932691038E+01  0.97775331966E+01  0.51100000000E-03 0. -1.
        -11    1    3    3    0    0 -0.17867182325E+02  0.25343354403E+02  0.25329914214E+02  0.40039060566E+02  0.51100000000E-03 0.  1.
         12    1    3    3    0    0  0.23259124080E+02 -0.28123837618E+02 -0.16834212501E+02  0.40191140888E+02  0.00000000000E+00 0. -1.
</event>
<event>
 7    1  0.2578619E-015  0.9000774E+02  0.7816164E-02  0.1186339E+00
        -11   -1    0    0    0    0  0.00000000000E+00  0.00000000000E+00  0.45593999997E+02  0.45594000000E+02  0.51100000000E-03 0.  1.
         11   -1    0    0    0    0 -0.00000000000E+00 -0.00000000000E+00 -0.45593999997E+02  0.45594000000E+02  0.51100000000E-03 0. -1.
    9900012    2    1    2    0    0  0.17107840798E+00 -0.94294142612E+00  0.68892425245E+00  0.90007736055E+02  0.89999997371E+02 0.  0.
        -12    1    1    2    0    0 -0.17107840798E+00  0.94294142612E+00 -0.68892425245E+00  0.11802639452E+01  0.00000000000E+00 0.  1.
         11    1    3    3    0    0  0.21480138311E+02  0.14900706295E+02 -0.19861440695E+02  0.32831451639E+02  0.51100000000E-03 0. -1.
        -11    1    3    3    0    0  0.13619359758E+01 -0.20175308636E+02 -0.68501125850E+01  0.21349988076E+02  0.51100000000E-03 0.  1.
        -12    1    3    3    0    0 -0.22670995879E+02  0.43316609151E+01  0.27400477532E+02  0.35826296340E+02  0.00000000000E+00 0.  1.
</event>
<event>
 7    1  0.2578619E-015  0.9000780E+02  0.7816164E-02  0.1186339E+00
        -11   -1    0    0    0    0  0.00000000000E+00  0.00000000000E+00  0.45593999997E+02  0.45594000000E+02  0.51100000000E-03 0. -1.
         11   -1    0    0    0    0 -0.00000000000E+00 -0.00000000000E+00 -0.45593999997E+02  0.45594000000E+02  0.51100000000E-03 0.  1.
    9900012    2    1    2    0    0 -0.40247828032E+00 -0.93891623833E+00  0.59102352418E+00  0.90007804561E+02  0.90000066781E+02 0.  0.
        -12    1    1    2    0    0  0.40247828032E+00  0.93891623833E+00 -0.59102352418E+00  0.11801954393E+01  0.00000000000E+00 0.  1.
         11    1    3    3    0    0  0.29520935442E+00  0.87518385731E+00 -0.77270645919E+01  0.77820705995E+01  0.51100000000E-03 0. -1.
        -11    1    3    3    0    0  0.19485381764E+02 -0.74325628584E+01 -0.31182197390E+02  0.37513364652E+02  0.51100000000E-03 0.  1.
         12    1    3    3    0    0 -0.20183069399E+02  0.56184627628E+01  0.39500285506E+02  0.44712369309E+02  0.00000000000E+00 0. -1.
</event>
<event>
 7    1  0.2578619E-015  0.9000778E+02  0.7816164E-02  0.1186339E+00
        -11   -1    0    0    0    0  0.00000000000E+00  0.00000000000E+00  0.45593999997E+02  0.45594000000E+02  0.51100000000E-03 0. -1.
         11   -1    0    0    0    0 -0.00000000000E+00 -0.00000000000E+00 -0.45593999997E+02  0.45594000000E+02  0.51100000000E-03 0.  1.
    9900012    2    1    2    0    0  0.10140334329E+01  0.60082297671E+00 -0.60566973813E-01  0.90007779508E+02  0.90000041397E+02 0.  0.
        -12    1    1    2    0    0 -0.10140334329E+01 -0.60082297671E+00  0.60566973813E-01  0.11802204924E+01  0.00000000000E+00 0.  1.
         11    1    3    3    0    0  0.31117563953E+02 -0.12839128985E+02 -0.10719257665E+02  0.35327729967E+02  0.51100000000E-03 0. -1.
        -11    1    3    3    0    0 -0.24107413882E+01  0.13283654131E+02 -0.12636555730E+02  0.18491881519E+02  0.51100000000E-03 0.  1.
        -12    1    3    3    0    0 -0.27692789132E+02  0.15629783017E+00  0.23295246421E+02  0.36188168022E+02  0.00000000000E+00 0.  1.
</event>
<event>
 7    1  0.2578619E-015  0.9000691E+02  0.7816164E-02  0.1186341E+00
        -11   -1    0    0    0    0  0.00000000000E+00  0.00000000000E+00  0.45593999997E+02  0.45594000000E+02  0.51100000000E-03 0. -1.
         11   -1    0    0    0    0 -0.00000000000E+00 -0.00000000000E+00 -0.45593999997E+02  0.45594000000E+02  0.51100000000E-03 0.  1.
    9900012    2    1    2    0    0 -0.10378813537E+01  0.55044661962E-01  0.56102604419E+00  0.90006908199E+02  0.89999158584E+02 0.  0.
        -12    1    1    2    0    0  0.10378813537E+01 -0.55044661962E-01 -0.56102604419E+00  0.11810918006E+01  0.00000000000E+00 0.  1.
         11    1    3    3    0    0 -0.93545015848E+01  0.30864514476E+02 -0.12921759876E+02  0.34743299099E+02  0.51100000000E-03 0. -1.
        -11    1    3    3    0    0 -0.57077849825E+01  0.87787751249E+01 -0.16925613431E+01  0.10607095091E+02  0.51100000000E-03 0.  1.
        -12    1    3    3    0    0  0.14024405214E+02 -0.39588244939E+02  0.15175347263E+02  0.44656514010E+02  0.00000000000E+00 0.  1.
</event>
<event>
 7    1  0.2578619E-015  0.9000775E+02  0.7816164E-02  0.1186339E+00
        -11   -1    0    0    0    0  0.00000000000E+00  0.00000000000E+00  0.45593999997E+02  0.45594000000E+02  0.51100000000E-03 0. -1.
         11   -1    0    0    0    0 -0.00000000000E+00 -0.00000000000E+00 -0.45593999997E+02  0.45594000000E+02  0.51100000000E-03 0.  1.
    9900012    2    1    2    0    0  0.76876833812E+00  0.78119424041E+00  0.43785852452E+00  0.90007750329E+02  0.90000011833E+02 0.  0.
        -12    1    1    2    0    0 -0.76876833812E+00 -0.78119424041E+00 -0.43785852452E+00  0.11802496712E+01  0.00000000000E+00 0.  1.
         11    1    3    3    0    0  0.66463572396E+01 -0.30535607595E+02  0.16856419761E+02  0.35506848399E+02  0.51100000000E-03 0. -1.
        -11    1    3    3    0    0  0.71185167638E+01 -0.49435083066E+01  0.54199481386E+01  0.10221907522E+02  0.51100000000E-03 0.  1.
        -12    1    3    3    0    0 -0.12996105665E+02  0.36260310142E+02 -0.21838509375E+02  0.44278994408E+02  0.00000000000E+00 0.  1.
</event>
<event>
 7    1  0.2578619E-015  0.9000773E+02  0.7816164E-02  0.1186339E+00
        -11   -1    0    0    0    0  0.00000000000E+00  0.00000000000E+00  0.45593999997E+02  0.45594000000E+02  0.51100000000E-03 0.  1.
         11   -1    0    0    0    0 -0.00000000000E+00 -0.00000000000E+00 -0.45593999997E+02  0.45594000000E+02  0.51100000000E-03 0. -1.
    9900012    2    1    2    0    0  0.11724799063E+01 -0.58604998770E-01 -0.12207836494E+00  0.90007725962E+02  0.89999987145E+02 0.  0.
        -12    1    1    2    0    0 -0.11724799063E+01  0.58604998770E-01  0.12207836494E+00  0.11802740376E+01  0.00000000000E+00 0.  1.
         11    1    3    3    0    0 -0.29971013397E+01 -0.26714136448E+02 -0.31381588737E+02  0.41321081962E+02  0.51100000000E-03 0. -1.
        -11    1    3    3    0    0  0.63520369055E+01  0.84113712813E+01 -0.19629522186E+01  0.10721600690E+02  0.51100000000E-03 0.  1.
        -12    1    3    3    0    0 -0.21824556596E+01  0.18244160168E+02  0.33222462591E+02  0.37965043310E+02  0.00000000000E+00 0.  1.
</event>
<event>
 7    1  0.2578619E-015  0.9000774E+02  0.7816164E-02  0.1186339E+00
        -11   -1    0    0    0    0  0.00000000000E+00  0.00000000000E+00  0.45593999997E+02  0.45594000000E+02  0.51100000000E-03 0.  1.
         11   -1    0    0    0    0 -0.00000000000E+00 -0.00000000000E+00 -0.45593999997E+02  0.45594000000E+02  0.51100000000E-03 0. -1.
    9900012    2    1    2    0    0  0.49273349703E+00  0.10580875021E+01  0.17515558925E+00  0.90007739460E+02  0.90000000821E+02 0.  0.
        -12    1    1    2    0    0 -0.49273349703E+00 -0.10580875021E+01 -0.17515558925E+00  0.11802605397E+01  0.00000000000E+00 0.  1.
         11    1    3    3    0    0  0.21394866200E+02 -0.21562070227E+02  0.13226876784E+02  0.33130249651E+02  0.51100000000E-03 0. -1.
        -11    1    3    3    0    0  0.10002734174E+02 -0.70891891807E+01 -0.77236250985E+00  0.12284455149E+02  0.51100000000E-03 0.  1.
        -12    1    3    3    0    0 -0.30904866877E+02  0.29709346910E+02 -0.12279358685E+02  0.44593034660E+02  0.00000000000E+00 0.  1.
</event>
<event>
 7    1  0.2578619E-015  0.9000774E+02  0.7816164E-02  0.1186339E+00
        -11   -1    0    0    0    0  0.00000000000E+00  0.00000000000E+00  0.45593999997E+02  0.45594000000E+02  0.51100000000E-03 0. -1.
         11   -1    0    0    0    0 -0.00000000000E+00 -0.00000000000E+00 -0.45593999997E+02  0.45594000000E+02  0.51100000000E-03 0.  1.
    9900012    2    1    2    0    0  0.11661566648E+01  0.55383235529E-01 -0.17324575344E+00  0.90007744621E+02  0.90000006050E+02 0.  0.
        -12    1    1    2    0    0 -0.11661566648E+01 -0.55383235529E-01  0.17324575344E+00  0.11802553795E+01  0.00000000000E+00 0.  1.
         11    1    3    3    0    0  0.34275389171E+02  0.66819259571E+01  0.11016351124E+02  0.36617078388E+02  0.51100000000E-03 0. -1.
        -11    1    3    3    0    0  0.75038008942E+01  0.59281410058E+01 -0.59724732796E+00  0.95815754590E+01  0.51100000000E-03 0.  1.
        -12    1    3    3    0    0 -0.40613033400E+02 -0.12554683727E+02 -0.10592349550E+02  0.43809090774E+02  0.00000000000E+00 0.  1.
</event>
<event>
 7    1  0.2578619E-015  0.9000771E+02  0.7816164E-02  0.1186339E+00
        -11   -1    0    0    0    0  0.00000000000E+00  0.00000000000E+00  0.45593999997E+02  0.45594000000E+02  0.51100000000E-03 0.  1.
         11   -1    0    0    0    0 -0.00000000000E+00 -0.00000000000E+00 -0.45593999997E+02  0.45594000000E+02  0.51100000000E-03 0. -1.
    9900012    2    1    2    0    0 -0.81172157242E+00 -0.47450337605E+00 -0.71346402970E+00  0.90007713473E+02  0.89999974490E+02 0.  0.
        -12    1    1    2    0    0  0.81172157242E+00  0.47450337605E+00  0.71346402970E+00  0.11802865274E+01  0.00000000000E+00 0.  1.
         11    1    3    3    0    0 -0.83194355469E+01  0.12846478885E+02 -0.33829232038E+02  0.37130337571E+02  0.51100000000E-03 0. -1.
        -11    1    3    3    0    0  0.26511526265E-04  0.91861878267E+01 -0.30014102050E+01  0.96640835193E+01  0.51100000000E-03 0.  1.
        -12    1    3    3    0    0  0.75076874629E+01 -0.22507170088E+02  0.36117178214E+02  0.43213292382E+02  0.00000000000E+00 0.  1.
</event>
<event>
 7    1  0.2578619E-015  0.9000740E+02  0.7816164E-02  0.1186340E+00
        -11   -1    0    0    0    0  0.00000000000E+00  0.00000000000E+00  0.45593999997E+02  0.45594000000E+02  0.51100000000E-03 0.  1.
         11   -1    0    0    0    0 -0.00000000000E+00 -0.00000000000E+00 -0.45593999997E+02  0.45594000000E+02  0.51100000000E-03 0. -1.
    9900012    2    1    2    0    0  0.20489407881E+00 -0.27040486071E+00 -0.11308028033E+01  0.90007400427E+02  0.89999657312E+02 0.  0.
        -12    1    1    2    0    0 -0.20489407881E+00  0.27040486071E+00  0.11308028033E+01  0.11805995731E+01  0.00000000000E+00 0.  1.
         11    1    3    3    0    0 -0.42870477917E+01  0.56598168510E+01  0.56349691258E+01  0.90645012474E+01  0.51100000000E-03 0. -1.
        -11    1    3    3    0    0 -0.13997571552E+02  0.15288301776E+02  0.28865614376E+02  0.35537133735E+02  0.51100000000E-03 0.  1.
         12    1    3    3    0    0  0.18489513422E+02 -0.21218523488E+02 -0.35631386305E+02  0.45405765444E+02  0.00000000000E+00 0. -1.
</event>
<event>
 7    1  0.2578619E-015  0.9000770E+02  0.7816164E-02  0.1186339E+00
        -11   -1    0    0    0    0  0.00000000000E+00  0.00000000000E+00  0.45593999997E+02  0.45594000000E+02  0.51100000000E-03 0. -1.
         11   -1    0    0    0    0 -0.00000000000E+00 -0.00000000000E+00 -0.45593999997E+02  0.45594000000E+02  0.51100000000E-03 0.  1.
    9900012    2    1    2    0    0 -0.85931526679E-01  0.82625105248E+00  0.83846608904E+00  0.90007703253E+02  0.89999964136E+02 0.  0.
        -12    1    1    2    0    0  0.85931526679E-01 -0.82625105248E+00 -0.83846608904E+00  0.11802967472E+01  0.00000000000E+00 0.  1.
         11    1    3    3    0    0 -0.20490477672E+02 -0.89610276928E+01  0.10019248324E+02  0.24506020276E+02  0.51100000000E-03 0. -1.
        -11    1    3    3    0    0 -0.12071147575E+02  0.19461152956E+02 -0.19501220232E+02  0.30079007114E+02  0.51100000000E-03 0.  1.
         12    1    3    3    0    0  0.32475693720E+02 -0.96738742105E+01  0.10320437997E+02  0.35422675863E+02  0.00000000000E+00 0. -1.
</event>
<event>
 7    1  0.2578619E-015  0.9000774E+02  0.7816164E-02  0.1186339E+00
        -11   -1    0    0    0    0  0.00000000000E+00  0.00000000000E+00  0.45593999997E+02  0.45594000000E+02  0.51100000000E-03 0.  1.
         11   -1    0    0    0    0 -0.00000000000E+00 -0.00000000000E+00 -0.45593999997E+02  0.45594000000E+02  0.51100000000E-03 0. -1.
    9900012    2    1    2    0    0  0.55598470991E+00  0.10284046668E+01 -0.16208808308E+00  0.90007742527E+02  0.90000003928E+02 0.  0.
        -12    1    1    2    0    0 -0.55598470991E+00 -0.10284046668E+01  0.16208808308E+00  0.11802574732E+01  0.00000000000E+00 0.  1.
         11    1    3    3    0    0 -0.62432953701E+01  0.29201601833E+02 -0.36043793460E+01  0.30078295121E+02  0.51100000000E-03 0. -1.
        -11    1    3    3    0    0 -0.54767214899E+01  0.59925697680E+01 -0.16586594427E+02  0.18466739984E+02  0.51100000000E-03 0.  1.
        -12    1    3    3    0    0  0.12276001570E+02 -0.34165766934E+02  0.20028885690E+02  0.41462707421E+02  0.00000000000E+00 0.  1.
</event>
<event>
 7    1  0.2578619E-015  0.9000780E+02  0.7816164E-02  0.1186339E+00
        -11   -1    0    0    0    0  0.00000000000E+00  0.00000000000E+00  0.45593999997E+02  0.45594000000E+02  0.51100000000E-03 0. -1.
         11   -1    0    0    0    0 -0.00000000000E+00 -0.00000000000E+00 -0.45593999997E+02  0.45594000000E+02  0.51100000000E-03 0.  1.
    9900012    2    1    2    0    0 -0.46311021362E+00  0.80011098588E+00  0.73364466903E+00  0.90007795289E+02  0.90000057387E+02 0.  0.
        -12    1    1    2    0    0  0.46311021362E+00 -0.80011098588E+00 -0.73364466903E+00  0.11802047111E+01  0.00000000000E+00 0.  1.
         11    1    3    3    0    0  0.37952681711E+01 -0.35411997340E+02  0.13765192134E+02  0.38182379848E+02  0.51100000000E-03 0. -1.
        -11    1    3    3    0    0  0.70276286523E+01 -0.41386937943E+01 -0.33821475347E+01  0.88292283358E+01  0.51100000000E-03 0.  1.
        -12    1    3    3    0    0 -0.11286007037E+02  0.40350802120E+02 -0.96493999301E+01  0.42996187105E+02  0.00000000000E+00 0.  1.
</event>
<event>
 7    1  0.2578619E-015  0.9000770E+02  0.7816164E-02  0.1186339E+00
        -11   -1    0    0    0    0  0.00000000000E+00  0.00000000000E+00  0.45593999997E+02  0.45594000000E+02  0.51100000000E-03 0. -1.
         11   -1    0    0    0    0 -0.00000000000E+00 -0.00000000000E+00 -0.45593999997E+02  0.45594000000E+02  0.51100000000E-03 0.  1.
    9900012    2    1    2    0    0  0.36608202058E+00  0.15671721820E+00  0.11110914888E+01  0.90007703161E+02  0.89999964042E+02 0.  0.
        -12    1    1    2    0    0 -0.36608202058E+00 -0.15671721820E+00 -0.11110914888E+01  0.11802968393E+01  0.00000000000E+00 0.  1.
         11    1    3    3    0    0  0.38239735894E+01 -0.93049078484E+01 -0.75964471295E+00  0.10088664155E+02  0.51100000000E-03 0. -1.
        -11    1    3    3    0    0  0.31447596631E+02 -0.14159723176E+02 -0.10399756989E+02  0.36022271444E+02  0.51100000000E-03 0.  1.
         12    1    3    3    0    0 -0.34905488199E+02  0.23621348243E+02  0.12270493191E+02  0.43896767562E+02  0.00000000000E+00 0. -1.
</event>
<event>
 7    1  0.2578619E-015  0.9000768E+02  0.7816164E-02  0.1186339E+00
        -11   -1    0    0    0    0  0.00000000000E+00  0.00000000000E+00  0.45593999997E+02  0.45594000000E+02  0.51100000000E-03 0.  1.
         11   -1    0    0    0    0 -0.00000000000E+00 -0.00000000000E+00 -0.45593999997E+02  0.45594000000E+02  0.51100000000E-03 0. -1.
    9900012    2    1    2    0    0  0.11318142515E+01 -0.33278174591E+00  0.37450890600E-01  0.90007682348E+02  0.89999942955E+02 0.  0.
        -12    1    1    2    0    0 -0.11318142515E+01  0.33278174591E+00 -0.37450890600E-01  0.11803176519E+01  0.00000000000E+00 0.  1.
         11    1    3    3    0    0  0.68657938901E+01  0.71679884023E+01 -0.78688600717E+00  0.99568254643E+01  0.51100000000E-03 0. -1.
        -11    1    3    3    0    0 -0.19803565816E+02  0.15019686378E+02  0.31079245930E+02  0.39795624455E+02  0.51100000000E-03 0.  1.
         12    1    3    3    0    0  0.14069586177E+02 -0.22520456526E+02 -0.30254909032E+02  0.40255232429E+02  0.00000000000E+00 0. -1.
</event>
<event>
 7    1  0.2578619E-015  0.9000772E+02  0.7816164E-02  0.1186339E+00
        -11   -1    0    0    0    0  0.00000000000E+00  0.00000000000E+00  0.45593999997E+02  0.45594000000E+02  0.51100000000E-03 0.  1.
         11   -1    0    0    0    0 -0.00000000000E+00 -0.00000000000E+00 -0.45593999997E+02  0.45594000000E+02  0.51100000000E-03 0. -1.
    9900012    2    1    2    0    0 -0.45851424195E+00  0.12898874638E+00 -0.10798978456E+01  0.90007723438E+02  0.89999984587E+02 0.  0.
        -12    1    1    2    0    0  0.45851424195E+00 -0.12898874638E+00  0.10798978456E+01  0.11802765624E+01  0.00000000000E+00 0.  1.
         11    1    3    3    0    0  0.10478153278E+02  0.20640825082E+02 -0.30866401957E+02  0.38581992253E+02  0.51100000000E-03 0. -1.
        -11    1    3    3    0    0  0.80802060662E+01  0.85798728254E+00 -0.22942848206E+01  0.84433177927E+01  0.51100000000E-03 0.  1.
        -12    1    3    3    0    0 -0.19016873586E+02 -0.21369823619E+02  0.32080788932E+02  0.42982413392E+02  0.00000000000E+00 0.  1.
</event>
<event>
 7    1  0.2578619E-015  0.9000762E+02  0.7816164E-02  0.1186339E+00
        -11   -1    0    0    0    0  0.00000000000E+00  0.00000000000E+00  0.45593999997E+02  0.45594000000E+02  0.51100000000E-03 0.  1.
         11   -1    0    0    0    0 -0.00000000000E+00 -0.00000000000E+00 -0.45593999997E+02  0.45594000000E+02  0.51100000000E-03 0. -1.
    9900012    2    1    2    0    0 -0.94317297292E+00 -0.70732222571E+00 -0.58544466505E-01  0.90007615553E+02  0.89999875278E+02 0.  0.
        -12    1    1    2    0    0  0.94317297292E+00  0.70732222571E+00  0.58544466505E-01  0.11803844469E+01  0.00000000000E+00 0.  1.
         11    1    3    3    0    0 -0.32895117307E+01 -0.40914870032E+02  0.81407638260E+01  0.41846379928E+02  0.51100000000E-03 0. -1.
        -11    1    3    3    0    0 -0.33514320687E+01  0.35111932441E+01 -0.98579373354E+01  0.10988152878E+02  0.51100000000E-03 0.  1.
        -12    1    3    3    0    0  0.56977708265E+01  0.36696354562E+02  0.16586290429E+01  0.37173082746E+02  0.00000000000E+00 0.  1.
</event>
<event>
 7    1  0.2578619E-015  0.9000742E+02  0.7816164E-02  0.1186340E+00
        -11   -1    0    0    0    0  0.00000000000E+00  0.00000000000E+00  0.45593999997E+02  0.45594000000E+02  0.51100000000E-03 0. -1.
         11   -1    0    0    0    0 -0.00000000000E+00 -0.00000000000E+00 -0.45593999997E+02  0.45594000000E+02  0.51100000000E-03 0.  1.
    9900012    2    1    2    0    0 -0.63202484040E+00 -0.93524101792E+00  0.34589902839E+00  0.90007416543E+02  0.89999673641E+02 0.  0.
        -12    1    1    2    0    0  0.63202484040E+00  0.93524101792E+00 -0.34589902839E+00  0.11805834567E+01  0.00000000000E+00 0.  1.
         11    1    3    3    0    0  0.98819764540E+01  0.15469725995E+02  0.35000876959E+02  0.39522490675E+02  0.51100000000E-03 0. -1.
        -11    1    3    3    0    0 -0.58855828560E+00 -0.43835518836E+01  0.57050918535E+01  0.72187257386E+01  0.51100000000E-03 0.  1.
        -12    1    3    3    0    0 -0.99254430088E+01 -0.12021415129E+02 -0.40360069785E+02  0.43266200129E+02  0.00000000000E+00 0.  1.
</event>
<event>
 7    1  0.2578619E-015  0.9000823E+02  0.7816164E-02  0.1186338E+00
        -11   -1    0    0    0    0  0.00000000000E+00  0.00000000000E+00  0.45593999997E+02  0.45594000000E+02  0.51100000000E-03 0.  1.
         11   -1    0    0    0    0 -0.00000000000E+00 -0.00000000000E+00 -0.45593999997E+02  0.45594000000E+02  0.51100000000E-03 0. -1.
    9900012    2    1    2    0    0  0.41849855617E+00 -0.94102744968E+00 -0.57548578176E+00  0.90008229858E+02  0.90000497691E+02 0.  0.
        -12    1    1    2    0    0 -0.41849855617E+00  0.94102744968E+00  0.57548578176E+00  0.11797701418E+01  0.00000000000E+00 0.  1.
         11    1    3    3    0    0  0.24172928386E+01  0.72506199093E+00  0.67608834184E+01  0.72165479571E+01  0.51100000000E-03 0. -1.
        -11    1    3    3    0    0 -0.63138302709E+01 -0.97928777521E+00  0.37349822897E+02  0.37892383508E+02  0.51100000000E-03 0.  1.
         12    1    3    3    0    0  0.43150359885E+01 -0.68680166540E+00 -0.44686192097E+02  0.44899298393E+02  0.00000000000E+00 0. -1.
</event>
<event>
 7    1  0.2578619E-015  0.9000778E+02  0.7816164E-02  0.1186339E+00
        -11   -1    0    0    0    0  0.00000000000E+00  0.00000000000E+00  0.45593999997E+02  0.45594000000E+02  0.51100000000E-03 0.  1.
         11   -1    0    0    0    0 -0.00000000000E+00 -0.00000000000E+00 -0.45593999997E+02  0.45594000000E+02  0.51100000000E-03 0. -1.
    9900012    2    1    2    0    0 -0.95378497797E+00  0.10704105748E+00 -0.68684914874E+00  0.90007777426E+02  0.90000039288E+02 0.  0.
        -12    1    1    2    0    0  0.95378497797E+00 -0.10704105748E+00  0.68684914874E+00  0.11802225745E+01  0.00000000000E+00 0.  1.
         11    1    3    3    0    0  0.19283963017E+02 -0.33995350913E+02  0.10022220849E+02  0.40348482305E+02  0.51100000000E-03 0. -1.
        -11    1    3    3    0    0  0.11404956856E+01  0.86280997248E+00 -0.10031184543E+02  0.10132612450E+02  0.51100000000E-03 0.  1.
        -12    1    3    3    0    0 -0.21378243680E+02  0.33239581998E+02 -0.67788545460E+00  0.39526682671E+02  0.00000000000E+00 0.  1.
</event>
<event>
 7    1  0.2578619E-015  0.9000766E+02  0.7816164E-02  0.1186339E+00
        -11   -1    0    0    0    0  0.00000000000E+00  0.00000000000E+00  0.45593999997E+02  0.45594000000E+02  0.51100000000E-03 0. -1.
         11   -1    0    0    0    0 -0.00000000000E+00 -0.00000000000E+00 -0.45593999997E+02  0.45594000000E+02  0.51100000000E-03 0.  1.
    9900012    2    1    2    0    0  0.96738047175E+00  0.60196654591E+00 -0.30823056394E+00  0.90007663277E+02  0.89999923632E+02 0.  0.
        -12    1    1    2    0    0 -0.96738047175E+00 -0.60196654591E+00  0.30823056394E+00  0.11803367232E+01  0.00000000000E+00 0.  1.
         11    1    3    3    0    0 -0.68830430792E+00  0.13767280662E+02  0.37996034685E+02  0.40419183957E+02  0.51100000000E-03 0. -1.
        -11    1    3    3    0    0  0.14598959803E+01 -0.10625972245E+02  0.46479090502E+00  0.10735856429E+02  0.51100000000E-03 0.  1.
        -12    1    3    3    0    0  0.19578879937E+00 -0.25393418707E+01 -0.38769056154E+02  0.38852622891E+02  0.00000000000E+00 0.  1.
</event>
<event>
 7    1  0.2578619E-015  0.9000780E+02  0.7816164E-02  0.1186339E+00
        -11   -1    0    0    0    0  0.00000000000E+00  0.00000000000E+00  0.45593999997E+02  0.45594000000E+02  0.51100000000E-03 0. -1.
         11   -1    0    0    0    0 -0.00000000000E+00 -0.00000000000E+00 -0.45593999997E+02  0.45594000000E+02  0.51100000000E-03 0.  1.
    9900012    2    1    2    0    0 -0.11382805817E+01  0.29379323448E+00  0.10432695028E+00  0.90007796094E+02  0.90000058202E+02 0.  0.
        -12    1    1    2    0    0  0.11382805817E+01 -0.29379323448E+00 -0.10432695028E+00  0.11802039061E+01  0.00000000000E+00 0.  1.
         11    1    3    3    0    0 -0.59109881047E+00 -0.32454017223E+02  0.77127906898E+01  0.33363149915E+02  0.51100000000E-03 0. -1.
        -11    1    3    3    0    0 -0.38370959236E+01 -0.52165240616E+01 -0.16317481663E+02  0.17555501602E+02  0.51100000000E-03 0.  1.
        -12    1    3    3    0    0  0.32899141523E+01  0.37964334519E+02  0.87090179231E+01  0.39089144578E+02  0.00000000000E+00 0.  1.
</event>
<event>
 7    1  0.2578619E-015  0.9000779E+02  0.7816164E-02  0.1186339E+00
        -11   -1    0    0    0    0  0.00000000000E+00  0.00000000000E+00  0.45593999997E+02  0.45594000000E+02  0.51100000000E-03 0.  1.
         11   -1    0    0    0    0 -0.00000000000E+00 -0.00000000000E+00 -0.45593999997E+02  0.45594000000E+02  0.51100000000E-03 0. -1.
    9900012    2    1    2    0    0 -0.80368840305E+00 -0.84021330484E+00 -0.20253370296E+00  0.90007790973E+02  0.90000053014E+02 0.  0.
        -12    1    1    2    0    0  0.80368840305E+00  0.84021330484E+00  0.20253370296E+00  0.11802090271E+01  0.00000000000E+00 0.  1.
         11    1    3    3    0    0 -0.49616166806E+01  0.79209841980E+01 -0.50698654711E+00  0.93603774694E+01  0.51100000000E-03 0. -1.
        -11    1    3    3    0    0 -0.27221103325E+02 -0.18336084444E+02  0.23587791321E+02  0.40417624356E+02  0.51100000000E-03 0.  1.
         12    1    3    3    0    0  0.31379031602E+02  0.95748869408E+01 -0.23283338477E+02  0.40229789147E+02  0.00000000000E+00 0. -1.
</event>
<event>
 7    1  0.2578619E-015  0.9000778E+02  0.7816164E-02  0.1186339E+00
        -11   -1    0    0    0    0  0.00000000000E+00  0.00000000000E+00  0.45593999997E+02  0.45594000000E+02  0.51100000000E-03 0.  1.
         11   -1    0    0    0    0 -0.00000000000E+00 -0.00000000000E+00 -0.45593999997E+02  0.45594000000E+02  0.51100000000E-03 0. -1.
    9900012    2    1    2    0    0  0.49964127787E+00  0.49602046762E+00  0.94723082607E+00  0.90007778009E+02  0.90000039878E+02 0.  0.
        -12    1    1    2    0    0 -0.49964127787E+00 -0.49602046762E+00 -0.94723082607E+00  0.11802219913E+01  0.00000000000E+00 0.  1.
         11    1    3    3    0    0 -0.15446643784E+02  0.13804309708E+02 -0.33891562955E+02  0.39721477949E+02  0.51100000000E-03 0. -1.
        -11    1    3    3    0    0 -0.42110810327E+01  0.66628947372E+01  0.79192110655E+01  0.11173239186E+02  0.51100000000E-03 0.  1.
        -12    1    3    3    0    0  0.20157366094E+02 -0.19971183977E+02  0.26919582716E+02  0.39113060873E+02  0.00000000000E+00 0.  1.
</event>
<event>
 7    1  0.2578619E-015  0.9000772E+02  0.7816164E-02  0.1186339E+00
        -11   -1    0    0    0    0  0.00000000000E+00  0.00000000000E+00  0.45593999997E+02  0.45594000000E+02  0.51100000000E-03 0. -1.
         11   -1    0    0    0    0 -0.00000000000E+00 -0.00000000000E+00 -0.45593999997E+02  0.45594000000E+02  0.51100000000E-03 0.  1.
    9900012    2    1    2    0    0 -0.10954415858E+00 -0.84491523233E+00  0.81681056598E+00  0.90007719875E+02  0.89999980977E+02 0.  0.
        -12    1    1    2    0    0  0.10954415858E+00  0.84491523233E+00 -0.81681056598E+00  0.11802801249E+01  0.00000000000E+00 0.  1.
         11    1    3    3    0    0 -0.21045454897E+02  0.67436663293E+01  0.28924168076E+02  0.36400490471E+02  0.51100000000E-03 0. -1.
        -11    1    3    3    0    0 -0.84185613671E+01 -0.67522768117E+00  0.41824824759E+01  0.94245035857E+01  0.51100000000E-03 0.  1.
        -12    1    3    3    0    0  0.29354472105E+02 -0.69133538804E+01 -0.32289839986E+02  0.44182725819E+02  0.00000000000E+00 0.  1.
</event>
<event>
 7    1  0.2578619E-015  0.9000756E+02  0.7816164E-02  0.1186339E+00
        -11   -1    0    0    0    0  0.00000000000E+00  0.00000000000E+00  0.45593999997E+02  0.45594000000E+02  0.51100000000E-03 0. -1.
         11   -1    0    0    0    0 -0.00000000000E+00 -0.00000000000E+00 -0.45593999997E+02  0.45594000000E+02  0.51100000000E-03 0.  1.
    9900012    2    1    2    0    0 -0.90035959025E+00  0.50437147187E+00  0.57307131274E+00  0.90007555718E+02  0.89999814653E+02 0.  0.
        -12    1    1    2    0    0  0.90035959025E+00 -0.50437147187E+00 -0.57307131274E+00  0.11804442820E+01  0.00000000000E+00 0.  1.
         11    1    3    3    0    0 -0.23831389725E+02 -0.43042083772E+01 -0.32092048257E+02  0.40203991190E+02  0.51100000000E-03 0. -1.
        -11    1    3    3    0    0  0.88704038653E+01 -0.10244794790E+01 -0.42380215633E+01  0.98840502816E+01  0.51100000000E-03 0.  1.
        -12    1    3    3    0    0  0.14060626270E+02  0.58330593281E+01  0.36903141133E+02  0.39919514247E+02  0.00000000000E+00 0.  1.
</event>
<event>
 7    1  0.2578619E-015  0.9000766E+02  0.7816164E-02  0.1186339E+00
        -11   -1    0    0    0    0  0.00000000000E+00  0.00000000000E+00  0.45593999997E+02  0.45594000000E+02  0.51100000000E-03 0.  1.
         11   -1    0    0    0    0 -0.00000000000E+00 -0.00000000000E+00 -0.45593999997E+02  0.45594000000E+02  0.51100000000E-03 0. -1.
    9900012    2    1    2    0    0 -0.95670946202E+00  0.38567661808E+00 -0.57373126236E+00  0.90007658096E+02  0.89999918383E+02 0.  0.
        -12    1    1    2    0    0  0.95670946202E+00 -0.38567661808E+00  0.57373126236E+00  0.11803419038E+01  0.00000000000E+00 0.  1.
         11    1    3    3    0    0 -0.95516371672E+01 -0.11666073774E+01 -0.45531484378E+00  0.96333824390E+01  0.51100000000E-03 0. -1.
        -11    1    3    3    0    0 -0.31076976867E+02 -0.17035633643E+02  0.66066218401E+01  0.36050502870E+02  0.51100000000E-03 0.  1.
         12    1    3    3    0    0  0.39671904572E+02  0.18587917638E+02 -0.67250382587E+01  0.44323772787E+02  0.00000000000E+00 0. -1.
</event>
<event>
 7    1  0.2578619E-015  0.9000817E+02  0.7816164E-02  0.1186338E+00
        -11   -1    0    0    0    0  0.00000000000E+00  0.00000000000E+00  0.45593999997E+02  0.45594000000E+02  0.51100000000E-03 0.  1.
         11   -1    0    0    0    0 -0.00000000000E+00 -0.00000000000E+00 -0.45593999997E+02  0.45594000000E+02  0.51100000000E-03 0. -1.
    9900012    2    1    2    0    0 -0.42317160169E+00 -0.39215965039E+00 -0.10291474809E+01  0.90008166142E+02  0.90000433134E+02 0.  0.
        -12    1    1    2    0    0  0.42317160169E+00  0.39215965039E+00  0.10291474809E+01  0.11798338583E+01  0.00000000000E+00 0.  1.
         11    1    3    3    0    0 -0.34853144038E+02  0.56978472105E+01 -0.24164868109E+02  0.42791914694E+02  0.51100000000E-03 0. -1.
        -11    1    3    3    0    0  0.71944915300E+01  0.48491572854E+01 -0.16125105441E+01  0.88246940610E+01  0.51100000000E-03 0.  1.
        -12    1    3    3    0    0  0.27235480906E+02 -0.10939164146E+02  0.24748231172E+02  0.38391557387E+02  0.00000000000E+00 0.  1.
</event>
<event>
 7    1  0.2578619E-015  0.9000767E+02  0.7816164E-02  0.1186339E+00
        -11   -1    0    0    0    0  0.00000000000E+00  0.00000000000E+00  0.45593999997E+02  0.45594000000E+02  0.51100000000E-03 0.  1.
         11   -1    0    0    0    0 -0.00000000000E+00 -0.00000000000E+00 -0.45593999997E+02  0.45594000000E+02  0.51100000000E-03 0. -1.
    9900012    2    1    2    0    0 -0.10152224815E+01 -0.59495036346E+00 -0.92422287956E-01  0.90007667631E+02  0.89999928044E+02 0.  0.
        -12    1    1    2    0    0  0.10152224815E+01  0.59495036346E+00  0.92422287956E-01  0.11803323690E+01  0.00000000000E+00 0.  1.
         11    1    3    3    0    0 -0.25341693675E+01 -0.42075736828E+01  0.85023424577E+01  0.98191404007E+01  0.51100000000E-03 0. -1.
        -11    1    3    3    0    0  0.33346603997E+02  0.22119671104E+02  0.62312659660E+01  0.40498203957E+02  0.51100000000E-03 0.  1.
         12    1    3    3    0    0 -0.31827657111E+02 -0.18507047785E+02 -0.14826030712E+02  0.39690323274E+02  0.00000000000E+00 0. -1.
</event>
<event>
 7    1  0.2578619E-015  0.9000766E+02  0.7816164E-02  0.1186339E+00
        -11   -1    0    0    0    0  0.00000000000E+00  0.00000000000E+00  0.45593999997E+02  0.45594000000E+02  0.51100000000E-03 0. -1.
         11   -1    0    0    0    0 -0.00000000000E+00 -0.00000000000E+00 -0.45593999997E+02  0.45594000000E+02  0.51100000000E-03 0.  1.
    9900012    2    1    2    0    0 -0.29818012797E+00  0.84615014686E+00  0.76702180253E+00  0.90007659411E+02  0.89999919716E+02 0.  0.
        -12    1    1    2    0    0  0.29818012797E+00 -0.84615014686E+00 -0.76702180253E+00  0.11803405887E+01  0.00000000000E+00 0.  1.
         11    1    3    3    0    0  0.25684313622E+01 -0.22771298007E+02 -0.36096966949E+02  0.42756518518E+02  0.51100000000E-03 0. -1.
        -11    1    3    3    0    0 -0.57391900703E+01  0.10200607958E+01  0.13070607816E+02  0.14311520382E+02  0.51100000000E-03 0.  1.
        -12    1    3    3    0    0  0.28725785801E+01  0.22597387358E+02  0.23793380936E+02  0.32939620512E+02  0.00000000000E+00 0.  1.
</event>
<event>
 7    1  0.2578619E-015  0.9000764E+02  0.7816164E-02  0.1186339E+00
        -11   -1    0    0    0    0  0.00000000000E+00  0.00000000000E+00  0.45593999997E+02  0.45594000000E+02  0.51100000000E-03 0. -1.
         11   -1    0    0    0    0 -0.00000000000E+00 -0.00000000000E+00 -0.45593999997E+02  0.45594000000E+02  0.51100000000E-03 0.  1.
    9900012    2    1    2    0    0  0.21150237326E-01 -0.49493581339E+00  0.10713703220E+01  0.90007642783E+02  0.89999902868E+02 0.  0.
        -12    1    1    2    0    0 -0.21150237326E-01  0.49493581339E+00 -0.10713703220E+01  0.11803572166E+01  0.00000000000E+00 0.  1.
         11    1    3    3    0    0 -0.37809046732E+02 -0.71754740065E+01  0.59334080898E+01  0.38938628299E+02  0.51100000000E-03 0. -1.
        -11    1    3    3    0    0 -0.47916612264E+01 -0.33481546880E+01  0.30197865571E+01  0.65794580503E+01  0.51100000000E-03 0.  1.
        -12    1    3    3    0    0  0.42621858196E+02  0.10028692881E+02 -0.78818243249E+01  0.44489556434E+02  0.00000000000E+00 0.  1.
</event>
<event>
 7    1  0.2578619E-015  0.9000728E+02  0.7816164E-02  0.1186340E+00
        -11   -1    0    0    0    0  0.00000000000E+00  0.00000000000E+00  0.45593999997E+02  0.45594000000E+02  0.51100000000E-03 0. -1.
         11   -1    0    0    0    0 -0.00000000000E+00 -0.00000000000E+00 -0.45593999997E+02  0.45594000000E+02  0.51100000000E-03 0.  1.
    9900012    2    1    2    0    0  0.90042723440E+00  0.37972017970E+00  0.66268670068E+00  0.90007275526E+02  0.89999530762E+02 0.  0.
        -12    1    1    2    0    0 -0.90042723440E+00 -0.37972017970E+00 -0.66268670068E+00  0.11807244736E+01  0.00000000000E+00 0.  1.
         11    1    3    3    0    0  0.73808108998E-01 -0.33226219726E+01  0.74756936180E+01  0.81811527147E+01  0.51100000000E-03 0. -1.
        -11    1    3    3    0    0 -0.70467904564E+01  0.30932955212E+02  0.24132215584E+02  0.39860617195E+02  0.51100000000E-03 0.  1.
         12    1    3    3    0    0  0.78734095818E+01 -0.27230613060E+02 -0.30945222501E+02  0.41965505617E+02  0.00000000000E+00 0. -1.
</event>
<event>
 7    1  0.2578619E-015  0.9000773E+02  0.7816164E-02  0.1186339E+00
        -11   -1    0    0    0    0  0.00000000000E+00  0.00000000000E+00  0.45593999997E+02  0.45594000000E+02  0.51100000000E-03 0. -1.
         11   -1    0    0    0    0 -0.00000000000E+00 -0.00000000000E+00 -0.45593999997E+02  0.45594000000E+02  0.51100000000E-03 0.  1.
    9900012    2    1    2    0    0  0.37648967275E+00  0.66482594703E+00  0.89960506659E+00  0.90007734229E+02  0.89999995521E+02 0.  0.
        -12    1    1    2    0    0 -0.37648967275E+00 -0.66482594703E+00 -0.89960506659E+00  0.11802657706E+01  0.00000000000E+00 0.  1.
         11    1    3    3    0    0  0.78749982625E+01 -0.14865248059E+01  0.81462548485E+00  0.80553689286E+01  0.51100000000E-03 0. -1.
        -11    1    3    3    0    0 -0.35904364890E+02  0.26389026574E+02  0.15032087453E+01  0.44584344544E+02  0.51100000000E-03 0.  1.
         12    1    3    3    0    0  0.28405856300E+02 -0.24237675821E+02 -0.14182291636E+01  0.37368020757E+02  0.00000000000E+00 0. -1.
</event>
<event>
 7    1  0.2578619E-015  0.9000769E+02  0.7816164E-02  0.1186339E+00
        -11   -1    0    0    0    0  0.00000000000E+00  0.00000000000E+00  0.45593999997E+02  0.45594000000E+02  0.51100000000E-03 0. -1.
         11   -1    0    0    0    0 -0.00000000000E+00 -0.00000000000E+00 -0.45593999997E+02  0.45594000000E+02  0.51100000000E-03 0.  1.
    9900012    2    1    2    0    0 -0.60657331757E+00 -0.10029204455E+01 -0.13913838640E+00  0.90007686440E+02  0.89999947101E+02 0.  0.
        -12    1    1    2    0    0  0.60657331757E+00  0.10029204455E+01  0.13913838640E+00  0.11803135601E+01  0.00000000000E+00 0.  1.
         11    1    3    3    0    0  0.59639923460E+00 -0.11246498456E+02 -0.67896982791E+01  0.13150643427E+02  0.51100000000E-03 0. -1.
        -11    1    3    3    0    0 -0.26061187286E+02  0.13661615990E+02 -0.23481196924E+02  0.37645608555E+02  0.51100000000E-03 0.  1.
         12    1    3    3    0    0  0.24858214733E+02 -0.34180379797E+01  0.30131756817E+02  0.39211434458E+02  0.00000000000E+00 0. -1.
</event>
<event>
 7    1  0.2578619E-015  0.9000761E+02  0.7816164E-02  0.1186339E+00
        -11   -1    0    0    0    0  0.00000000000E+00  0.00000000000E+00  0.45593999997E+02  0.45594000000E+02  0.51100000000E-03 0.  1.
         11   -1    0    0    0    0 -0.00000000000E+00 -0.00000000000E+00 -0.45593999997E+02  0.45594000000E+02  0.51100000000E-03 0. -1.
    9900012    2    1    2    0    0  0.11133198885E+01 -0.38317697948E+00 -0.83800074295E-01  0.90007606750E+02  0.89999866359E+02 0.  0.
        -12    1    1    2    0    0 -0.11133198885E+01  0.38317697948E+00  0.83800074295E-01  0.11803932498E+01  0.00000000000E+00 0.  1.
         11    1    3    3    0    0  0.16204069387E+02 -0.28327658530E+02  0.71662932106E+01  0.33412330975E+02  0.51100000000E-03 0. -1.
        -11    1    3    3    0    0 -0.78329648751E+01 -0.11789648986E+02  0.39206408531E+01  0.14687497639E+02  0.51100000000E-03 0.  1.
        -12    1    3    3    0    0 -0.72577846239E+01  0.39734130537E+02 -0.11170734138E+02  0.41907778136E+02  0.00000000000E+00 0.  1.
</event>
<event>
 7    1  0.2578619E-015  0.9000772E+02  0.7816164E-02  0.1186339E+00
        -11   -1    0    0    0    0  0.00000000000E+00  0.00000000000E+00  0.45593999997E+02  0.45594000000E+02  0.51100000000E-03 0.  1.
         11   -1    0    0    0    0 -0.00000000000E+00 -0.00000000000E+00 -0.45593999997E+02  0.45594000000E+02  0.51100000000E-03 0. -1.
    9900012    2    1    2    0    0  0.46250849473E-01 -0.52646610112E+00 -0.10553467557E+01  0.90007719325E+02  0.89999980420E+02 0.  0.
        -12    1    1    2    0    0 -0.46250849473E-01  0.52646610112E+00  0.10553467557E+01  0.11802806748E+01  0.00000000000E+00 0.  1.
         11    1    3    3    0    0  0.13300087365E+01 -0.98002437881E+01  0.39170016655E+01  0.10637509288E+02  0.51100000000E-03 0. -1.
        -11    1    3    3    0    0  0.11089170256E+02 -0.26613830843E+02  0.18948903431E+02  0.34501110570E+02  0.51100000000E-03 0.  1.
         12    1    3    3    0    0 -0.12372928143E+02  0.35887608530E+02 -0.23921251852E+02  0.44869099467E+02  0.00000000000E+00 0. -1.
</event>
<event>
 7    1  0.3189308E-015  0.9000776E+02  0.7816164E-02  0.1186339E+00
        -11   -1    0    0    0    0  0.00000000000E+00  0.00000000000E+00  0.45593999997E+02  0.45594000000E+02  0.51100000000E-03 0.  1.
         11   -1    0    0    0    0 -0.00000000000E+00 -0.00000000000E+00 -0.45593999997E+02  0.45594000000E+02  0.51100000000E-03 0. -1.
    9900012    2    1    2    0    0 -0.22532210637E+00  0.65700121077E+00 -0.95422535212E+00  0.90007759912E+02  0.90000021543E+02 0.  0.
        -12    1    1    2    0    0  0.22532210637E+00 -0.65700121077E+00  0.95422535212E+00  0.11802400879E+01  0.00000000000E+00 0.  1.
         11    1    3    3    0    0  0.85941998737E+01  0.23662078248E+00 -0.34228581217E+01  0.92537678189E+01  0.51100000000E-03 0. -1.
        -11    1    3    3    0    0 -0.79089784504E+01  0.15544927946E+02  0.38172389700E+02  0.41968179144E+02  0.51100000000E-03 0.  1.
         12    1    3    3    0    0 -0.91054352970E+00 -0.15124547518E+02 -0.35703756931E+02  0.38785812949E+02  0.00000000000E+00 0. -1.
</event>
<event>
 7    1  0.2578619E-015  0.9000774E+02  0.7816164E-02  0.1186339E+00
        -11   -1    0    0    0    0  0.00000000000E+00  0.00000000000E+00  0.45593999997E+02  0.45594000000E+02  0.51100000000E-03 0. -1.
         11   -1    0    0    0    0 -0.00000000000E+00 -0.00000000000E+00 -0.45593999997E+02  0.45594000000E+02  0.51100000000E-03 0.  1.
    9900012    2    1    2    0    0  0.10877097049E+01 -0.29318078566E+00 -0.35206711337E+00  0.90007737899E+02  0.89999999239E+02 0.  0.
        -12    1    1    2    0    0 -0.10877097049E+01  0.29318078566E+00  0.35206711337E+00  0.11802621012E+01  0.00000000000E+00 0.  1.
         11    1    3    3    0    0  0.84702863483E+01  0.13076847977E+01 -0.53627378219E+01  0.10110130937E+02  0.51100000000E-03 0. -1.
        -11    1    3    3    0    0  0.12264990585E+02  0.35155044114E+02 -0.33713500512E+01  0.37385466723E+02  0.51100000000E-03 0.  1.
         12    1    3    3    0    0 -0.19647567228E+02 -0.36755909697E+02  0.83820207597E+01  0.42512140239E+02  0.00000000000E+00 0. -1.
</event>
<event>
 7    1  0.2578619E-015  0.9000795E+02  0.7816164E-02  0.1186339E+00
        -11   -1    0    0    0    0  0.00000000000E+00  0.00000000000E+00  0.45593999997E+02  0.45594000000E+02  0.51100000000E-03 0.  1.
         11   -1    0    0    0    0 -0.00000000000E+00 -0.00000000000E+00 -0.45593999997E+02  0.45594000000E+02  0.51100000000E-03 0. -1.
    9900012    2    1    2    0    0  0.18406410520E+00 -0.74437182911E-01 -0.11632312973E+01  0.90007945959E+02  0.90000210045E+02 0.  0.
        -12    1    1    2    0    0 -0.18406410520E+00  0.74437182911E-01  0.11632312973E+01  0.11800540412E+01  0.00000000000E+00 0.  1.
         11    1    3    3    0    0  0.77412904911E+01 -0.15926647652E+01  0.47624695562E+01  0.92274197941E+01  0.51100000000E-03 0. -1.
        -11    1    3    3    0    0 -0.30623398852E-01 -0.32942333526E+02 -0.24369611771E+02  0.40976532968E+02  0.51100000000E-03 0.  1.
         12    1    3    3    0    0 -0.75266029870E+01  0.34460561109E+02  0.18443910918E+02  0.39803993197E+02  0.00000000000E+00 0. -1.
</event>
<event>
 7    1  0.2578619E-015  0.9000767E+02  0.7816164E-02  0.1186339E+00
        -11   -1    0    0    0    0  0.00000000000E+00  0.00000000000E+00  0.45593999997E+02  0.45594000000E+02  0.51100000000E-03 0.  1.
         11   -1    0    0    0    0 -0.00000000000E+00 -0.00000000000E+00 -0.45593999997E+02  0.45594000000E+02  0.51100000000E-03 0. -1.
    9900012    2    1    2    0    0  0.24658333812E+00 -0.56826354864E+00  0.10047199678E+01  0.90007665718E+02  0.89999926106E+02 0.  0.
        -12    1    1    2    0    0 -0.24658333812E+00  0.56826354864E+00 -0.10047199678E+01  0.11803342819E+01  0.00000000000E+00 0.  1.
         11    1    3    3    0    0  0.71404032971E+01  0.38330535676E+02  0.37780183683E+01  0.39172550945E+02  0.51100000000E-03 0. -1.
        -11    1    3    3    0    0  0.25271477408E+01 -0.13200338433E+01  0.97194562680E+01  0.10129007624E+02  0.51100000000E-03 0.  1.
        -12    1    3    3    0    0 -0.94209676997E+01 -0.37578765382E+02 -0.12492754668E+02  0.40706107149E+02  0.00000000000E+00 0.  1.
</event>
<event>
 7    1  0.2578619E-015  0.9000742E+02  0.7816164E-02  0.1186340E+00
        -11   -1    0    0    0    0  0.00000000000E+00  0.00000000000E+00  0.45593999997E+02  0.45594000000E+02  0.51100000000E-03 0.  1.
         11   -1    0    0    0    0 -0.00000000000E+00 -0.00000000000E+00 -0.45593999997E+02  0.45594000000E+02  0.51100000000E-03 0. -1.
    9900012    2    1    2    0    0 -0.28547899402E+00 -0.91190450311E+00 -0.69332662270E+00  0.90007419683E+02  0.89999676822E+02 0.  0.
        -12    1    1    2    0    0  0.28547899402E+00  0.91190450311E+00  0.69332662270E+00  0.11805803169E+01  0.00000000000E+00 0.  1.
         11    1    3    3    0    0  0.10826151945E+02 -0.10639359966E+02 -0.28413027610E+02  0.32213377417E+02  0.51100000000E-03 0. -1.
        -11    1    3    3    0    0  0.20378520401E+01 -0.66707033336E+01 -0.11411817597E+02  0.13374629154E+02  0.51100000000E-03 0.  1.
        -12    1    3    3    0    0 -0.13149482979E+02  0.16398158796E+02  0.39131518584E+02  0.44419413111E+02  0.00000000000E+00 0.  1.
</event>
<event>
 7    1  0.2578619E-015  0.9000768E+02  0.7816164E-02  0.1186339E+00
        -11   -1    0    0    0    0  0.00000000000E+00  0.00000000000E+00  0.45593999997E+02  0.45594000000E+02  0.51100000000E-03 0.  1.
         11   -1    0    0    0    0 -0.00000000000E+00 -0.00000000000E+00 -0.45593999997E+02  0.45594000000E+02  0.51100000000E-03 0. -1.
    9900012    2    1    2    0    0 -0.11494729896E+01  0.26156966075E+00  0.58754569991E-01  0.90007678459E+02  0.89999939014E+02 0.  0.
        -12    1    1    2    0    0  0.11494729896E+01 -0.26156966075E+00 -0.58754569991E-01  0.11803215412E+01  0.00000000000E+00 0.  1.
         11    1    3    3    0    0  0.32328393242E+02  0.17781967882E+02 -0.52491622129E+01  0.37267641401E+02  0.51100000000E-03 0. -1.
        -11    1    3    3    0    0 -0.21024015922E+01  0.10276986479E+02  0.19817385943E-01  0.10489849215E+02  0.51100000000E-03 0.  1.
        -12    1    3    3    0    0 -0.31375464640E+02 -0.27797384701E+02  0.52880993970E+01  0.42250187843E+02  0.00000000000E+00 0.  1.
</event>
<event>
 7    1  0.2578619E-015  0.9000774E+02  0.7816164E-02  0.1186339E+00
        -11   -1    0    0    0    0  0.00000000000E+00  0.00000000000E+00  0.45593999997E+02  0.45594000000E+02  0.51100000000E-03 0. -1.
         11   -1    0    0    0    0 -0.00000000000E+00 -0.00000000000E+00 -0.45593999997E+02  0.45594000000E+02  0.51100000000E-03 0.  1.
    9900012    2    1    2    0    0  0.74835194701E+00  0.91266205944E+00  0.51245666267E-02  0.90007742006E+02  0.90000003400E+02 0.  0.
        -12    1    1    2    0    0 -0.74835194701E+00 -0.91266205944E+00 -0.51245666267E-02  0.11802579941E+01  0.00000000000E+00 0.  1.
         11    1    3    3    0    0 -0.67146044237E+01 -0.12393578778E+02 -0.53584049104E+01  0.15079761634E+02  0.51100000000E-03 0. -1.
        -11    1    3    3    0    0 -0.17615812970E+02 -0.18797524309E+02 -0.14546406462E+02  0.29584822594E+02  0.51100000000E-03 0.  1.
         12    1    3    3    0    0  0.25078769340E+02  0.32103765146E+02  0.19909935939E+02  0.45343157778E+02  0.00000000000E+00 0. -1.
</event>
<event>
 7    1  0.2578619E-015  0.9000675E+02  0.7816164E-02  0.1186341E+00
        -11   -1    0    0    0    0  0.00000000000E+00  0.00000000000E+00  0.45593999997E+02  0.45594000000E+02  0.51100000000E-03 0.  1.
         11   -1    0    0    0    0 -0.00000000000E+00 -0.00000000000E+00 -0.45593999997E+02  0.45594000000E+02  0.51100000000E-03 0. -1.
    9900012    2    1    2    0    0  0.11037289256E+01  0.42080847537E+00 -0.80547191731E-02  0.90006745500E+02  0.89998993735E+02 0.  0.
        -12    1    1    2    0    0 -0.11037289256E+01 -0.42080847537E+00  0.80547191731E-02  0.11812544996E+01  0.00000000000E+00 0.  1.
         11    1    3    3    0    0 -0.33162861762E+02 -0.33215604355E+01 -0.16560726829E+02  0.37216472661E+02  0.51100000000E-03 0. -1.
        -11    1    3    3    0    0 -0.60272211186E+01  0.66927258032E+01 -0.30705690351E+00  0.90118953219E+01  0.51100000000E-03 0.  1.
        -12    1    3    3    0    0  0.40293811806E+02 -0.29503568924E+01  0.16859729013E+02  0.43778377518E+02  0.00000000000E+00 0.  1.
</event>
<event>
 7    1  0.2578619E-015  0.9000782E+02  0.7816164E-02  0.1186339E+00
        -11   -1    0    0    0    0  0.00000000000E+00  0.00000000000E+00  0.45593999997E+02  0.45594000000E+02  0.51100000000E-03 0. -1.
         11   -1    0    0    0    0 -0.00000000000E+00 -0.00000000000E+00 -0.45593999997E+02  0.45594000000E+02  0.51100000000E-03 0.  1.
    9900012    2    1    2    0    0 -0.11465467610E+01 -0.23264788142E+00 -0.15532963242E+00  0.90007821282E+02  0.90000083723E+02 0.  0.
        -12    1    1    2    0    0  0.11465467610E+01  0.23264788142E+00  0.15532963242E+00  0.11801787181E+01  0.00000000000E+00 0.  1.
         11    1    3    3    0    0  0.98126038518E+01  0.14129241352E+01 -0.42530969612E+00  0.99229248492E+01  0.51100000000E-03 0. -1.
        -11    1    3    3    0    0  0.33833062308E+02 -0.37384320948E+01 -0.67381113592E+01  0.34699483060E+02  0.51100000000E-03 0.  1.
         12    1    3    3    0    0 -0.44792212921E+02  0.20928600782E+01  0.70080914229E+01  0.45385413373E+02  0.00000000000E+00 0. -1.
</event>
<event>
 7    1  0.2578619E-015  0.9000773E+02  0.7816164E-02  0.1186339E+00
        -11   -1    0    0    0    0  0.00000000000E+00  0.00000000000E+00  0.45593999997E+02  0.45594000000E+02  0.51100000000E-03 0.  1.
         11   -1    0    0    0    0 -0.00000000000E+00 -0.00000000000E+00 -0.45593999997E+02  0.45594000000E+02  0.51100000000E-03 0. -1.
    9900012    2    1    2    0    0 -0.10051322301E+01  0.57577376534E+00  0.22633749224E+00  0.90007731010E+02  0.89999992259E+02 0.  0.
        -12    1    1    2    0    0  0.10051322301E+01 -0.57577376534E+00 -0.22633749224E+00  0.11802689902E+01  0.00000000000E+00 0.  1.
         11    1    3    3    0    0  0.53470897895E+01  0.88160100066E+01 -0.14839901800E+02  0.18070309553E+02  0.51100000000E-03 0. -1.
        -11    1    3    3    0    0 -0.30321478630E+02  0.15272021771E+02  0.17646088385E+02  0.38262398656E+02  0.51100000000E-03 0.  1.
        -12    1    3    3    0    0  0.23969256611E+02 -0.23512258013E+02 -0.25798490933E+01  0.33675022801E+02  0.00000000000E+00 0.  1.
</event>
<event>
 7    1  0.2578619E-015  0.9000776E+02  0.7816164E-02  0.1186339E+00
        -11   -1    0    0    0    0  0.00000000000E+00  0.00000000000E+00  0.45593999997E+02  0.45594000000E+02  0.51100000000E-03 0. -1.
         11   -1    0    0    0    0 -0.00000000000E+00 -0.00000000000E+00 -0.45593999997E+02  0.45594000000E+02  0.51100000000E-03 0.  1.
    9900012    2    1    2    0    0  0.11830421103E+00 -0.53159937892E+00  0.10470791346E+01  0.90007759135E+02  0.90000020755E+02 0.  0.
        -12    1    1    2    0    0 -0.11830421103E+00  0.53159937892E+00 -0.10470791346E+01  0.11802408653E+01  0.00000000000E+00 0.  1.
         11    1    3    3    0    0  0.25982425512E+02  0.33887388464E+01 -0.29500253622E+02  0.39456747845E+02  0.51100000000E-03 0. -1.
        -11    1    3    3    0    0  0.55700080287E+01  0.49858983735E+01  0.73348814958E+01  0.10473044393E+02  0.51100000000E-03 0.  1.
        -12    1    3    3    0    0 -0.31434129330E+02 -0.89062365989E+01  0.23212451261E+02  0.40077966897E+02  0.00000000000E+00 0.  1.
</event>
<event>
 7    1  0.2578619E-015  0.9000769E+02  0.7816164E-02  0.1186339E+00
        -11   -1    0    0    0    0  0.00000000000E+00  0.00000000000E+00  0.45593999997E+02  0.45594000000E+02  0.51100000000E-03 0.  1.
         11   -1    0    0    0    0 -0.00000000000E+00 -0.00000000000E+00 -0.45593999997E+02  0.45594000000E+02  0.51100000000E-03 0. -1.
    9900012    2    1    2    0    0 -0.31435029323E+00 -0.21697036700E-01 -0.11374740201E+01  0.90007689018E+02  0.89999949713E+02 0.  0.
        -12    1    1    2    0    0  0.31435029323E+00  0.21697036700E-01  0.11374740201E+01  0.11803109822E+01  0.00000000000E+00 0.  1.
         11    1    3    3    0    0 -0.32280539185E+00  0.57351073347E+01  0.82079465771E+01  0.10018285619E+02  0.51100000000E-03 0. -1.
        -11    1    3    3    0    0 -0.42715554263E+01  0.22583947009E+02  0.25855969239E+02  0.34594970643E+02  0.51100000000E-03 0.  1.
         12    1    3    3    0    0  0.42800105250E+01 -0.28340751380E+02 -0.35201389836E+02  0.45394432756E+02  0.00000000000E+00 0. -1.
</event>
<event>
 7    1  0.2578619E-015  0.9000777E+02  0.7816164E-02  0.1186339E+00
        -11   -1    0    0    0    0  0.00000000000E+00  0.00000000000E+00  0.45593999997E+02  0.45594000000E+02  0.51100000000E-03 0. -1.
         11   -1    0    0    0    0 -0.00000000000E+00 -0.00000000000E+00 -0.45593999997E+02  0.45594000000E+02  0.51100000000E-03 0.  1.
    9900012    2    1    2    0    0 -0.44413142317E+00  0.62468788864E+00  0.89746521468E+00  0.90007774814E+02  0.90000036641E+02 0.  0.
        -12    1    1    2    0    0  0.44413142317E+00 -0.62468788864E+00 -0.89746521468E+00  0.11802251865E+01  0.00000000000E+00 0.  1.
         11    1    3    3    0    0 -0.21205758198E+02 -0.31741360795E+02  0.14017764137E+02  0.40665659684E+02  0.51100000000E-03 0. -1.
        -11    1    3    3    0    0  0.35468176765E+00  0.49374025978E+01  0.78172797032E+01  0.92527620626E+01  0.51100000000E-03 0.  1.
        -12    1    3    3    0    0  0.20406945007E+02  0.27428646086E+02 -0.20937578626E+02  0.40089353067E+02  0.00000000000E+00 0.  1.
</event>
<event>
 7    1  0.2578619E-015  0.9000780E+02  0.7816164E-02  0.1186339E+00
        -11   -1    0    0    0    0  0.00000000000E+00  0.00000000000E+00  0.45593999997E+02  0.45594000000E+02  0.51100000000E-03 0. -1.
         11   -1    0    0    0    0 -0.00000000000E+00 -0.00000000000E+00 -0.45593999997E+02  0.45594000000E+02  0.51100000000E-03 0.  1.
    9900012    2    1    2    0    0 -0.29156696479E+00 -0.32720336975E+00 -0.10958078736E+01  0.90007801612E+02  0.90000063793E+02 0.  0.
        -12    1    1    2    0    0  0.29156696479E+00  0.32720336975E+00  0.10958078736E+01  0.11801983884E+01  0.00000000000E+00 0.  1.
         11    1    3    3    0    0  0.31993989665E+02 -0.11451487690E+02  0.15922378317E+02  0.37526977983E+02  0.51100000000E-03 0. -1.
        -11    1    3    3    0    0  0.13565915231E+01 -0.88639143811E+01  0.16601739736E+01  0.91195118619E+01  0.51100000000E-03 0.  1.
        -12    1    3    3    0    0 -0.33642148153E+02  0.19988198701E+02 -0.18678360164E+02  0.43361311767E+02  0.00000000000E+00 0.  1.
</event>
<event>
 7    1  0.2578619E-015  0.9000776E+02  0.7816164E-02  0.1186339E+00
        -11   -1    0    0    0    0  0.00000000000E+00  0.00000000000E+00  0.45593999997E+02  0.45594000000E+02  0.51100000000E-03 0.  1.
         11   -1    0    0    0    0 -0.00000000000E+00 -0.00000000000E+00 -0.45593999997E+02  0.45594000000E+02  0.51100000000E-03 0. -1.
    9900012    2    1    2    0    0  0.39564241359E-01  0.83172302172E+00 -0.83644919861E+00  0.90007756052E+02  0.90000017632E+02 0.  0.
        -12    1    1    2    0    0 -0.39564241359E-01 -0.83172302172E+00  0.83644919861E+00  0.11802439476E+01  0.00000000000E+00 0.  1.
         11    1    3    3    0    0  0.37123081823E+02  0.13604621198E+02 -0.70571904306E+01  0.40162331344E+02  0.51100000000E-03 0. -1.
        -11    1    3    3    0    0  0.23356519373E+01  0.15354389062E+01  0.73822362571E+01  0.78936845024E+01  0.51100000000E-03 0.  1.
        -12    1    3    3    0    0 -0.39419169519E+02 -0.14308337082E+02 -0.11614950251E+01  0.41951740206E+02  0.00000000000E+00 0.  1.
</event>
<event>
 7    1  0.2578619E-015  0.9000778E+02  0.7816164E-02  0.1186339E+00
        -11   -1    0    0    0    0  0.00000000000E+00  0.00000000000E+00  0.45593999997E+02  0.45594000000E+02  0.51100000000E-03 0. -1.
         11   -1    0    0    0    0 -0.00000000000E+00 -0.00000000000E+00 -0.45593999997E+02  0.45594000000E+02  0.51100000000E-03 0.  1.
    9900012    2    1    2    0    0 -0.10574502461E+01 -0.20763096515E+00  0.48124702742E+00  0.90007783773E+02  0.90000045719E+02 0.  0.
        -12    1    1    2    0    0  0.10574502461E+01  0.20763096515E+00 -0.48124702742E+00  0.11802162268E+01  0.00000000000E+00 0.  1.
         11    1    3    3    0    0  0.12736739247E+02 -0.28874836478E+02  0.25070082768E+02  0.40304959478E+02  0.51100000000E-03 0. -1.
        -11    1    3    3    0    0  0.50902474736E+01 -0.25361810308E+01 -0.75338440642E+01  0.94393665152E+01  0.51100000000E-03 0.  1.
        -12    1    3    3    0    0 -0.18884436966E+02  0.31203386544E+02 -0.17054991676E+02  0.40263457780E+02  0.00000000000E+00 0.  1.
</event>
<event>
 7    1  0.2578619E-015  0.9000838E+02  0.7816164E-02  0.1186338E+00
        -11   -1    0    0    0    0  0.00000000000E+00  0.00000000000E+00  0.45593999997E+02  0.45594000000E+02  0.51100000000E-03 0.  1.
         11   -1    0    0    0    0 -0.00000000000E+00 -0.00000000000E+00 -0.45593999997E+02  0.45594000000E+02  0.51100000000E-03 0. -1.
    9900012    2    1    2    0    0  0.82209398850E+00 -0.53638023669E-01 -0.84426374671E+00  0.90008382758E+02  0.90000652608E+02 0.  0.
        -12    1    1    2    0    0 -0.82209398850E+00  0.53638023669E-01  0.84426374671E+00  0.11796172420E+01  0.00000000000E+00 0.  1.
         11    1    3    3    0    0  0.67692544817E+01  0.66018267988E+01 -0.18668258057E+01  0.96380476327E+01  0.51100000000E-03 0. -1.
        -11    1    3    3    0    0  0.17767987144E+02 -0.35907208473E+02  0.10743974082E+02  0.41478451837E+02  0.51100000000E-03 0.  1.
         12    1    3    3    0    0 -0.23715147637E+02  0.29251743650E+02 -0.97214120225E+01  0.38891883289E+02  0.00000000000E+00 0. -1.
</event>
<event>
 7    1  0.2578619E-015  0.9000776E+02  0.7816164E-02  0.1186339E+00
        -11   -1    0    0    0    0  0.00000000000E+00  0.00000000000E+00  0.45593999997E+02  0.45594000000E+02  0.51100000000E-03 0. -1.
         11   -1    0    0    0    0 -0.00000000000E+00 -0.00000000000E+00 -0.45593999997E+02  0.45594000000E+02  0.51100000000E-03 0.  1.
    9900012    2    1    2    0    0 -0.65277358982E+00  0.44307051765E+00  0.87781084554E+00  0.90007755651E+02  0.90000017225E+02 0.  0.
        -12    1    1    2    0    0  0.65277358982E+00 -0.44307051765E+00 -0.87781084554E+00  0.11802443492E+01  0.00000000000E+00 0.  1.
         11    1    3    3    0    0  0.78031325691E+01  0.84496529849E+00 -0.62632085998E+01  0.10041445437E+02  0.51100000000E-03 0. -1.
        -11    1    3    3    0    0 -0.36582722002E+02 -0.49505791409E+01 -0.18805634907E+02  0.41430130188E+02  0.51100000000E-03 0.  1.
         12    1    3    3    0    0  0.28126815843E+02  0.45486843601E+01  0.25946654353E+02  0.38536180025E+02  0.00000000000E+00 0. -1.
</event>
<event>
 7    1  0.2578619E-015  0.9000773E+02  0.7816164E-02  0.1186339E+00
        -11   -1    0    0    0    0  0.00000000000E+00  0.00000000000E+00  0.45593999997E+02  0.45594000000E+02  0.51100000000E-03 0.  1.
         11   -1    0    0    0    0 -0.00000000000E+00 -0.00000000000E+00 -0.45593999997E+02  0.45594000000E+02  0.51100000000E-03 0. -1.
    9900012    2    1    2    0    0  0.58941969008E+00  0.87182376148E+00 -0.53437034528E+00  0.90007727189E+02  0.89999988388E+02 0.  0.
        -12    1    1    2    0    0 -0.58941969008E+00 -0.87182376148E+00  0.53437034528E+00  0.11802728109E+01  0.00000000000E+00 0.  1.
         11    1    3    3    0    0 -0.17247284232E+01 -0.33110520096E+02 -0.20712704620E+02  0.39093443978E+02  0.51100000000E-03 0. -1.
        -11    1    3    3    0    0 -0.34233778715E+01 -0.44749920160E+01 -0.22033254188E+01  0.60497696450E+01  0.51100000000E-03 0.  1.
        -12    1    3    3    0    0  0.57375259848E+01  0.38457335873E+02  0.22381659693E+02  0.44864513566E+02  0.00000000000E+00 0.  1.
</event>
<event>
 7    1  0.2578619E-015  0.9000771E+02  0.7816164E-02  0.1186339E+00
        -11   -1    0    0    0    0  0.00000000000E+00  0.00000000000E+00  0.45593999997E+02  0.45594000000E+02  0.51100000000E-03 0.  1.
         11   -1    0    0    0    0 -0.00000000000E+00 -0.00000000000E+00 -0.45593999997E+02  0.45594000000E+02  0.51100000000E-03 0. -1.
    9900012    2    1    2    0    0 -0.10714745092E+01 -0.49385374320E+00  0.33570038630E-01  0.90007713555E+02  0.89999974574E+02 0.  0.
        -12    1    1    2    0    0  0.10714745092E+01  0.49385374320E+00 -0.33570038630E-01  0.11802864445E+01  0.00000000000E+00 0.  1.
         11    1    3    3    0    0 -0.30280195053E+01 -0.37289634993E+01  0.78937437491E+01  0.92404145763E+01  0.51100000000E-03 0. -1.
        -11    1    3    3    0    0  0.32827402989E+02 -0.19207224789E+02  0.89349708505E+01  0.39069036019E+02  0.51100000000E-03 0.  1.
         12    1    3    3    0    0 -0.30870857993E+02  0.22442334545E+02 -0.16795144561E+02  0.41698262960E+02  0.00000000000E+00 0. -1.
</event>
<event>
 7    1  0.2578619E-015  0.9000777E+02  0.7816164E-02  0.1186339E+00
        -11   -1    0    0    0    0  0.00000000000E+00  0.00000000000E+00  0.45593999997E+02  0.45594000000E+02  0.51100000000E-03 0.  1.
         11   -1    0    0    0    0 -0.00000000000E+00 -0.00000000000E+00 -0.45593999997E+02  0.45594000000E+02  0.51100000000E-03 0. -1.
    9900012    2    1    2    0    0  0.62181401662E+00  0.82409628078E+00  0.57198223265E+00  0.90007766538E+02  0.90000028256E+02 0.  0.
        -12    1    1    2    0    0 -0.62181401662E+00 -0.82409628078E+00 -0.57198223265E+00  0.11802334624E+01  0.00000000000E+00 0.  1.
         11    1    3    3    0    0 -0.19351267709E+02  0.38788807689E+02  0.61474763317E+01  0.43781670016E+02  0.51100000000E-03 0. -1.
        -11    1    3    3    0    0 -0.22141671368E+01 -0.90441278166E+01 -0.25260314697E+01  0.96477779472E+01  0.51100000000E-03 0.  1.
        -12    1    3    3    0    0  0.22187248862E+02 -0.28920583592E+02 -0.30494626294E+01  0.36578318574E+02  0.00000000000E+00 0.  1.
</event>
<event>
 7    1  0.2578619E-015  0.9000773E+02  0.7816164E-02  0.1186339E+00
        -11   -1    0    0    0    0  0.00000000000E+00  0.00000000000E+00  0.45593999997E+02  0.45594000000E+02  0.51100000000E-03 0.  1.
         11   -1    0    0    0    0 -0.00000000000E+00 -0.00000000000E+00 -0.45593999997E+02  0.45594000000E+02  0.51100000000E-03 0. -1.
    9900012    2    1    2    0    0  0.69742449535E+00  0.35241204463E+00 -0.88455331584E+00  0.90007733189E+02  0.89999994467E+02 0.  0.
        -12    1    1    2    0    0 -0.69742449535E+00 -0.35241204463E+00  0.88455331584E+00  0.11802668107E+01  0.00000000000E+00 0.  1.
         11    1    3    3    0    0  0.40203857322E+01  0.58545438470E+01 -0.58467059527E+01  0.91990845116E+01  0.51100000000E-03 0. -1.
        -11    1    3    3    0    0  0.12065253256E+02  0.35041448153E+02 -0.75283798857E+00  0.37068048102E+02  0.51100000000E-03 0.  1.
         12    1    3    3    0    0 -0.15388214493E+02 -0.40543579955E+02  0.57149906254E+01  0.43740600576E+02  0.00000000000E+00 0. -1.
</event>
<event>
 7    1  0.2578619E-015  0.9000781E+02  0.7816164E-02  0.1186339E+00
        -11   -1    0    0    0    0  0.00000000000E+00  0.00000000000E+00  0.45593999997E+02  0.45594000000E+02  0.51100000000E-03 0.  1.
         11   -1    0    0    0    0 -0.00000000000E+00 -0.00000000000E+00 -0.45593999997E+02  0.45594000000E+02  0.51100000000E-03 0. -1.
    9900012    2    1    2    0    0 -0.70311258581E+00  0.59705371942E+00  0.73620695758E+00  0.90007813093E+02  0.90000075425E+02 0.  0.
        -12    1    1    2    0    0  0.70311258581E+00 -0.59705371942E+00 -0.73620695758E+00  0.11801869075E+01  0.00000000000E+00 0.  1.
         11    1    3    3    0    0 -0.14850391800E+02 -0.35332881250E+02  0.11967225016E+02  0.40151726101E+02  0.51100000000E-03 0. -1.
        -11    1    3    3    0    0  0.96830942854E+01 -0.13091469125E+01  0.22040179375E+01  0.10016679885E+02  0.51100000000E-03 0.  1.
        -12    1    3    3    0    0  0.44641849288E+01  0.37239081881E+02 -0.13435035996E+02  0.39839407107E+02  0.00000000000E+00 0.  1.
</event>
<event>
 7    1  0.2979596E-015  0.9000740E+02  0.7816164E-02  0.1186340E+00
        -11   -1    0    0    0    0  0.00000000000E+00  0.00000000000E+00  0.45593999997E+02  0.45594000000E+02  0.51100000000E-03 0. -1.
         11   -1    0    0    0    0 -0.00000000000E+00 -0.00000000000E+00 -0.45593999997E+02  0.45594000000E+02  0.51100000000E-03 0.  1.
    9900012    2    1    2    0    0  0.36299727394E+00  0.78117255331E+00  0.80734588762E+00  0.90007404828E+02  0.89999661771E+02 0.  0.
        -12    1    1    2    0    0 -0.36299727394E+00 -0.78117255331E+00 -0.80734588762E+00  0.11805951724E+01  0.00000000000E+00 0.  1.
         11    1    3    3    0    0 -0.98977247654E+01 -0.50458567562E+00  0.45992044078E-01  0.99106850300E+01  0.51100000000E-03 0. -1.
        -11    1    3    3    0    0 -0.16506899409E+02  0.32064650739E+02 -0.10894617665E+02  0.37673760755E+02  0.51100000000E-03 0.  1.
         12    1    3    3    0    0  0.26767621448E+02 -0.30778892510E+02  0.11655971509E+02  0.42422959043E+02  0.00000000000E+00 0. -1.
</event>
<event>
 7    1  0.2578619E-015  0.9000771E+02  0.7816164E-02  0.1186339E+00
        -11   -1    0    0    0    0  0.00000000000E+00  0.00000000000E+00  0.45593999997E+02  0.45594000000E+02  0.51100000000E-03 0. -1.
         11   -1    0    0    0    0 -0.00000000000E+00 -0.00000000000E+00 -0.45593999997E+02  0.45594000000E+02  0.51100000000E-03 0.  1.
    9900012    2    1    2    0    0  0.81155464715E+00 -0.39538824965E+00  0.76035258404E+00  0.90007708144E+02  0.89999969091E+02 0.  0.
        -12    1    1    2    0    0 -0.81155464715E+00  0.39538824965E+00 -0.76035258404E+00  0.11802918560E+01  0.00000000000E+00 0.  1.
         11    1    3    3    0    0  0.80725776387E+01  0.39535240663E+01 -0.15925154956E+01  0.91286892893E+01  0.51100000000E-03 0. -1.
        -11    1    3    3    0    0 -0.27315009569E+01  0.35499255068E+02 -0.13046638488E+02  0.37919295668E+02  0.51100000000E-03 0.  1.
         12    1    3    3    0    0 -0.45295220346E+01 -0.39848167384E+02  0.15399506568E+02  0.42959723187E+02  0.00000000000E+00 0. -1.
</event>
<event>
 7    1  0.2578619E-015  0.9000779E+02  0.7816164E-02  0.1186339E+00
        -11   -1    0    0    0    0  0.00000000000E+00  0.00000000000E+00  0.45593999997E+02  0.45594000000E+02  0.51100000000E-03 0.  1.
         11   -1    0    0    0    0 -0.00000000000E+00 -0.00000000000E+00 -0.45593999997E+02  0.45594000000E+02  0.51100000000E-03 0. -1.
    9900012    2    1    2    0    0 -0.22449019128E+00  0.10979662922E+01 -0.37008183599E+00  0.90007793920E+02  0.90000056000E+02 0.  0.
        -12    1    1    2    0    0  0.22449019128E+00 -0.10979662922E+01  0.37008183599E+00  0.11802060795E+01  0.00000000000E+00 0.  1.
         11    1    3    3    0    0  0.42829301295E+01  0.10037484286E+02  0.68667824048E+01  0.12893691564E+02  0.51100000000E-03 0. -1.
        -11    1    3    3    0    0  0.20876309161E+02  0.17248437942E+02  0.18218504533E+02  0.32638057591E+02  0.51100000000E-03 0.  1.
         12    1    3    3    0    0 -0.25383729482E+02 -0.26187955936E+02 -0.25455368774E+02  0.44476044765E+02  0.00000000000E+00 0. -1.
</event>
<event>
 7    1  0.2578619E-015  0.9000689E+02  0.7816164E-02  0.1186341E+00
        -11   -1    0    0    0    0  0.00000000000E+00  0.00000000000E+00  0.45593999997E+02  0.45594000000E+02  0.51100000000E-03 0.  1.
         11   -1    0    0    0    0 -0.00000000000E+00 -0.00000000000E+00 -0.45593999997E+02  0.45594000000E+02  0.51100000000E-03 0. -1.
    9900012    2    1    2    0    0 -0.61157024749E+00  0.54224548137E+00 -0.85262303650E+00  0.90006892735E+02  0.89999142915E+02 0.  0.
        -12    1    1    2    0    0  0.61157024749E+00 -0.54224548137E+00  0.85262303650E+00  0.11811072653E+01  0.00000000000E+00 0.  1.
         11    1    3    3    0    0 -0.19041956942E+02 -0.31803732842E+02  0.62207488219E+01  0.37586849603E+02  0.51100000000E-03 0. -1.
        -11    1    3    3    0    0  0.43034348097E+01 -0.78724333000E+01  0.10249721555E+01  0.90302450357E+01  0.51100000000E-03 0.  1.
        -12    1    3    3    0    0  0.14126951885E+02  0.40218411623E+02 -0.80983440139E+01  0.43389798096E+02  0.00000000000E+00 0.  1.
</event>
<event>
 7    1  0.2578619E-015  0.9000775E+02  0.7816164E-02  0.1186339E+00
        -11   -1    0    0    0    0  0.00000000000E+00  0.00000000000E+00  0.45593999997E+02  0.45594000000E+02  0.51100000000E-03 0.  1.
         11   -1    0    0    0    0 -0.00000000000E+00 -0.00000000000E+00 -0.45593999997E+02  0.45594000000E+02  0.51100000000E-03 0. -1.
    9900012    2    1    2    0    0 -0.17657493760E+00  0.50151282253E-01 -0.11658891751E+01  0.90007749421E+02  0.90000010914E+02 0.  0.
        -12    1    1    2    0    0  0.17657493760E+00 -0.50151282253E-01  0.11658891751E+01  0.11802505786E+01  0.00000000000E+00 0.  1.
         11    1    3    3    0    0 -0.37075281056E+02 -0.59252115617E+01 -0.33367295823E+01  0.37693744335E+02  0.51100000000E-03 0. -1.
        -11    1    3    3    0    0 -0.46980354476E+01  0.30782646907E+01  0.84499476505E+01  0.10146372067E+02  0.51100000000E-03 0.  1.
        -12    1    3    3    0    0  0.41596741566E+02  0.28970981532E+01 -0.62791072432E+01  0.42167633019E+02  0.00000000000E+00 0.  1.
</event>
<event>
 7    1  0.2578619E-015  0.9000774E+02  0.7816164E-02  0.1186339E+00
        -11   -1    0    0    0    0  0.00000000000E+00  0.00000000000E+00  0.45593999997E+02  0.45594000000E+02  0.51100000000E-03 0.  1.
         11   -1    0    0    0    0 -0.00000000000E+00 -0.00000000000E+00 -0.45593999997E+02  0.45594000000E+02  0.51100000000E-03 0. -1.
    9900012    2    1    2    0    0  0.77399340594E+00  0.88991200796E+00 -0.44797820226E-01  0.90007739004E+02  0.90000000359E+02 0.  0.
        -12    1    1    2    0    0 -0.77399340594E+00 -0.88991200796E+00  0.44797820226E-01  0.11802609962E+01  0.00000000000E+00 0.  1.
         11    1    3    3    0    0 -0.30940105401E+02 -0.44278712008E+01 -0.23947172569E+02  0.39374652251E+02  0.51100000000E-03 0. -1.
        -11    1    3    3    0    0 -0.39088374656E+01 -0.60761334274E+01  0.34676521534E+01  0.80139265955E+01  0.51100000000E-03 0.  1.
        -12    1    3    3    0    0  0.35622936272E+02  0.11393916636E+02  0.20434722595E+02  0.42619160157E+02  0.00000000000E+00 0.  1.
</event>
<event>
 7    1  0.2578619E-015  0.9000772E+02  0.7816164E-02  0.1186339E+00
        -11   -1    0    0    0    0  0.00000000000E+00  0.00000000000E+00  0.45593999997E+02  0.45594000000E+02  0.51100000000E-03 0.  1.
         11   -1    0    0    0    0 -0.00000000000E+00 -0.00000000000E+00 -0.45593999997E+02  0.45594000000E+02  0.51100000000E-03 0. -1.
    9900012    2    1    2    0    0  0.23577254838E+00 -0.51327722874E+00 -0.10363539752E+01  0.90007715386E+02  0.89999976429E+02 0.  0.
        -12    1    1    2    0    0 -0.23577254838E+00  0.51327722874E+00  0.10363539752E+01  0.11802846140E+01  0.00000000000E+00 0.  1.
         11    1    3    3    0    0 -0.14684615809E+02 -0.26320192463E+02 -0.10475684785E+02  0.31908156398E+02  0.51100000000E-03 0. -1.
        -11    1    3    3    0    0 -0.29089577817E+01 -0.10579278962E+02 -0.84084280415E+01  0.13823344065E+02  0.51100000000E-03 0.  1.
        -12    1    3    3    0    0  0.17829346139E+02  0.36386194197E+02  0.17847758852E+02  0.44276214923E+02  0.00000000000E+00 0.  1.
</event>
<event>
 7    1  0.2578619E-015  0.9000774E+02  0.7816164E-02  0.1186339E+00
        -11   -1    0    0    0    0  0.00000000000E+00  0.00000000000E+00  0.45593999997E+02  0.45594000000E+02  0.51100000000E-03 0. -1.
         11   -1    0    0    0    0 -0.00000000000E+00 -0.00000000000E+00 -0.45593999997E+02  0.45594000000E+02  0.51100000000E-03 0.  1.
    9900012    2    1    2    0    0 -0.54875989941E+00 -0.63759835286E+00  0.82785426610E+00  0.90007740803E+02  0.90000002181E+02 0.  0.
        -12    1    1    2    0    0  0.54875989941E+00  0.63759835286E+00 -0.82785426610E+00  0.11802591972E+01  0.00000000000E+00 0.  1.
         11    1    3    3    0    0 -0.23773119459E+02 -0.13737538428E+02  0.26315888643E+02  0.38031660050E+02  0.51100000000E-03 0. -1.
        -11    1    3    3    0    0 -0.10701442859E+01  0.29373934161E+01  0.84554774069E+01  0.90149091684E+01  0.51100000000E-03 0.  1.
        -12    1    3    3    0    0  0.24294503845E+02  0.10162546659E+02 -0.33943511784E+02  0.42961171584E+02  0.00000000000E+00 0.  1.
</event>
<event>
 7    1  0.2578619E-015  0.9000768E+02  0.7816164E-02  0.1186339E+00
        -11   -1    0    0    0    0  0.00000000000E+00  0.00000000000E+00  0.45593999997E+02  0.45594000000E+02  0.51100000000E-03 0.  1.
         11   -1    0    0    0    0 -0.00000000000E+00 -0.00000000000E+00 -0.45593999997E+02  0.45594000000E+02  0.51100000000E-03 0. -1.
    9900012    2    1    2    0    0 -0.94912824326E+00 -0.55434796477E+00 -0.43013495356E+00  0.90007677092E+02  0.89999937630E+02 0.  0.
        -12    1    1    2    0    0  0.94912824326E+00  0.55434796477E+00  0.43013495356E+00  0.11803229077E+01  0.00000000000E+00 0.  1.
         11    1    3    3    0    0  0.31828455617E+02 -0.24973427319E+02  0.13553488148E+01  0.40479125852E+02  0.51100000000E-03 0. -1.
        -11    1    3    3    0    0 -0.66587578522E+01 -0.61607467415E+01  0.14329367405E+01  0.91840712384E+01  0.51100000000E-03 0.  1.
        -12    1    3    3    0    0 -0.26118826008E+02  0.30579826096E+02 -0.32184205088E+01  0.40344480002E+02  0.00000000000E+00 0.  1.
</event>
<event>
 7    1  0.2578619E-015  0.9000772E+02  0.7816164E-02  0.1186339E+00
        -11   -1    0    0    0    0  0.00000000000E+00  0.00000000000E+00  0.45593999997E+02  0.45594000000E+02  0.51100000000E-03 0. -1.
         11   -1    0    0    0    0 -0.00000000000E+00 -0.00000000000E+00 -0.45593999997E+02  0.45594000000E+02  0.51100000000E-03 0.  1.
    9900012    2    1    2    0    0 -0.45395827090E-01  0.11788024295E+01  0.37790454344E-01  0.90007718649E+02  0.89999979735E+02 0.  0.
        -12    1    1    2    0    0  0.45395827090E-01 -0.11788024295E+01 -0.37790454344E-01  0.11802813510E+01  0.00000000000E+00 0.  1.
         11    1    3    3    0    0  0.59015125365E+01 -0.12666212681E+01 -0.82774358886E+01  0.10244419203E+02  0.51100000000E-03 0. -1.
        -11    1    3    3    0    0 -0.11246043065E+02 -0.41563233800E+01 -0.34289763604E+02  0.36325423561E+02  0.51100000000E-03 0.  1.
         12    1    3    3    0    0  0.52991347010E+01  0.66017470777E+01  0.42604989946E+02  0.43437875885E+02  0.00000000000E+00 0. -1.
</event>
<event>
 7    1  0.2578619E-015  0.9000770E+02  0.7816164E-02  0.1186339E+00
        -11   -1    0    0    0    0  0.00000000000E+00  0.00000000000E+00  0.45593999997E+02  0.45594000000E+02  0.51100000000E-03 0. -1.
         11   -1    0    0    0    0 -0.00000000000E+00 -0.00000000000E+00 -0.45593999997E+02  0.45594000000E+02  0.51100000000E-03 0.  1.
    9900012    2    1    2    0    0 -0.43409264509E+00 -0.42816974311E+00  0.10106179890E+01  0.90007697296E+02  0.89999958100E+02 0.  0.
        -12    1    1    2    0    0  0.43409264509E+00  0.42816974311E+00 -0.10106179890E+01  0.11803027040E+01  0.00000000000E+00 0.  1.
         11    1    3    3    0    0 -0.15137792275E+02  0.98531755662E+01  0.45588413858E+01  0.18628495880E+02  0.51100000000E-03 0. -1.
        -11    1    3    3    0    0 -0.19343512139E+02  0.40597431253E+01 -0.22424730510E+02  0.29891830235E+02  0.51100000000E-03 0.  1.
         12    1    3    3    0    0  0.34047211769E+02 -0.14341088435E+02  0.18876507113E+02  0.41487371181E+02  0.00000000000E+00 0. -1.
</event>
<event>
 7    1  0.4804624E-015  0.9000775E+02  0.7816164E-02  0.1186339E+00
        -11   -1    0    0    0    0  0.00000000000E+00  0.00000000000E+00  0.45593999997E+02  0.45594000000E+02  0.51100000000E-03 0. -1.
         11   -1    0    0    0    0 -0.00000000000E+00 -0.00000000000E+00 -0.45593999997E+02  0.45594000000E+02  0.51100000000E-03 0.  1.
    9900012    2    1    2    0    0  0.29724235630E+00  0.63716065387E+00  0.94798230565E+00  0.90007746989E+02  0.90000008450E+02 0.  0.
        -12    1    1    2    0    0 -0.29724235630E+00 -0.63716065387E+00 -0.94798230565E+00  0.11802530106E+01  0.00000000000E+00 0.  1.
         11    1    3    3    0    0 -0.42659269859E+01 -0.78268821586E+01 -0.24546776058E+01  0.92457373845E+01  0.51100000000E-03 0. -1.
        -11    1    3    3    0    0 -0.12637702682E+02 -0.24420682004E+02 -0.22479599793E+02  0.35516385595E+02  0.51100000000E-03 0.  1.
         12    1    3    3    0    0  0.17200872024E+02  0.32884724817E+02  0.25882259704E+02  0.45245624010E+02  0.00000000000E+00 0. -1.
</event>
<event>
 7    1  0.2578619E-015  0.9000782E+02  0.7816164E-02  0.1186339E+00
        -11   -1    0    0    0    0  0.00000000000E+00  0.00000000000E+00  0.45593999997E+02  0.45594000000E+02  0.51100000000E-03 0. -1.
         11   -1    0    0    0    0 -0.00000000000E+00 -0.00000000000E+00 -0.45593999997E+02  0.45594000000E+02  0.51100000000E-03 0.  1.
    9900012    2    1    2    0    0  0.10175401366E+00  0.10606492350E+01  0.50743195438E+00  0.90007822951E+02  0.90000085414E+02 0.  0.
        -12    1    1    2    0    0 -0.10175401366E+00 -0.10606492350E+01 -0.50743195438E+00  0.11801770491E+01  0.00000000000E+00 0.  1.
         11    1    3    3    0    0  0.79553424407E+01  0.27602160843E+02  0.13273433796E+02  0.31644127441E+02  0.51100000000E-03 0. -1.
        -11    1    3    3    0    0 -0.10675890459E+02  0.82627572050E+01  0.98937258114E+01  0.16737192250E+02  0.51100000000E-03 0.  1.
        -12    1    3    3    0    0  0.28223020315E+01 -0.34804268813E+02 -0.22659727653E+02  0.41626503260E+02  0.00000000000E+00 0.  1.
</event>
<event>
 7    1  0.2578619E-015  0.9000760E+02  0.7816164E-02  0.1186339E+00
        -11   -1    0    0    0    0  0.00000000000E+00  0.00000000000E+00  0.45593999997E+02  0.45594000000E+02  0.51100000000E-03 0. -1.
         11   -1    0    0    0    0 -0.00000000000E+00 -0.00000000000E+00 -0.45593999997E+02  0.45594000000E+02  0.51100000000E-03 0.  1.
    9900012    2    1    2    0    0  0.85265693545E+00 -0.77157261039E+00 -0.26644055874E+00  0.90007602307E+02  0.89999861857E+02 0.  0.
        -12    1    1    2    0    0 -0.85265693545E+00  0.77157261039E+00  0.26644055874E+00  0.11803976932E+01  0.00000000000E+00 0.  1.
         11    1    3    3    0    0 -0.31159424816E+01 -0.12439749273E+01 -0.12962453647E+02  0.13389614482E+02  0.51100000000E-03 0. -1.
        -11    1    3    3    0    0 -0.30065240105E+01 -0.45234770272E+01 -0.31312938334E+02  0.31780515075E+02  0.51100000000E-03 0.  1.
         12    1    3    3    0    0  0.69751234275E+01  0.49958793441E+01  0.44008951423E+02  0.44837472750E+02  0.00000000000E+00 0. -1.
</event>
<event>
 7    1  0.2578619E-015  0.9000771E+02  0.7816164E-02  0.1186339E+00
        -11   -1    0    0    0    0  0.00000000000E+00  0.00000000000E+00  0.45593999997E+02  0.45594000000E+02  0.51100000000E-03 0.  1.
         11   -1    0    0    0    0 -0.00000000000E+00 -0.00000000000E+00 -0.45593999997E+02  0.45594000000E+02  0.51100000000E-03 0. -1.
    9900012    2    1    2    0    0 -0.69133627934E+00  0.10531102848E+00 -0.95080852352E+00  0.90007714817E+02  0.89999975853E+02 0.  0.
        -12    1    1    2    0    0  0.69133627934E+00 -0.10531102848E+00  0.95080852352E+00  0.11802851826E+01  0.00000000000E+00 0.  1.
         11    1    3    3    0    0  0.89150230704E+01  0.47804221534E+01 -0.42167995307E+01  0.10959537894E+02  0.51100000000E-03 0. -1.
        -11    1    3    3    0    0  0.62628049510E+01  0.29175357722E+02  0.22151422979E+02  0.37163285166E+02  0.51100000000E-03 0.  1.
         12    1    3    3    0    0 -0.15869164301E+02 -0.33850468847E+02 -0.18885431972E+02  0.41884891757E+02  0.00000000000E+00 0. -1.
</event>
<event>
 7    1  0.2578619E-015  0.9000771E+02  0.7816164E-02  0.1186339E+00
        -11   -1    0    0    0    0  0.00000000000E+00  0.00000000000E+00  0.45593999997E+02  0.45594000000E+02  0.51100000000E-03 0.  1.
         11   -1    0    0    0    0 -0.00000000000E+00 -0.00000000000E+00 -0.45593999997E+02  0.45594000000E+02  0.51100000000E-03 0. -1.
    9900012    2    1    2    0    0  0.22907351793E+00  0.11110996933E+01 -0.32568582966E+00  0.90007708314E+02  0.89999969263E+02 0.  0.
        -12    1    1    2    0    0 -0.22907351793E+00 -0.11110996933E+01  0.32568582966E+00  0.11802916863E+01  0.00000000000E+00 0.  1.
         11    1    3    3    0    0 -0.27061490199E+02 -0.11730912002E+02 -0.24514711878E+02  0.38352439908E+02  0.51100000000E-03 0. -1.
        -11    1    3    3    0    0  0.38767516677E+01  0.48018173223E+00 -0.86386912974E+01  0.94808631243E+01  0.51100000000E-03 0.  1.
        -12    1    3    3    0    0  0.23413812050E+02  0.12361829963E+02  0.32827717345E+02  0.42174405281E+02  0.00000000000E+00 0.  1.
</event>
<event>
 7    1  0.2578619E-015  0.9000779E+02  0.7816164E-02  0.1186339E+00
        -11   -1    0    0    0    0  0.00000000000E+00  0.00000000000E+00  0.45593999997E+02  0.45594000000E+02  0.51100000000E-03 0.  1.
         11   -1    0    0    0    0 -0.00000000000E+00 -0.00000000000E+00 -0.45593999997E+02  0.45594000000E+02  0.51100000000E-03 0. -1.
    9900012    2    1    2    0    0  0.65235473659E+00 -0.98075719606E+00 -0.73795779812E-01  0.90007789342E+02  0.90000051361E+02 0.  0.
        -12    1    1    2    0    0 -0.65235473659E+00  0.98075719606E+00  0.73795779812E-01  0.11802106579E+01  0.00000000000E+00 0.  1.
         11    1    3    3    0    0  0.15691738815E+02 -0.17134520886E+02 -0.33492833711E+02  0.40762634647E+02  0.51100000000E-03 0. -1.
        -11    1    3    3    0    0 -0.63195631099E+01  0.36578371278E+01 -0.43630940664E+01  0.85060707995E+01  0.51100000000E-03 0.  1.
        -12    1    3    3    0    0 -0.87198209689E+01  0.12495926562E+02  0.37782131998E+02  0.40739083896E+02  0.00000000000E+00 0.  1.
</event>
<event>
 7    1  0.2578619E-015  0.9000773E+02  0.7816164E-02  0.1186339E+00
        -11   -1    0    0    0    0  0.00000000000E+00  0.00000000000E+00  0.45593999997E+02  0.45594000000E+02  0.51100000000E-03 0.  1.
         11   -1    0    0    0    0 -0.00000000000E+00 -0.00000000000E+00 -0.45593999997E+02  0.45594000000E+02  0.51100000000E-03 0. -1.
    9900012    2    1    2    0    0 -0.50337092052E+00  0.17323011674E+00 -0.10533958182E+01  0.90007731511E+02  0.89999992767E+02 0.  0.
        -12    1    1    2    0    0  0.50337092052E+00 -0.17323011674E+00  0.10533958182E+01  0.11802684892E+01  0.00000000000E+00 0.  1.
         11    1    3    3    0    0 -0.75279174366E+01 -0.52115911045E+01 -0.35410537663E+00  0.91627295961E+01  0.51100000000E-03 0. -1.
        -11    1    3    3    0    0  0.17650288417E+02  0.24350433610E+01  0.37268253713E+02  0.41308411401E+02  0.51100000000E-03 0.  1.
         12    1    3    3    0    0 -0.10625741901E+02  0.29497778602E+01 -0.37967544154E+02  0.39536590514E+02  0.00000000000E+00 0. -1.
</event>
<event>
 7    1  0.2578619E-015  0.9000787E+02  0.7816164E-02  0.1186339E+00
        -11   -1    0    0    0    0  0.00000000000E+00  0.00000000000E+00  0.45593999997E+02  0.45594000000E+02  0.51100000000E-03 0.  1.
         11   -1    0    0    0    0 -0.00000000000E+00 -0.00000000000E+00 -0.45593999997E+02  0.45594000000E+02  0.51100000000E-03 0. -1.
    9900012    2    1    2    0    0 -0.22442070039E+00 -0.11537691195E+01 -0.10566617345E+00  0.90007867307E+02  0.90000130356E+02 0.  0.
        -12    1    1    2    0    0  0.22442070039E+00  0.11537691195E+01  0.10566617345E+00  0.11801326926E+01  0.00000000000E+00 0.  1.
         11    1    3    3    0    0 -0.81831546346E+01 -0.27994854789E+01 -0.40215268233E+02  0.41134765564E+02  0.51100000000E-03 0. -1.
        -11    1    3    3    0    0  0.14728898920E+01  0.73942865623E+01 -0.29905832551E+00  0.75454830556E+01  0.51100000000E-03 0.  1.
        -12    1    3    3    0    0  0.64858440422E+01 -0.57485702029E+01  0.40408660385E+02  0.41327618688E+02  0.00000000000E+00 0.  1.
</event>
<event>
 7    1  0.2578619E-015  0.9000770E+02  0.7816164E-02  0.1186339E+00
        -11   -1    0    0    0    0  0.00000000000E+00  0.00000000000E+00  0.45593999997E+02  0.45594000000E+02  0.51100000000E-03 0.  1.
         11   -1    0    0    0    0 -0.00000000000E+00 -0.00000000000E+00 -0.45593999997E+02  0.45594000000E+02  0.51100000000E-03 0. -1.
    9900012    2    1    2    0    0  0.33951431510E+00  0.10144478460E+01 -0.49873029660E+00  0.90007700754E+02  0.89999961603E+02 0.  0.
        -12    1    1    2    0    0 -0.33951431510E+00 -0.10144478460E+01  0.49873029660E+00  0.11802992465E+01  0.00000000000E+00 0.  1.
         11    1    3    3    0    0  0.55886900941E+01  0.86307383721E+01  0.28278306142E+01  0.10663945239E+02  0.51100000000E-03 0. -1.
        -11    1    3    3    0    0 -0.18869678504E+02  0.29637519972E+02 -0.14690643330E+02  0.38082310311E+02  0.51100000000E-03 0.  1.
         12    1    3    3    0    0  0.13620502725E+02 -0.37253810498E+02  0.11364082419E+02  0.41261445204E+02  0.00000000000E+00 0. -1.
</event>
<event>
 7    1  0.2578619E-015  0.9000779E+02  0.7816164E-02  0.1186339E+00
        -11   -1    0    0    0    0  0.00000000000E+00  0.00000000000E+00  0.45593999997E+02  0.45594000000E+02  0.51100000000E-03 0.  1.
         11   -1    0    0    0    0 -0.00000000000E+00 -0.00000000000E+00 -0.45593999997E+02  0.45594000000E+02  0.51100000000E-03 0. -1.
    9900012    2    1    2    0    0  0.41409905331E+00 -0.23079529455E-01 -0.11049369030E+01  0.90007789743E+02  0.90000051768E+02 0.  0.
        -12    1    1    2    0    0 -0.41409905331E+00  0.23079529455E-01  0.11049369030E+01  0.11802102568E+01  0.00000000000E+00 0.  1.
         11    1    3    3    0    0  0.86792947379E+00  0.81604640086E+01 -0.23996134992E+01  0.85501239531E+01  0.51100000000E-03 0. -1.
        -11    1    3    3    0    0 -0.17925010173E+02  0.32301617307E+02  0.46635391455E+01  0.37235051604E+02  0.51100000000E-03 0.  1.
         12    1    3    3    0    0  0.17471179752E+02 -0.40485160845E+02 -0.33688625493E+01  0.44222614186E+02  0.00000000000E+00 0. -1.
</event>
<event>
 7    1  0.2578619E-015  0.9000776E+02  0.7816164E-02  0.1186339E+00
        -11   -1    0    0    0    0  0.00000000000E+00  0.00000000000E+00  0.45593999997E+02  0.45594000000E+02  0.51100000000E-03 0.  1.
         11   -1    0    0    0    0 -0.00000000000E+00 -0.00000000000E+00 -0.45593999997E+02  0.45594000000E+02  0.51100000000E-03 0. -1.
    9900012    2    1    2    0    0  0.68662325697E+00  0.64784610317E+00 -0.70838845721E+00  0.90007758382E+02  0.90000019993E+02 0.  0.
        -12    1    1    2    0    0 -0.68662325697E+00 -0.64784610317E+00  0.70838845721E+00  0.11802416179E+01  0.00000000000E+00 0.  1.
         11    1    3    3    0    0 -0.48123098186E+01  0.51474895339E+01 -0.61385765560E+01  0.93454318620E+01  0.51100000000E-03 0. -1.
        -11    1    3    3    0    0 -0.22406746915E+02  0.17804166337E+02  0.26654717395E+02  0.39109137115E+02  0.51100000000E-03 0.  1.
         12    1    3    3    0    0  0.27905679990E+02 -0.22303809768E+02 -0.21224529296E+02  0.41553189405E+02  0.00000000000E+00 0. -1.
</event>
<event>
 7    1  0.2578619E-015  0.9000756E+02  0.7816164E-02  0.1186339E+00
        -11   -1    0    0    0    0  0.00000000000E+00  0.00000000000E+00  0.45593999997E+02  0.45594000000E+02  0.51100000000E-03 0. -1.
         11   -1    0    0    0    0 -0.00000000000E+00 -0.00000000000E+00 -0.45593999997E+02  0.45594000000E+02  0.51100000000E-03 0.  1.
    9900012    2    1    2    0    0  0.90643321260E+00 -0.60370284350E+00 -0.45537703056E+00  0.90007556637E+02  0.89999815585E+02 0.  0.
        -12    1    1    2    0    0 -0.90643321260E+00  0.60370284350E+00  0.45537703056E+00  0.11804433625E+01  0.00000000000E+00 0.  1.
         11    1    3    3    0    0 -0.65774415850E+00 -0.35639259346E+02  0.10361604394E+02  0.37120779625E+02  0.51100000000E-03 0. -1.
        -11    1    3    3    0    0 -0.55702050878E+01 -0.70212522326E+01 -0.34187329437E+01  0.95923356298E+01  0.51100000000E-03 0.  1.
        -12    1    3    3    0    0  0.71343824589E+01  0.42056808735E+02 -0.73982484805E+01  0.43294441383E+02  0.00000000000E+00 0.  1.
</event>
<event>
 7    1  0.2578619E-015  0.9000772E+02  0.7816164E-02  0.1186339E+00
        -11   -1    0    0    0    0  0.00000000000E+00  0.00000000000E+00  0.45593999997E+02  0.45594000000E+02  0.51100000000E-03 0. -1.
         11   -1    0    0    0    0 -0.00000000000E+00 -0.00000000000E+00 -0.45593999997E+02  0.45594000000E+02  0.51100000000E-03 0.  1.
    9900012    2    1    2    0    0 -0.87660560058E-01  0.59485497231E+00  0.10156451270E+01  0.90007715358E+02  0.89999976401E+02 0.  0.
        -12    1    1    2    0    0  0.87660560058E-01 -0.59485497231E+00 -0.10156451270E+01  0.11802846419E+01  0.00000000000E+00 0.  1.
         11    1    3    3    0    0  0.61886560073E+01  0.37346754046E+02 -0.36689649109E+01  0.38033416948E+02  0.51100000000E-03 0. -1.
        -11    1    3    3    0    0 -0.13089123745E+02 -0.11785186060E+01 -0.56556066448E+01  0.14307339141E+02  0.51100000000E-03 0.  1.
        -12    1    3    3    0    0  0.68128071773E+01 -0.35573380468E+02  0.10340216683E+02  0.37666959269E+02  0.00000000000E+00 0.  1.
</event>
<event>
 7    1  0.2578619E-015  0.9000775E+02  0.7816164E-02  0.1186339E+00
        -11   -1    0    0    0    0  0.00000000000E+00  0.00000000000E+00  0.45593999997E+02  0.45594000000E+02  0.51100000000E-03 0.  1.
         11   -1    0    0    0    0 -0.00000000000E+00 -0.00000000000E+00 -0.45593999997E+02  0.45594000000E+02  0.51100000000E-03 0. -1.
    9900012    2    1    2    0    0 -0.97487512048E+00 -0.63486442748E+00  0.19890767331E+00  0.90007746381E+02  0.90000007834E+02 0.  0.
        -12    1    1    2    0    0  0.97487512048E+00  0.63486442748E+00 -0.19890767331E+00  0.11802536186E+01  0.00000000000E+00 0.  1.
         11    1    3    3    0    0  0.18034538800E+02  0.31095788980E+02 -0.50035062487E+01  0.36293632459E+02  0.51100000000E-03 0. -1.
        -11    1    3    3    0    0  0.47964640505E+01  0.67059380578E+01  0.53165147413E+00  0.82618597285E+01  0.51100000000E-03 0.  1.
        -12    1    3    3    0    0 -0.23805877971E+02 -0.38436591466E+02  0.46707624479E+01  0.45452254194E+02  0.00000000000E+00 0.  1.
</event>
<event>
 7    1  0.2578619E-015  0.9000774E+02  0.7816164E-02  0.1186339E+00
        -11   -1    0    0    0    0  0.00000000000E+00  0.00000000000E+00  0.45593999997E+02  0.45594000000E+02  0.51100000000E-03 0.  1.
         11   -1    0    0    0    0 -0.00000000000E+00 -0.00000000000E+00 -0.45593999997E+02  0.45594000000E+02  0.51100000000E-03 0. -1.
    9900012    2    1    2    0    0 -0.94588488589E+00 -0.60347610719E+00  0.36623671830E+00  0.90007741146E+02  0.90000002529E+02 0.  0.
        -12    1    1    2    0    0  0.94588488589E+00  0.60347610719E+00 -0.36623671830E+00  0.11802588543E+01  0.00000000000E+00 0.  1.
         11    1    3    3    0    0 -0.79214524025E+01  0.14620540409E+02  0.17040730271E+02  0.23809579972E+02  0.51100000000E-03 0. -1.
        -11    1    3    3    0    0  0.23031511747E+02  0.13865202749E+02 -0.18955456608E+02  0.32893824893E+02  0.51100000000E-03 0.  1.
         12    1    3    3    0    0 -0.16055944231E+02 -0.29089219265E+02  0.22809630547E+01  0.33304336280E+02  0.00000000000E+00 0. -1.
</event>
<event>
 7    1  0.2578619E-015  0.9000771E+02  0.7816164E-02  0.1186339E+00
        -11   -1    0    0    0    0  0.00000000000E+00  0.00000000000E+00  0.45593999997E+02  0.45594000000E+02  0.51100000000E-03 0.  1.
         11   -1    0    0    0    0 -0.00000000000E+00 -0.00000000000E+00 -0.45593999997E+02  0.45594000000E+02  0.51100000000E-03 0. -1.
    9900012    2    1    2    0    0  0.11649687868E+01  0.18728709993E+00 -0.29454045097E-01  0.90007705006E+02  0.89999965912E+02 0.  0.
        -12    1    1    2    0    0 -0.11649687868E+01 -0.18728709993E+00  0.29454045097E-01  0.11802949939E+01  0.00000000000E+00 0.  1.
         11    1    3    3    0    0  0.24944761582E+01 -0.86921207683E+00  0.95992884655E+01  0.99561177295E+01  0.51100000000E-03 0. -1.
        -11    1    3    3    0    0 -0.27755625518E+02 -0.28238974952E+02 -0.89395823513E+01  0.40592247870E+02  0.51100000000E-03 0.  1.
         12    1    3    3    0    0  0.26426118146E+02  0.29295474129E+02 -0.68916015936E+00  0.39459339407E+02  0.00000000000E+00 0. -1.
</event>
<event>
 7    1  0.2578619E-015  0.9000776E+02  0.7816164E-02  0.1186339E+00
        -11   -1    0    0    0    0  0.00000000000E+00  0.00000000000E+00  0.45593999997E+02  0.45594000000E+02  0.51100000000E-03 0. -1.
         11   -1    0    0    0    0 -0.00000000000E+00 -0.00000000000E+00 -0.45593999997E+02  0.45594000000E+02  0.51100000000E-03 0.  1.
    9900012    2    1    2    0    0  0.35726342162E+00 -0.56060849264E+00  0.97521119944E+00  0.90007764465E+02  0.90000026156E+02 0.  0.
        -12    1    1    2    0    0 -0.35726342162E+00  0.56060849264E+00 -0.97521119944E+00  0.11802355349E+01  0.00000000000E+00 0.  1.
         11    1    3    3    0    0  0.65219403313E+01 -0.21829244517E+02  0.29922625477E+02  0.37608710926E+02  0.51100000000E-03 0. -1.
        -11    1    3    3    0    0 -0.10354267721E+01 -0.41674213973E+01  0.69113545181E+01  0.81367273051E+01  0.51100000000E-03 0.  1.
        -12    1    3    3    0    0 -0.51292501376E+01  0.25436057421E+02 -0.35858768795E+02  0.44262326234E+02  0.00000000000E+00 0.  1.
</event>
<event>
 7    1  0.2578619E-015  0.9000764E+02  0.7816164E-02  0.1186339E+00
        -11   -1    0    0    0    0  0.00000000000E+00  0.00000000000E+00  0.45593999997E+02  0.45594000000E+02  0.51100000000E-03 0. -1.
         11   -1    0    0    0    0 -0.00000000000E+00 -0.00000000000E+00 -0.45593999997E+02  0.45594000000E+02  0.51100000000E-03 0.  1.
    9900012    2    1    2    0    0  0.72755593105E+00 -0.59990317176E+00 -0.70995646162E+00  0.90007635808E+02  0.89999895801E+02 0.  0.
        -12    1    1    2    0    0 -0.72755593105E+00  0.59990317176E+00  0.70995646162E+00  0.11803641920E+01  0.00000000000E+00 0.  1.
         11    1    3    3    0    0  0.15748914029E+02  0.36163620462E+02  0.12809368423E+02  0.41471865858E+02  0.51100000000E-03 0. -1.
        -11    1    3    3    0    0  0.23951032756E+01 -0.10476679565E+02  0.51216103130E+01  0.11904966479E+02  0.51100000000E-03 0.  1.
        -12    1    3    3    0    0 -0.17416461374E+02 -0.26286844069E+02 -0.18640935198E+02  0.36630803471E+02  0.00000000000E+00 0.  1.
</event>
<event>
 7    1  0.2578619E-015  0.9000748E+02  0.7816164E-02  0.1186340E+00
        -11   -1    0    0    0    0  0.00000000000E+00  0.00000000000E+00  0.45593999997E+02  0.45594000000E+02  0.51100000000E-03 0.  1.
         11   -1    0    0    0    0 -0.00000000000E+00 -0.00000000000E+00 -0.45593999997E+02  0.45594000000E+02  0.51100000000E-03 0. -1.
    9900012    2    1    2    0    0  0.46827065719E+00 -0.78873172746E+00 -0.74313090433E+00  0.90007483720E+02  0.89999741705E+02 0.  0.
        -12    1    1    2    0    0 -0.46827065719E+00  0.78873172746E+00  0.74313090433E+00  0.11805162800E+01  0.00000000000E+00 0.  1.
         11    1    3    3    0    0 -0.92623624262E+01 -0.97100662504E+01  0.10884883822E+02  0.17278814785E+02  0.51100000000E-03 0. -1.
        -11    1    3    3    0    0 -0.85843812532E+01 -0.23920605963E+02  0.12220934099E+02  0.28199968469E+02  0.51100000000E-03 0.  1.
         12    1    3    3    0    0  0.18315014337E+02  0.32841940486E+02 -0.23848948826E+02  0.44528700465E+02  0.00000000000E+00 0. -1.
</event>
<event>
 7    1  0.2578619E-015  0.9000778E+02  0.7816164E-02  0.1186339E+00
        -11   -1    0    0    0    0  0.00000000000E+00  0.00000000000E+00  0.45593999997E+02  0.45594000000E+02  0.51100000000E-03 0. -1.
         11   -1    0    0    0    0 -0.00000000000E+00 -0.00000000000E+00 -0.45593999997E+02  0.45594000000E+02  0.51100000000E-03 0.  1.
    9900012    2    1    2    0    0  0.17534829341E+00 -0.60302256256E+00  0.99927283631E+00  0.90007775684E+02  0.90000037523E+02 0.  0.
        -12    1    1    2    0    0 -0.17534829341E+00  0.60302256256E+00 -0.99927283631E+00  0.11802243161E+01  0.00000000000E+00 0.  1.
         11    1    3    3    0    0  0.11859691701E+02 -0.25709563961E+02  0.26455772669E+02  0.38749733858E+02  0.51100000000E-03 0. -1.
        -11    1    3    3    0    0  0.92491508089E+01 -0.14336399308E+01 -0.75087161559E+00  0.93896710582E+01  0.51100000000E-03 0.  1.
        -12    1    3    3    0    0 -0.20933494216E+02  0.26540181330E+02 -0.24705628217E+02  0.41868370767E+02  0.00000000000E+00 0.  1.
</event>
<event>
 7    1  0.2578619E-015  0.9000775E+02  0.7816164E-02  0.1186339E+00
        -11   -1    0    0    0    0  0.00000000000E+00  0.00000000000E+00  0.45593999997E+02  0.45594000000E+02  0.51100000000E-03 0. -1.
         11   -1    0    0    0    0 -0.00000000000E+00 -0.00000000000E+00 -0.45593999997E+02  0.45594000000E+02  0.51100000000E-03 0.  1.
    9900012    2    1    2    0    0 -0.11153895053E+01  0.29423227586E+00  0.24963166141E+00  0.90007753269E+02  0.90000014812E+02 0.  0.
        -12    1    1    2    0    0  0.11153895053E+01 -0.29423227586E+00 -0.24963166141E+00  0.11802467314E+01  0.00000000000E+00 0.  1.
         11    1    3    3    0    0 -0.22866322228E+02  0.25873069879E+02  0.18203761168E+02  0.39034105064E+02  0.51100000000E-03 0. -1.
        -11    1    3    3    0    0  0.29114697484E+01  0.33178812808E+01  0.70856314673E+01  0.83481234922E+01  0.51100000000E-03 0.  1.
        -12    1    3    3    0    0  0.18839462974E+02 -0.28896718884E+02 -0.25039760974E+02  0.42625524713E+02  0.00000000000E+00 0.  1.
</event>
<event>
 7    1  0.2578619E-015  0.9000774E+02  0.7816164E-02  0.1186339E+00
        -11   -1    0    0    0    0  0.00000000000E+00  0.00000000000E+00  0.45593999997E+02  0.45594000000E+02  0.51100000000E-03 0.  1.
         11   -1    0    0    0    0 -0.00000000000E+00 -0.00000000000E+00 -0.45593999997E+02  0.45594000000E+02  0.51100000000E-03 0. -1.
    9900012    2    1    2    0    0 -0.11445346535E+01 -0.25982355437E+00 -0.12471528672E+00  0.90007736574E+02  0.89999997897E+02 0.  0.
        -12    1    1    2    0    0  0.11445346535E+01  0.25982355437E+00  0.12471528672E+00  0.11802634262E+01  0.00000000000E+00 0.  1.
         11    1    3    3    0    0  0.37109030576E+02  0.82089911135E+01  0.93057692487E+01  0.39128826036E+02  0.51100000000E-03 0. -1.
        -11    1    3    3    0    0  0.37978482631E+01 -0.69227456126E+01 -0.94976371096E+00  0.79529937517E+01  0.51100000000E-03 0.  1.
        -12    1    3    3    0    0 -0.42051413492E+02 -0.15460690553E+01 -0.84807208244E+01  0.42925916786E+02  0.00000000000E+00 0.  1.
</event>
<event>
 7    1  0.2578619E-015  0.9000752E+02  0.7816164E-02  0.1186339E+00
        -11   -1    0    0    0    0  0.00000000000E+00  0.00000000000E+00  0.45593999997E+02  0.45594000000E+02  0.51100000000E-03 0. -1.
         11   -1    0    0    0    0 -0.00000000000E+00 -0.00000000000E+00 -0.45593999997E+02  0.45594000000E+02  0.51100000000E-03 0.  1.
    9900012    2    1    2    0    0  0.60151929578E-01  0.10758999668E+01  0.48204256349E+00  0.90007515343E+02  0.89999773745E+02 0.  0.
        -12    1    1    2    0    0 -0.60151929578E-01 -0.10758999668E+01 -0.48204256349E+00  0.11804846574E+01  0.00000000000E+00 0.  1.
         11    1    3    3    0    0  0.29537474367E+02 -0.40172878375E+01  0.24942796518E+02  0.38868291601E+02  0.51100000000E-03 0. -1.
        -11    1    3    3    0    0  0.75457489992E+01  0.16602306714E+01 -0.43765367470E+01  0.88796828773E+01  0.51100000000E-03 0.  1.
        -12    1    3    3    0    0 -0.37023071436E+02  0.34329571330E+01 -0.20084217208E+02  0.42259540865E+02  0.00000000000E+00 0.  1.
</event>
<event>
 7    1  0.2578619E-015  0.9000771E+02  0.7816164E-02  0.1186339E+00
        -11   -1    0    0    0    0  0.00000000000E+00  0.00000000000E+00  0.45593999997E+02  0.45594000000E+02  0.51100000000E-03 0.  1.
         11   -1    0    0    0    0 -0.00000000000E+00 -0.00000000000E+00 -0.45593999997E+02  0.45594000000E+02  0.51100000000E-03 0. -1.
    9900012    2    1    2    0    0 -0.11405327574E+01 -0.21471700351E+00 -0.21486347659E+00  0.90007709919E+02  0.89999970890E+02 0.  0.
        -12    1    1    2    0    0  0.11405327574E+01  0.21471700351E+00  0.21486347659E+00  0.11802900813E+01  0.00000000000E+00 0.  1.
         11    1    3    3    0    0 -0.44678499482E+01 -0.36339684487E+02 -0.22989943756E+02  0.43232763802E+02  0.51100000000E-03 0. -1.
        -11    1    3    3    0    0 -0.13112757679E+01  0.24807143227E+01  0.10167918086E+02  0.10547983038E+02  0.51100000000E-03 0.  1.
        -12    1    3    3    0    0  0.46385929587E+01  0.33644253161E+02  0.12607162193E+02  0.36226963079E+02  0.00000000000E+00 0.  1.
</event>
<event>
 7    1  0.2578619E-015  0.9000772E+02  0.7816164E-02  0.1186339E+00
        -11   -1    0    0    0    0  0.00000000000E+00  0.00000000000E+00  0.45593999997E+02  0.45594000000E+02  0.51100000000E-03 0.  1.
         11   -1    0    0    0    0 -0.00000000000E+00 -0.00000000000E+00 -0.45593999997E+02  0.45594000000E+02  0.51100000000E-03 0. -1.
    9900012    2    1    2    0    0 -0.36597288425E+00  0.29699750103E+00 -0.10820892863E+01  0.90007719995E+02  0.89999981099E+02 0.  0.
        -12    1    1    2    0    0  0.36597288425E+00 -0.29699750103E+00  0.10820892863E+01  0.11802800054E+01  0.00000000000E+00 0.  1.
         11    1    3    3    0    0  0.13467398385E+02  0.34838385012E+02 -0.17311772684E+02  0.41167722348E+02  0.51100000000E-03 0. -1.
        -11    1    3    3    0    0  0.13169884420E-01 -0.51573827691E+01 -0.71514954077E+01  0.88171796682E+01  0.51100000000E-03 0.  1.
        -12    1    3    3    0    0 -0.13846541154E+02 -0.29384004742E+02  0.23381178806E+02  0.40022817979E+02  0.00000000000E+00 0.  1.
</event>
<event>
 7    1  0.2578619E-015  0.9000773E+02  0.7816164E-02  0.1186339E+00
        -11   -1    0    0    0    0  0.00000000000E+00  0.00000000000E+00  0.45593999997E+02  0.45594000000E+02  0.51100000000E-03 0.  1.
         11   -1    0    0    0    0 -0.00000000000E+00 -0.00000000000E+00 -0.45593999997E+02  0.45594000000E+02  0.51100000000E-03 0. -1.
    9900012    2    1    2    0    0  0.74460259947E+00 -0.42015024438E-01 -0.91478519067E+00  0.90007732980E+02  0.89999994255E+02 0.  0.
        -12    1    1    2    0    0 -0.74460259947E+00  0.42015024438E-01  0.91478519067E+00  0.11802670200E+01  0.00000000000E+00 0.  1.
         11    1    3    3    0    0  0.74315863584E+01  0.11925036269E+01  0.89840931350E+00  0.75800844493E+01  0.51100000000E-03 0. -1.
        -11    1    3    3    0    0  0.87687047280E+01  0.23882215822E+02  0.29807718245E+02  0.39188652470E+02  0.51100000000E-03 0.  1.
         12    1    3    3    0    0 -0.15455688487E+02 -0.25116734474E+02 -0.31620912749E+02  0.43238996060E+02  0.00000000000E+00 0. -1.
</event>
<event>
 7    1  0.2578619E-015  0.9000777E+02  0.7816164E-02  0.1186339E+00
        -11   -1    0    0    0    0  0.00000000000E+00  0.00000000000E+00  0.45593999997E+02  0.45594000000E+02  0.51100000000E-03 0.  1.
         11   -1    0    0    0    0 -0.00000000000E+00 -0.00000000000E+00 -0.45593999997E+02  0.45594000000E+02  0.51100000000E-03 0. -1.
    9900012    2    1    2    0    0 -0.82240483693E+00 -0.76636884876E+00 -0.35955207876E+00  0.90007767554E+02  0.90000029286E+02 0.  0.
        -12    1    1    2    0    0  0.82240483693E+00  0.76636884876E+00  0.35955207876E+00  0.11802324455E+01  0.00000000000E+00 0.  1.
         11    1    3    3    0    0  0.22123063040E+01 -0.72297925813E+00 -0.88698894300E+01  0.91701655902E+01  0.51100000000E-03 0. -1.
        -11    1    3    3    0    0 -0.32641284533E+02 -0.14814216500E+02  0.25163545487E+02  0.43796329621E+02  0.51100000000E-03 0.  1.
         12    1    3    3    0    0  0.29606573392E+02  0.14770826910E+02 -0.16653208136E+02  0.37041272344E+02  0.00000000000E+00 0. -1.
</event>
<event>
 7    1  0.2578619E-015  0.9000763E+02  0.7816164E-02  0.1186339E+00
        -11   -1    0    0    0    0  0.00000000000E+00  0.00000000000E+00  0.45593999997E+02  0.45594000000E+02  0.51100000000E-03 0. -1.
         11   -1    0    0    0    0 -0.00000000000E+00 -0.00000000000E+00 -0.45593999997E+02  0.45594000000E+02  0.51100000000E-03 0.  1.
    9900012    2    1    2    0    0  0.89473502855E+00  0.73864513052E+00  0.21710440207E+00  0.90007626448E+02  0.89999886317E+02 0.  0.
        -12    1    1    2    0    0 -0.89473502855E+00 -0.73864513052E+00 -0.21710440207E+00  0.11803735517E+01  0.00000000000E+00 0.  1.
         11    1    3    3    0    0  0.43239320697E+00 -0.54427064309E+01  0.92206656376E+01  0.10715908372E+02  0.51100000000E-03 0. -1.
        -11    1    3    3    0    0  0.26126758145E+02 -0.21587563415E+02 -0.20698380792E+02  0.39712131056E+02  0.51100000000E-03 0.  1.
         12    1    3    3    0    0 -0.25664416324E+02  0.27768914976E+02  0.11694819557E+02  0.39579587020E+02  0.00000000000E+00 0. -1.
</event>
<event>
 7    1  0.2578619E-015  0.9000771E+02  0.7816164E-02  0.1186339E+00
        -11   -1    0    0    0    0  0.00000000000E+00  0.00000000000E+00  0.45593999997E+02  0.45594000000E+02  0.51100000000E-03 0. -1.
         11   -1    0    0    0    0 -0.00000000000E+00 -0.00000000000E+00 -0.45593999997E+02  0.45594000000E+02  0.51100000000E-03 0.  1.
    9900012    2    1    2    0    0  0.20264718957E+00  0.41920295851E+00  0.10845676218E+01  0.90007710235E+02  0.89999971210E+02 0.  0.
        -12    1    1    2    0    0 -0.20264718957E+00 -0.41920295851E+00 -0.10845676218E+01  0.11802897653E+01  0.00000000000E+00 0.  1.
         11    1    3    3    0    0 -0.26174607942E+01 -0.87484370289E+00 -0.93403708447E+01  0.97395574997E+01  0.51100000000E-03 0. -1.
        -11    1    3    3    0    0  0.35193073534E+02 -0.16110534238E+02 -0.74201580781E+01  0.39410157122E+02  0.51100000000E-03 0.  1.
         12    1    3    3    0    0 -0.32372965550E+02  0.17404580900E+02  0.17845096545E+02  0.40857995613E+02  0.00000000000E+00 0. -1.
</event>
<event>
 7    1  0.2578619E-015  0.9000774E+02  0.7816164E-02  0.1186339E+00
        -11   -1    0    0    0    0  0.00000000000E+00  0.00000000000E+00  0.45593999997E+02  0.45594000000E+02  0.51100000000E-03 0. -1.
         11   -1    0    0    0    0 -0.00000000000E+00 -0.00000000000E+00 -0.45593999997E+02  0.45594000000E+02  0.51100000000E-03 0.  1.
    9900012    2    1    2    0    0 -0.10817939405E+01 -0.19178982185E+00  0.43122774761E+00  0.90007737811E+02  0.89999999150E+02 0.  0.
        -12    1    1    2    0    0  0.10817939405E+01  0.19178982185E+00 -0.43122774761E+00  0.11802621894E+01  0.00000000000E+00 0.  1.
         11    1    3    3    0    0  0.24202795331E+02  0.60792866006E+01  0.29407281149E+02  0.38568396548E+02  0.51100000000E-03 0. -1.
        -11    1    3    3    0    0  0.36259008799E+01  0.46645692580E+01  0.32856471999E+01  0.67602397396E+01  0.51100000000E-03 0.  1.
        -12    1    3    3    0    0 -0.28910490152E+02 -0.10935645680E+02 -0.32261700601E+02  0.44679101523E+02  0.00000000000E+00 0.  1.
</event>
<event>
 7    1  0.3147867E-015  0.9000778E+02  0.7816164E-02  0.1186339E+00
        -11   -1    0    0    0    0  0.00000000000E+00  0.00000000000E+00  0.45593999997E+02  0.45594000000E+02  0.51100000000E-03 0.  1.
         11   -1    0    0    0    0 -0.00000000000E+00 -0.00000000000E+00 -0.45593999997E+02  0.45594000000E+02  0.51100000000E-03 0. -1.
    9900012    2    1    2    0    0  0.28924362520E-03 -0.44201254567E+00 -0.10943252277E+01  0.90007778462E+02  0.90000040338E+02 0.  0.
        -12    1    1    2    0    0 -0.28924362520E-03  0.44201254567E+00  0.10943252277E+01  0.11802215377E+01  0.00000000000E+00 0.  1.
         11    1    3    3    0    0 -0.18948145509E+01  0.11974173771E+00  0.91823028921E+01  0.93765317111E+01  0.51100000000E-03 0. -1.
        -11    1    3    3    0    0  0.55128640940E+01  0.52597362583E+01  0.34500861993E+02  0.35332222893E+02  0.51100000000E-03 0.  1.
         12    1    3    3    0    0 -0.36177602995E+01 -0.58214905417E+01 -0.44777490113E+02  0.45299023858E+02  0.00000000000E+00 0. -1.
</event>
<event>
 7    1  0.2578619E-015  0.9000795E+02  0.7816164E-02  0.1186339E+00
        -11   -1    0    0    0    0  0.00000000000E+00  0.00000000000E+00  0.45593999997E+02  0.45594000000E+02  0.51100000000E-03 0. -1.
         11   -1    0    0    0    0 -0.00000000000E+00 -0.00000000000E+00 -0.45593999997E+02  0.45594000000E+02  0.51100000000E-03 0.  1.
    9900012    2    1    2    0    0 -0.56955693573E+00  0.62502779627E+00  0.82308713189E+00  0.90007946071E+02  0.90000210159E+02 0.  0.
        -12    1    1    2    0    0  0.56955693573E+00 -0.62502779627E+00 -0.82308713189E+00  0.11800539292E+01  0.00000000000E+00 0.  1.
         11    1    3    3    0    0  0.11087616646E+02  0.34752824826E+02  0.61180225722E+01  0.36988164009E+02  0.51100000000E-03 0. -1.
        -11    1    3    3    0    0  0.19191191318E+01  0.76333085086E+01  0.28257707106E+01  0.83627386303E+01  0.51100000000E-03 0.  1.
        -12    1    3    3    0    0 -0.13576292713E+02 -0.41761105539E+02 -0.81207061510E+01  0.44657043432E+02  0.00000000000E+00 0.  1.
</event>
<event>
 7    1  0.2578619E-015  0.9000774E+02  0.7816164E-02  0.1186339E+00
        -11   -1    0    0    0    0  0.00000000000E+00  0.00000000000E+00  0.45593999997E+02  0.45594000000E+02  0.51100000000E-03 0.  1.
         11   -1    0    0    0    0 -0.00000000000E+00 -0.00000000000E+00 -0.45593999997E+02  0.45594000000E+02  0.51100000000E-03 0. -1.
    9900012    2    1    2    0    0  0.20514621792E+00 -0.93484518356E+00 -0.69065074582E+00  0.90007737766E+02  0.89999999105E+02 0.  0.
        -12    1    1    2    0    0 -0.20514621792E+00  0.93484518356E+00  0.69065074582E+00  0.11802622339E+01  0.00000000000E+00 0.  1.
         11    1    3    3    0    0  0.12181848827E+02 -0.17607200308E+02 -0.18851471327E+02  0.28526985733E+02  0.51100000000E-03 0. -1.
        -11    1    3    3    0    0  0.18501842248E+02  0.56271583463E+01  0.21468485008E+02  0.28894271516E+02  0.51100000000E-03 0.  1.
         12    1    3    3    0    0 -0.30478544858E+02  0.11045196779E+02 -0.33076644273E+01  0.32586480517E+02  0.00000000000E+00 0. -1.
</event>
<event>
 7    1  0.2578619E-015  0.9000746E+02  0.7816164E-02  0.1186340E+00
        -11   -1    0    0    0    0  0.00000000000E+00  0.00000000000E+00  0.45593999997E+02  0.45594000000E+02  0.51100000000E-03 0. -1.
         11   -1    0    0    0    0 -0.00000000000E+00 -0.00000000000E+00 -0.45593999997E+02  0.45594000000E+02  0.51100000000E-03 0.  1.
    9900012    2    1    2    0    0  0.21960489642E-01 -0.11158984766E+01  0.38464851201E+00  0.90007463617E+02  0.89999721337E+02 0.  0.
        -12    1    1    2    0    0 -0.21960489642E-01  0.11158984766E+01 -0.38464851201E+00  0.11805363828E+01  0.00000000000E+00 0.  1.
         11    1    3    3    0    0 -0.17908867067E+02 -0.21388415815E+02  0.24817050554E+02  0.37337351930E+02  0.51100000000E-03 0. -1.
        -11    1    3    3    0    0 -0.18798761094E+01 -0.22870894683E+01  0.79666007409E+01  0.84989081680E+01  0.51100000000E-03 0.  1.
        -12    1    3    3    0    0  0.19810703666E+02  0.22559606807E+02 -0.32399002782E+02  0.44171203519E+02  0.00000000000E+00 0.  1.
</event>
<event>
 7    1  0.2578619E-015  0.9000777E+02  0.7816164E-02  0.1186339E+00
        -11   -1    0    0    0    0  0.00000000000E+00  0.00000000000E+00  0.45593999997E+02  0.45594000000E+02  0.51100000000E-03 0. -1.
         11   -1    0    0    0    0 -0.00000000000E+00 -0.00000000000E+00 -0.45593999997E+02  0.45594000000E+02  0.51100000000E-03 0.  1.
    9900012    2    1    2    0    0 -0.66455645124E-01 -0.41651752875E+00  0.11022843828E+01  0.90007773723E+02  0.90000035536E+02 0.  0.
        -12    1    1    2    0    0  0.66455645124E-01  0.41651752875E+00 -0.11022843828E+01  0.11802262771E+01  0.00000000000E+00 0.  1.
         11    1    3    3    0    0  0.51658832034E+01 -0.39740726276E+02  0.65160443503E+01  0.40601360918E+02  0.51100000000E-03 0. -1.
        -11    1    3    3    0    0  0.22197946255E+01 -0.23110047661E+01 -0.63351997913E+01  0.70995061706E+01  0.51100000000E-03 0.  1.
        -12    1    3    3    0    0 -0.74521334740E+01  0.41635213513E+02  0.92143982381E+00  0.42306906634E+02  0.00000000000E+00 0.  1.
</event>
<event>
 7    1  0.2578619E-015  0.9000783E+02  0.7816164E-02  0.1186339E+00
        -11   -1    0    0    0    0  0.00000000000E+00  0.00000000000E+00  0.45593999997E+02  0.45594000000E+02  0.51100000000E-03 0. -1.
         11   -1    0    0    0    0 -0.00000000000E+00 -0.00000000000E+00 -0.45593999997E+02  0.45594000000E+02  0.51100000000E-03 0.  1.
    9900012    2    1    2    0    0  0.88123427604E+00 -0.77851593452E+00 -0.10068419537E+00  0.90007831276E+02  0.90000093849E+02 0.  0.
        -12    1    1    2    0    0 -0.88123427604E+00  0.77851593452E+00  0.10068419537E+00  0.11801687239E+01  0.00000000000E+00 0.  1.
         11    1    3    3    0    0 -0.24745984402E+02  0.10699800807E+02 -0.23470994838E+02  0.35745448385E+02  0.51100000000E-03 0. -1.
        -11    1    3    3    0    0 -0.42623448536E+01  0.36584536169E+01 -0.70462170932E+01  0.90111620840E+01  0.51100000000E-03 0.  1.
        -12    1    3    3    0    0  0.29889563531E+02 -0.15136770359E+02  0.30416527736E+02  0.45251220807E+02  0.00000000000E+00 0.  1.
</event>
<event>
 7    1  0.2578619E-015  0.9000781E+02  0.7816164E-02  0.1186339E+00
        -11   -1    0    0    0    0  0.00000000000E+00  0.00000000000E+00  0.45593999997E+02  0.45594000000E+02  0.51100000000E-03 0.  1.
         11   -1    0    0    0    0 -0.00000000000E+00 -0.00000000000E+00 -0.45593999997E+02  0.45594000000E+02  0.51100000000E-03 0. -1.
    9900012    2    1    2    0    0  0.72575075390E+00  0.18588726252E+00 -0.91190984442E+00  0.90007810271E+02  0.90000072567E+02 0.  0.
        -12    1    1    2    0    0 -0.72575075390E+00 -0.18588726252E+00  0.91190984442E+00  0.11801897286E+01  0.00000000000E+00 0.  1.
         11    1    3    3    0    0  0.58793840796E+01  0.30635104032E+02 -0.59534153995E+01  0.31757202512E+02  0.51100000000E-03 0. -1.
        -11    1    3    3    0    0 -0.10494747786E+02  0.11347139762E+02  0.45477735222E+01  0.16111472810E+02  0.51100000000E-03 0.  1.
         12    1    3    3    0    0  0.53411144599E+01 -0.41796356531E+02  0.49373203291E+00  0.42139134949E+02  0.00000000000E+00 0. -1.
</event>
<event>
 7    1  0.2578619E-015  0.9000788E+02  0.7816164E-02  0.1186339E+00
        -11   -1    0    0    0    0  0.00000000000E+00  0.00000000000E+00  0.45593999997E+02  0.45594000000E+02  0.51100000000E-03 0.  1.
         11   -1    0    0    0    0 -0.00000000000E+00 -0.00000000000E+00 -0.45593999997E+02  0.45594000000E+02  0.51100000000E-03 0. -1.
    9900012    2    1    2    0    0  0.10745472630E+01  0.45751315217E+00 -0.16947234022E+00  0.90007876710E+02  0.90000139883E+02 0.  0.
        -12    1    1    2    0    0 -0.10745472630E+01 -0.45751315217E+00  0.16947234022E+00  0.11801232897E+01  0.00000000000E+00 0.  1.
         11    1    3    3    0    0 -0.68794954846E+00 -0.41504489459E+00  0.89485341609E+01  0.89845311917E+01  0.51100000000E-03 0. -1.
        -11    1    3    3    0    0  0.67199212159E+01  0.88856671433E+01  0.34575181206E+02  0.36325687570E+02  0.51100000000E-03 0.  1.
         12    1    3    3    0    0 -0.49574244045E+01 -0.80131090965E+01 -0.43693187707E+02  0.44697657949E+02  0.00000000000E+00 0. -1.
</event>
<event>
 7    1  0.2578619E-015  0.9000769E+02  0.7816164E-02  0.1186339E+00
        -11   -1    0    0    0    0  0.00000000000E+00  0.00000000000E+00  0.45593999997E+02  0.45594000000E+02  0.51100000000E-03 0. -1.
         11   -1    0    0    0    0 -0.00000000000E+00 -0.00000000000E+00 -0.45593999997E+02  0.45594000000E+02  0.51100000000E-03 0.  1.
    9900012    2    1    2    0    0  0.59491782226E+00 -0.87327412244E+00 -0.52593134295E+00  0.90007687039E+02  0.89999947708E+02 0.  0.
        -12    1    1    2    0    0 -0.59491782226E+00  0.87327412244E+00  0.52593134295E+00  0.11803129609E+01  0.00000000000E+00 0.  1.
         11    1    3    3    0    0  0.27229371955E+01  0.29371598125E+01  0.81529186296E+01  0.90835773337E+01  0.51100000000E-03 0. -1.
        -11    1    3    3    0    0 -0.43016933579E+01 -0.34969616759E+02 -0.27289049123E+02  0.44565354978E+02  0.51100000000E-03 0.  1.
         12    1    3    3    0    0  0.21736739847E+01  0.31159182825E+02  0.18610199150E+02  0.36358754727E+02  0.00000000000E+00 0. -1.
</event>
<event>
 7    1  0.2578619E-015  0.9000775E+02  0.7816164E-02  0.1186339E+00
        -11   -1    0    0    0    0  0.00000000000E+00  0.00000000000E+00  0.45593999997E+02  0.45594000000E+02  0.51100000000E-03 0. -1.
         11   -1    0    0    0    0 -0.00000000000E+00 -0.00000000000E+00 -0.45593999997E+02  0.45594000000E+02  0.51100000000E-03 0.  1.
    9900012    2    1    2    0    0 -0.63352209822E+00  0.41935516481E+00  0.90320965988E+00  0.90007747191E+02  0.90000008654E+02 0.  0.
        -12    1    1    2    0    0  0.63352209822E+00 -0.41935516481E+00 -0.90320965988E+00  0.11802528089E+01  0.00000000000E+00 0.  1.
         11    1    3    3    0    0 -0.26218315021E+01  0.62221442572E+01 -0.10119099062E+02  0.12164918646E+02  0.51100000000E-03 0. -1.
        -11    1    3    3    0    0 -0.31849461580E+02  0.12771165086E+02 -0.73504763858E+01  0.35093024434E+02  0.51100000000E-03 0.  1.
         12    1    3    3    0    0  0.33837770983E+02 -0.18573954178E+02  0.18372785107E+02  0.42749804111E+02  0.00000000000E+00 0. -1.
</event>
<event>
 7    1  0.2578619E-015  0.9000773E+02  0.7816164E-02  0.1186339E+00
        -11   -1    0    0    0    0  0.00000000000E+00  0.00000000000E+00  0.45593999997E+02  0.45594000000E+02  0.51100000000E-03 0. -1.
         11   -1    0    0    0    0 -0.00000000000E+00 -0.00000000000E+00 -0.45593999997E+02  0.45594000000E+02  0.51100000000E-03 0.  1.
    9900012    2    1    2    0    0 -0.25474477272E+00 -0.22125087789E+00  0.11310104355E+01  0.90007732464E+02  0.89999993733E+02 0.  0.
        -12    1    1    2    0    0  0.25474477272E+00  0.22125087789E+00 -0.11310104355E+01  0.11802675356E+01  0.00000000000E+00 0.  1.
         11    1    3    3    0    0 -0.45050947368E+00  0.12339871706E+02  0.34779784833E+02  0.36906758538E+02  0.51100000000E-03 0. -1.
        -11    1    3    3    0    0  0.33177961967E+01 -0.53068191389E+01  0.83112532735E+01  0.10404183400E+02  0.51100000000E-03 0.  1.
        -12    1    3    3    0    0 -0.31220314957E+01 -0.72543034449E+01 -0.41960027671E+02  0.42696790527E+02  0.00000000000E+00 0.  1.
</event>
<event>
 7    1  0.2578619E-015  0.9000825E+02  0.7816164E-02  0.1186338E+00
        -11   -1    0    0    0    0  0.00000000000E+00  0.00000000000E+00  0.45593999997E+02  0.45594000000E+02  0.51100000000E-03 0.  1.
         11   -1    0    0    0    0 -0.00000000000E+00 -0.00000000000E+00 -0.45593999997E+02  0.45594000000E+02  0.51100000000E-03 0. -1.
    9900012    2    1    2    0    0 -0.32416897604E+00  0.27004430435E+00 -0.11017302818E+01  0.90008246184E+02  0.90000514233E+02 0.  0.
        -12    1    1    2    0    0  0.32416897604E+00 -0.27004430435E+00  0.11017302818E+01  0.11797538155E+01  0.00000000000E+00 0.  1.
         11    1    3    3    0    0  0.14484442567E+02  0.33406938824E+01 -0.69825505755E+01  0.16423012053E+02  0.51100000000E-03 0. -1.
        -11    1    3    3    0    0  0.10984864113E+01  0.10719236249E+02  0.35583129653E+02  0.37178862467E+02  0.51100000000E-03 0.  1.
         12    1    3    3    0    0 -0.15907097955E+02 -0.13789885827E+02 -0.29702309360E+02  0.36406371664E+02  0.00000000000E+00 0. -1.
</event>
<event>
 7    1  0.2578619E-015  0.9000774E+02  0.7816164E-02  0.1186339E+00
        -11   -1    0    0    0    0  0.00000000000E+00  0.00000000000E+00  0.45593999997E+02  0.45594000000E+02  0.51100000000E-03 0.  1.
         11   -1    0    0    0    0 -0.00000000000E+00 -0.00000000000E+00 -0.45593999997E+02  0.45594000000E+02  0.51100000000E-03 0. -1.
    9900012    2    1    2    0    0 -0.10676996413E+01 -0.50142838831E+00  0.40130355519E-01  0.90007735878E+02  0.89999997191E+02 0.  0.
        -12    1    1    2    0    0  0.10676996413E+01  0.50142838831E+00 -0.40130355519E-01  0.11802641222E+01  0.00000000000E+00 0.  1.
         11    1    3    3    0    0  0.56259506418E+01 -0.49171960549E+01 -0.50315387672E+01  0.90081363385E+01  0.51100000000E-03 0. -1.
        -11    1    3    3    0    0  0.13462554679E+01 -0.22733959943E+02  0.33739188152E+02  0.40705996560E+02  0.51100000000E-03 0.  1.
         12    1    3    3    0    0 -0.80399057510E+01  0.27149727609E+02 -0.28667519030E+02  0.40293602980E+02  0.00000000000E+00 0. -1.
</event>
<event>
 7    1  0.2578619E-015  0.9000770E+02  0.7816164E-02  0.1186339E+00
        -11   -1    0    0    0    0  0.00000000000E+00  0.00000000000E+00  0.45593999997E+02  0.45594000000E+02  0.51100000000E-03 0.  1.
         11   -1    0    0    0    0 -0.00000000000E+00 -0.00000000000E+00 -0.45593999997E+02  0.45594000000E+02  0.51100000000E-03 0. -1.
    9900012    2    1    2    0    0  0.69638644145E+00 -0.17083880688E+00 -0.93752814516E+00  0.90007703852E+02  0.89999964743E+02 0.  0.
        -12    1    1    2    0    0 -0.69638644145E+00  0.17083880688E+00  0.93752814516E+00  0.11802961479E+01  0.00000000000E+00 0.  1.
         11    1    3    3    0    0  0.27305299162E+01 -0.93594299239E+01 -0.73333850236E+01  0.12199723697E+02  0.51100000000E-03 0. -1.
        -11    1    3    3    0    0 -0.29920305197E+02 -0.20349613008E+02  0.83625577732E+01  0.37138440805E+02  0.51100000000E-03 0.  1.
         12    1    3    3    0    0  0.27886161722E+02  0.29538204125E+02 -0.19667008948E+01  0.40669539350E+02  0.00000000000E+00 0. -1.
</event>
<event>
 7    1  0.2578619E-015  0.9000750E+02  0.7816164E-02  0.1186340E+00
        -11   -1    0    0    0    0  0.00000000000E+00  0.00000000000E+00  0.45593999997E+02  0.45594000000E+02  0.51100000000E-03 0.  1.
         11   -1    0    0    0    0 -0.00000000000E+00 -0.00000000000E+00 -0.45593999997E+02  0.45594000000E+02  0.51100000000E-03 0. -1.
    9900012    2    1    2    0    0  0.99398425341E+00  0.63455552122E+00 -0.53927743028E-01  0.90007502814E+02  0.89999761050E+02 0.  0.
        -12    1    1    2    0    0 -0.99398425341E+00 -0.63455552122E+00  0.53927743028E-01  0.11804971864E+01  0.00000000000E+00 0.  1.
         11    1    3    3    0    0 -0.14877636082E+02 -0.36810860714E+02  0.82223044652E+01  0.40546144241E+02  0.51100000000E-03 0. -1.
        -11    1    3    3    0    0 -0.70734961497E+01  0.54157692697E+01  0.10558761799E+01  0.89710522978E+01  0.51100000000E-03 0.  1.
        -12    1    3    3    0    0  0.22945116485E+02  0.32029646965E+02 -0.93321083881E+01  0.40490306274E+02  0.00000000000E+00 0.  1.
</event>
<event>
 7    1  0.2578619E-015  0.9000785E+02  0.7816164E-02  0.1186339E+00
        -11   -1    0    0    0    0  0.00000000000E+00  0.00000000000E+00  0.45593999997E+02  0.45594000000E+02  0.51100000000E-03 0.  1.
         11   -1    0    0    0    0 -0.00000000000E+00 -0.00000000000E+00 -0.45593999997E+02  0.45594000000E+02  0.51100000000E-03 0. -1.
    9900012    2    1    2    0    0 -0.80397217228E+00 -0.24954992068E+00 -0.82710591617E+00  0.90007851444E+02  0.90000114283E+02 0.  0.
        -12    1    1    2    0    0  0.80397217228E+00  0.24954992068E+00  0.82710591617E+00  0.11801485556E+01  0.00000000000E+00 0.  1.
         11    1    3    3    0    0  0.12330630935E+01  0.38403249387E+02 -0.20154354581E+02  0.43388109165E+02  0.51100000000E-03 0. -1.
        -11    1    3    3    0    0  0.67038060291E+01 -0.74563696956E+01  0.45529371484E+01  0.11012161516E+02  0.51100000000E-03 0.  1.
        -12    1    3    3    0    0 -0.87408412948E+01 -0.31196429612E+02  0.14774311516E+02  0.35607580764E+02  0.00000000000E+00 0.  1.
</event>
<event>
 7    1  0.2578619E-015  0.9000764E+02  0.7816164E-02  0.1186339E+00
        -11   -1    0    0    0    0  0.00000000000E+00  0.00000000000E+00  0.45593999997E+02  0.45594000000E+02  0.51100000000E-03 0. -1.
         11   -1    0    0    0    0 -0.00000000000E+00 -0.00000000000E+00 -0.45593999997E+02  0.45594000000E+02  0.51100000000E-03 0.  1.
    9900012    2    1    2    0    0 -0.10160268664E+01 -0.12964088085E+00  0.58663668172E+00  0.90007635672E+02  0.89999895662E+02 0.  0.
        -12    1    1    2    0    0  0.10160268664E+01  0.12964088085E+00 -0.58663668172E+00  0.11803643283E+01  0.00000000000E+00 0.  1.
         11    1    3    3    0    0  0.34304478095E+02 -0.59027842996E+01 -0.17161043197E+02  0.38809038686E+02  0.51100000000E-03 0. -1.
        -11    1    3    3    0    0  0.41440007719E+01 -0.22827934912E+01  0.87202223625E+01  0.99209962622E+01  0.51100000000E-03 0.  1.
        -12    1    3    3    0    0 -0.39464505733E+02  0.80559369099E+01  0.90274575164E+01  0.41277600723E+02  0.00000000000E+00 0.  1.
</event>
<event>
 7    1  0.2578619E-015  0.9000777E+02  0.7816164E-02  0.1186339E+00
        -11   -1    0    0    0    0  0.00000000000E+00  0.00000000000E+00  0.45593999997E+02  0.45594000000E+02  0.51100000000E-03 0.  1.
         11   -1    0    0    0    0 -0.00000000000E+00 -0.00000000000E+00 -0.45593999997E+02  0.45594000000E+02  0.51100000000E-03 0. -1.
    9900012    2    1    2    0    0 -0.15465541543E-02  0.10390143161E+01 -0.55980667955E+00  0.90007772624E+02  0.90000034423E+02 0.  0.
        -12    1    1    2    0    0  0.15465541543E-02 -0.10390143161E+01  0.55980667955E+00  0.11802273761E+01  0.00000000000E+00 0.  1.
         11    1    3    3    0    0 -0.61134964255E+01  0.40525123291E+01 -0.72684874063E+01  0.10326112732E+02  0.51100000000E-03 0. -1.
        -11    1    3    3    0    0 -0.11684531229E+02 -0.33926837617E+02  0.20631168690E+02  0.41390864965E+02  0.51100000000E-03 0.  1.
         12    1    3    3    0    0  0.17796481101E+02  0.30913339604E+02 -0.13922487964E+02  0.38290794927E+02  0.00000000000E+00 0. -1.
</event>
<event>
 7    1  0.2578619E-015  0.9000740E+02  0.7816164E-02  0.1186340E+00
        -11   -1    0    0    0    0  0.00000000000E+00  0.00000000000E+00  0.45593999997E+02  0.45594000000E+02  0.51100000000E-03 0. -1.
         11   -1    0    0    0    0 -0.00000000000E+00 -0.00000000000E+00 -0.45593999997E+02  0.45594000000E+02  0.51100000000E-03 0.  1.
    9900012    2    1    2    0    0  0.88579057815E-01  0.11700326040E+01  0.13035367759E+00  0.90007400735E+02  0.89999657624E+02 0.  0.
        -12    1    1    2    0    0 -0.88579057815E-01 -0.11700326040E+01 -0.13035367759E+00  0.11805992652E+01  0.00000000000E+00 0.  1.
         11    1    3    3    0    0  0.69559230390E+01 -0.27361077351E+01 -0.61657729723E+01  0.96895772596E+01  0.51100000000E-03 0. -1.
        -11    1    3    3    0    0 -0.80385384384E+01 -0.48992698304E+01 -0.35942691433E+02  0.37155053664E+02  0.51100000000E-03 0.  1.
         12    1    3    3    0    0  0.11711944572E+01  0.88054101695E+01  0.42238818083E+02  0.43162769811E+02  0.00000000000E+00 0. -1.
</event>
<event>
 7    1  0.2578619E-015  0.9000792E+02  0.7816164E-02  0.1186339E+00
        -11   -1    0    0    0    0  0.00000000000E+00  0.00000000000E+00  0.45593999997E+02  0.45594000000E+02  0.51100000000E-03 0. -1.
         11   -1    0    0    0    0 -0.00000000000E+00 -0.00000000000E+00 -0.45593999997E+02  0.45594000000E+02  0.51100000000E-03 0.  1.
    9900012    2    1    2    0    0 -0.43452617982E+00  0.10935026314E+01  0.89584604596E-01  0.90007921017E+02  0.90000184774E+02 0.  0.
        -12    1    1    2    0    0  0.43452617982E+00 -0.10935026314E+01 -0.89584604596E-01  0.11800789834E+01  0.00000000000E+00 0.  1.
         11    1    3    3    0    0 -0.15194709490E+01  0.29311817606E+02  0.20275455737E+02  0.35673317045E+02  0.51100000000E-03 0. -1.
        -11    1    3    3    0    0 -0.36698960793E+01  0.80983932138E+01  0.46966299091E+01  0.10055368847E+02  0.51100000000E-03 0.  1.
        -12    1    3    3    0    0  0.47548408485E+01 -0.36316708189E+02 -0.24882501042E+02  0.44279235125E+02  0.00000000000E+00 0.  1.
</event>
<event>
 7    1  0.2578619E-015  0.9000768E+02  0.7816164E-02  0.1186339E+00
        -11   -1    0    0    0    0  0.00000000000E+00  0.00000000000E+00  0.45593999997E+02  0.45594000000E+02  0.51100000000E-03 0. -1.
         11   -1    0    0    0    0 -0.00000000000E+00 -0.00000000000E+00 -0.45593999997E+02  0.45594000000E+02  0.51100000000E-03 0.  1.
    9900012    2    1    2    0    0 -0.23147431647E+00  0.65578419411E+00  0.95369467894E+00  0.90007675126E+02  0.89999935637E+02 0.  0.
        -12    1    1    2    0    0  0.23147431647E+00 -0.65578419411E+00 -0.95369467894E+00  0.11803248744E+01  0.00000000000E+00 0.  1.
         11    1    3    3    0    0  0.34855178671E+02  0.13572296946E+02  0.11302650761E+02  0.39074808241E+02  0.51100000000E-03 0. -1.
        -11    1    3    3    0    0 -0.97624836506E+01  0.54777546336E+01  0.88010472148E+01  0.14239744211E+02  0.51100000000E-03 0.  1.
        -12    1    3    3    0    0 -0.25324169337E+02 -0.18394267386E+02 -0.19150003297E+02  0.36693122674E+02  0.00000000000E+00 0.  1.
</event>
<event>
 7    1  0.2578619E-015  0.9000780E+02  0.7816164E-02  0.1186339E+00
        -11   -1    0    0    0    0  0.00000000000E+00  0.00000000000E+00  0.45593999997E+02  0.45594000000E+02  0.51100000000E-03 0. -1.
         11   -1    0    0    0    0 -0.00000000000E+00 -0.00000000000E+00 -0.45593999997E+02  0.45594000000E+02  0.51100000000E-03 0.  1.
    9900012    2    1    2    0    0  0.30247300484E+00 -0.11116067503E+01  0.25636075094E+00  0.90007796492E+02  0.90000058606E+02 0.  0.
        -12    1    1    2    0    0 -0.30247300484E+00  0.11116067503E+01 -0.25636075094E+00  0.11802035081E+01  0.00000000000E+00 0.  1.
         11    1    3    3    0    0  0.24395815156E+02 -0.27233750458E+02  0.18422748338E+02  0.40941795487E+02  0.51100000000E-03 0. -1.
        -11    1    3    3    0    0  0.27240931140E+01  0.49011736874E+00 -0.10923507266E+02  0.11268713750E+02  0.51100000000E-03 0.  1.
        -12    1    3    3    0    0 -0.26817435265E+02  0.25632026339E+02 -0.72428803204E+01  0.37797287254E+02  0.00000000000E+00 0.  1.
</event>
<event>
 7    1  0.2578619E-015  0.9000753E+02  0.7816164E-02  0.1186339E+00
        -11   -1    0    0    0    0  0.00000000000E+00  0.00000000000E+00  0.45593999997E+02  0.45594000000E+02  0.51100000000E-03 0. -1.
         11   -1    0    0    0    0 -0.00000000000E+00 -0.00000000000E+00 -0.45593999997E+02  0.45594000000E+02  0.51100000000E-03 0.  1.
    9900012    2    1    2    0    0  0.84761587504E-01  0.88574743494E+00  0.77574722014E+00  0.90007526877E+02  0.89999785431E+02 0.  0.
        -12    1    1    2    0    0 -0.84761587504E-01 -0.88574743494E+00 -0.77574722014E+00  0.11804731233E+01  0.00000000000E+00 0.  1.
         11    1    3    3    0    0  0.28493130378E+02  0.11212088249E+02  0.24027047070E+02  0.38921310266E+02  0.51100000000E-03 0. -1.
        -11    1    3    3    0    0  0.41621067613E+01  0.71366097557E+01 -0.64917138994E+01  0.10506982493E+02  0.51100000000E-03 0.  1.
        -12    1    3    3    0    0 -0.32570475552E+02 -0.17462950570E+02 -0.16759585951E+02  0.40579234117E+02  0.00000000000E+00 0.  1.
</event>
<event>
 7    1  0.2578619E-015  0.9000775E+02  0.7816164E-02  0.1186339E+00
        -11   -1    0    0    0    0  0.00000000000E+00  0.00000000000E+00  0.45593999997E+02  0.45594000000E+02  0.51100000000E-03 0. -1.
         11   -1    0    0    0    0 -0.00000000000E+00 -0.00000000000E+00 -0.45593999997E+02  0.45594000000E+02  0.51100000000E-03 0.  1.
    9900012    2    1    2    0    0 -0.75019697795E+00  0.14839400057E-01  0.91103332871E+00  0.90007746875E+02  0.90000008334E+02 0.  0.
        -12    1    1    2    0    0  0.75019697795E+00 -0.14839400057E-01 -0.91103332871E+00  0.11802531252E+01  0.00000000000E+00 0.  1.
         11    1    3    3    0    0 -0.10122687788E+02  0.62256961836E+01 -0.19832594415E+02  0.23120551518E+02  0.51100000000E-03 0. -1.
        -11    1    3    3    0    0 -0.17640611339E+02  0.35431568430E+01 -0.13279576069E+02  0.22362742892E+02  0.51100000000E-03 0.  1.
         12    1    3    3    0    0  0.27013102149E+02 -0.97540136266E+01  0.34023203813E+02  0.44524452464E+02  0.00000000000E+00 0. -1.
</event>
<event>
 7    1  0.2578619E-015  0.9000770E+02  0.7816164E-02  0.1186339E+00
        -11   -1    0    0    0    0  0.00000000000E+00  0.00000000000E+00  0.45593999997E+02  0.45594000000E+02  0.51100000000E-03 0.  1.
         11   -1    0    0    0    0 -0.00000000000E+00 -0.00000000000E+00 -0.45593999997E+02  0.45594000000E+02  0.51100000000E-03 0. -1.
    9900012    2    1    2    0    0 -0.16649064428E+00 -0.10553612316E+01 -0.50160668965E+00  0.90007696761E+02  0.89999957559E+02 0.  0.
        -12    1    1    2    0    0  0.16649064428E+00  0.10553612316E+01  0.50160668965E+00  0.11803032385E+01  0.00000000000E+00 0.  1.
         11    1    3    3    0    0  0.19519864472E+02 -0.87977799671E+01 -0.28475078677E+02  0.35626621329E+02  0.51100000000E-03 0. -1.
        -11    1    3    3    0    0  0.12582396043E+02  0.41130353613E+01  0.34237748760E+01  0.13673184879E+02  0.51100000000E-03 0.  1.
        -12    1    3    3    0    0 -0.32268751160E+02  0.36293833742E+01  0.24549697112E+02  0.40707890554E+02  0.00000000000E+00 0.  1.
</event>
<event>
 7    1  0.2578619E-015  0.9000777E+02  0.7816164E-02  0.1186339E+00
        -11   -1    0    0    0    0  0.00000000000E+00  0.00000000000E+00  0.45593999997E+02  0.45594000000E+02  0.51100000000E-03 0.  1.
         11   -1    0    0    0    0 -0.00000000000E+00 -0.00000000000E+00 -0.45593999997E+02  0.45594000000E+02  0.51100000000E-03 0. -1.
    9900012    2    1    2    0    0  0.18667472439E+00  0.66502561086E+00 -0.95699788976E+00  0.90007766347E+02  0.90000028062E+02 0.  0.
        -12    1    1    2    0    0 -0.18667472439E+00 -0.66502561086E+00  0.95699788976E+00  0.11802336535E+01  0.00000000000E+00 0.  1.
         11    1    3    3    0    0  0.33185689448E+02 -0.16545607960E+02  0.17483481821E+02  0.40996576244E+02  0.51100000000E-03 0. -1.
        -11    1    3    3    0    0  0.18922199902E+00  0.78017196205E+01  0.30384087083E+01  0.83746380066E+01  0.51100000000E-03 0.  1.
        -12    1    3    3    0    0 -0.33188236722E+02  0.94089139507E+01 -0.21478888419E+02  0.40636552096E+02  0.00000000000E+00 0.  1.
</event>
<event>
 7    1  0.2578619E-015  0.9000789E+02  0.7816164E-02  0.1186339E+00
        -11   -1    0    0    0    0  0.00000000000E+00  0.00000000000E+00  0.45593999997E+02  0.45594000000E+02  0.51100000000E-03 0. -1.
         11   -1    0    0    0    0 -0.00000000000E+00 -0.00000000000E+00 -0.45593999997E+02  0.45594000000E+02  0.51100000000E-03 0.  1.
    9900012    2    1    2    0    0  0.99179106701E+00  0.40847590093E+00  0.49208659440E+00  0.90007893522E+02  0.90000156917E+02 0.  0.
        -12    1    1    2    0    0 -0.99179106701E+00 -0.40847590093E+00 -0.49208659440E+00  0.11801064777E+01  0.00000000000E+00 0.  1.
         11    1    3    3    0    0 -0.16527930800E+02 -0.72223669741E+01  0.30699867826E+02  0.35606417484E+02  0.51100000000E-03 0. -1.
        -11    1    3    3    0    0 -0.67349442239E+01 -0.42504567249E+01  0.54642390831E+01  0.96583520897E+01  0.51100000000E-03 0.  1.
        -12    1    3    3    0    0  0.24254666091E+02  0.11881299600E+02 -0.35672020315E+02  0.44743123949E+02  0.00000000000E+00 0.  1.
</event>
<event>
 7    1  0.2578619E-015  0.9000774E+02  0.7816164E-02  0.1186339E+00
        -11   -1    0    0    0    0  0.00000000000E+00  0.00000000000E+00  0.45593999997E+02  0.45594000000E+02  0.51100000000E-03 0. -1.
         11   -1    0    0    0    0 -0.00000000000E+00 -0.00000000000E+00 -0.45593999997E+02  0.45594000000E+02  0.51100000000E-03 0.  1.
    9900012    2    1    2    0    0  0.32129756373E+00 -0.33623994283E+00  0.10847639130E+01  0.90007744871E+02  0.90000006303E+02 0.  0.
        -12    1    1    2    0    0 -0.32129756373E+00  0.33623994283E+00 -0.10847639130E+01  0.11802551294E+01  0.00000000000E+00 0.  1.
         11    1    3    3    0    0 -0.34699832494E+01  0.60937640789E+01  0.53773041076E+01  0.88368627989E+01  0.51100000000E-03 0. -1.
        -11    1    3    3    0    0 -0.30797297424E+02  0.15392590347E+02 -0.16927899492E+02  0.38366119790E+02  0.51100000000E-03 0.  1.
         12    1    3    3    0    0  0.34588578238E+02 -0.21822594368E+02  0.12635359298E+02  0.42804762282E+02  0.00000000000E+00 0. -1.
</event>
<event>
 7    1  0.2578619E-015  0.9000770E+02  0.7816164E-02  0.1186339E+00
        -11   -1    0    0    0    0  0.00000000000E+00  0.00000000000E+00  0.45593999997E+02  0.45594000000E+02  0.51100000000E-03 0. -1.
         11   -1    0    0    0    0 -0.00000000000E+00 -0.00000000000E+00 -0.45593999997E+02  0.45594000000E+02  0.51100000000E-03 0.  1.
    9900012    2    1    2    0    0  0.78242745317E+00 -0.21226517558E+00  0.85782670189E+00  0.90007696702E+02  0.89999957499E+02 0.  0.
        -12    1    1    2    0    0 -0.78242745317E+00  0.21226517558E+00 -0.85782670189E+00  0.11803032978E+01  0.00000000000E+00 0.  1.
         11    1    3    3    0    0 -0.11452976425E+01  0.29442683511E+02  0.18028760542E+01  0.29520055578E+02  0.51100000000E-03 0. -1.
        -11    1    3    3    0    0  0.14268677029E+02 -0.85712013716E+01  0.21583093546E+02  0.27256018865E+02  0.51100000000E-03 0.  1.
        -12    1    3    3    0    0 -0.12340951933E+02 -0.21083747315E+02 -0.22528142898E+02  0.33231622258E+02  0.00000000000E+00 0.  1.
</event>
<event>
 7    1  0.2578619E-015  0.9000770E+02  0.7816164E-02  0.1186339E+00
        -11   -1    0    0    0    0  0.00000000000E+00  0.00000000000E+00  0.45593999997E+02  0.45594000000E+02  0.51100000000E-03 0.  1.
         11   -1    0    0    0    0 -0.00000000000E+00 -0.00000000000E+00 -0.45593999997E+02  0.45594000000E+02  0.51100000000E-03 0. -1.
    9900012    2    1    2    0    0  0.38339887210E+00 -0.28584736861E-01 -0.11159300399E+01  0.90007698498E+02  0.89999959318E+02 0.  0.
        -12    1    1    2    0    0 -0.38339887210E+00  0.28584736861E-01  0.11159300399E+01  0.11803015023E+01  0.00000000000E+00 0.  1.
         11    1    3    3    0    0  0.30174911529E+02 -0.15580788434E+02  0.19501470020E+02  0.39161123416E+02  0.51100000000E-03 0. -1.
        -11    1    3    3    0    0  0.60794920693E+01  0.39742381512E+01 -0.86589801767E+01  0.11301890579E+02  0.51100000000E-03 0.  1.
        -12    1    3    3    0    0 -0.35871004726E+02  0.11577965546E+02 -0.11958419883E+02  0.39544684502E+02  0.00000000000E+00 0.  1.
</event>
<event>
 7    1  0.2578619E-015  0.9000771E+02  0.7816164E-02  0.1186339E+00
        -11   -1    0    0    0    0  0.00000000000E+00  0.00000000000E+00  0.45593999997E+02  0.45594000000E+02  0.51100000000E-03 0. -1.
         11   -1    0    0    0    0 -0.00000000000E+00 -0.00000000000E+00 -0.45593999997E+02  0.45594000000E+02  0.51100000000E-03 0.  1.
    9900012    2    1    2    0    0 -0.30352477598E+00  0.30732255729E+00 -0.10984090777E+01  0.90007713193E+02  0.89999974208E+02 0.  0.
        -12    1    1    2    0    0  0.30352477598E+00 -0.30732255729E+00  0.10984090777E+01  0.11802868066E+01  0.00000000000E+00 0.  1.
         11    1    3    3    0    0  0.26003005742E+01 -0.15686409784E+02  0.35907441417E+02  0.39270464275E+02  0.51100000000E-03 0. -1.
        -11    1    3    3    0    0 -0.87044219008E+01 -0.21740729916E+01  0.14964365357E+00  0.89730678970E+01  0.51100000000E-03 0.  1.
        -12    1    3    3    0    0  0.58005965506E+01  0.18167805333E+02 -0.37155494148E+02  0.41764181021E+02  0.00000000000E+00 0.  1.
</event>
<event>
 7    1  0.2578619E-015  0.9000785E+02  0.7816164E-02  0.1186339E+00
        -11   -1    0    0    0    0  0.00000000000E+00  0.00000000000E+00  0.45593999997E+02  0.45594000000E+02  0.51100000000E-03 0. -1.
         11   -1    0    0    0    0 -0.00000000000E+00 -0.00000000000E+00 -0.45593999997E+02  0.45594000000E+02  0.51100000000E-03 0.  1.
    9900012    2    1    2    0    0 -0.20640932137E+00  0.11616455362E+01 -0.27153471531E-01  0.90007846421E+02  0.90000109193E+02 0.  0.
        -12    1    1    2    0    0  0.20640932137E+00 -0.11616455362E+01  0.27153471531E-01  0.11801535793E+01  0.00000000000E+00 0.  1.
         11    1    3    3    0    0 -0.30734941293E+02 -0.70412057845E+01  0.24136613333E+02  0.39708831494E+02  0.51100000000E-03 0. -1.
        -11    1    3    3    0    0  0.87298322378E+01  0.86065272056E+01  0.55399368950E+01  0.13452627346E+02  0.51100000000E-03 0.  1.
        -12    1    3    3    0    0  0.21798699734E+02 -0.40367588495E+00 -0.29703703699E+02  0.36846387581E+02  0.00000000000E+00 0.  1.
</event>
<event>
 7    1  0.2578619E-015  0.9000773E+02  0.7816164E-02  0.1186339E+00
        -11   -1    0    0    0    0  0.00000000000E+00  0.00000000000E+00  0.45593999997E+02  0.45594000000E+02  0.51100000000E-03 0. -1.
         11   -1    0    0    0    0 -0.00000000000E+00 -0.00000000000E+00 -0.45593999997E+02  0.45594000000E+02  0.51100000000E-03 0.  1.
    9900012    2    1    2    0    0 -0.84281013102E+00  0.54623795193E+00  0.61995268049E+00  0.90007726242E+02  0.89999987429E+02 0.  0.
        -12    1    1    2    0    0  0.84281013102E+00 -0.54623795193E+00 -0.61995268049E+00  0.11802737577E+01  0.00000000000E+00 0.  1.
         11    1    3    3    0    0 -0.50108242327E+01 -0.71812308376E+01  0.56085642516E+01  0.10398770555E+02  0.51100000000E-03 0. -1.
        -11    1    3    3    0    0 -0.12828677164E+02 -0.30060574833E+02  0.12013809233E+02  0.34821612967E+02  0.51100000000E-03 0.  1.
         12    1    3    3    0    0  0.16996691265E+02  0.37788043622E+02 -0.17002420804E+02  0.44787342721E+02  0.00000000000E+00 0. -1.
</event>
<event>
 7    1  0.2578619E-015  0.9000761E+02  0.7816164E-02  0.1186339E+00
        -11   -1    0    0    0    0  0.00000000000E+00  0.00000000000E+00  0.45593999997E+02  0.45594000000E+02  0.51100000000E-03 0.  1.
         11   -1    0    0    0    0 -0.00000000000E+00 -0.00000000000E+00 -0.45593999997E+02  0.45594000000E+02  0.51100000000E-03 0. -1.
    9900012    2    1    2    0    0  0.87086226110E+00  0.68892005650E+00 -0.40038194647E+00  0.90007611240E+02  0.89999870908E+02 0.  0.
        -12    1    1    2    0    0 -0.87086226110E+00 -0.68892005650E+00  0.40038194647E+00  0.11803887602E+01  0.00000000000E+00 0.  1.
         11    1    3    3    0    0  0.30620987103E+01  0.11224236446E+02  0.59241957610E+01  0.13055880973E+02  0.51100000000E-03 0. -1.
        -11    1    3    3    0    0 -0.19309475417E+01  0.70674236010E+01  0.33033288447E+02  0.33836004206E+02  0.51100000000E-03 0.  1.
         12    1    3    3    0    0 -0.26028890746E+00 -0.17602739991E+02 -0.39357866154E+02  0.43115726060E+02  0.00000000000E+00 0. -1.
</event>
<event>
 7    1  0.2578619E-015  0.9000774E+02  0.7816164E-02  0.1186339E+00
        -11   -1    0    0    0    0  0.00000000000E+00  0.00000000000E+00  0.45593999997E+02  0.45594000000E+02  0.51100000000E-03 0.  1.
         11   -1    0    0    0    0 -0.00000000000E+00 -0.00000000000E+00 -0.45593999997E+02  0.45594000000E+02  0.51100000000E-03 0. -1.
    9900012    2    1    2    0    0 -0.98069459631E+00 -0.52628593478E+00  0.39276968871E+00  0.90007742907E+02  0.90000004314E+02 0.  0.
        -12    1    1    2    0    0  0.98069459631E+00  0.52628593478E+00 -0.39276968871E+00  0.11802570926E+01  0.00000000000E+00 0.  1.
         11    1    3    3    0    0 -0.25629427552E+02  0.30692128557E+02 -0.13530834341E+01  0.40008813367E+02  0.51100000000E-03 0. -1.
        -11    1    3    3    0    0  0.61950643013E+01  0.38858341164E+01  0.68409605034E+01  0.10013853871E+02  0.51100000000E-03 0.  1.
        -12    1    3    3    0    0  0.18453668654E+02 -0.35104248608E+02 -0.50951073805E+01  0.39985075670E+02  0.00000000000E+00 0.  1.
</event>
<event>
 7    1  0.2578619E-015  0.9000786E+02  0.7816164E-02  0.1186339E+00
        -11   -1    0    0    0    0  0.00000000000E+00  0.00000000000E+00  0.45593999997E+02  0.45594000000E+02  0.51100000000E-03 0. -1.
         11   -1    0    0    0    0 -0.00000000000E+00 -0.00000000000E+00 -0.45593999997E+02  0.45594000000E+02  0.51100000000E-03 0.  1.
    9900012    2    1    2    0    0 -0.11741723088E+01 -0.31299313614E-01 -0.11427527814E+00  0.90007864797E+02  0.90000127812E+02 0.  0.
        -12    1    1    2    0    0  0.11741723088E+01  0.31299313614E-01  0.11427527814E+00  0.11801352029E+01  0.00000000000E+00 0.  1.
         11    1    3    3    0    0 -0.30773633184E+01  0.37032612524E+02  0.15538359957E+02  0.40278098090E+02  0.51100000000E-03 0. -1.
        -11    1    3    3    0    0 -0.78652641962E+01 -0.46776557916E+01  0.46630514585E+01  0.10270681270E+02  0.51100000000E-03 0.  1.
        -12    1    3    3    0    0  0.97684552057E+01 -0.32386256046E+02 -0.20315686693E+02  0.39459085438E+02  0.00000000000E+00 0.  1.
</event>
<event>
 7    1  0.2578619E-015  0.9000775E+02  0.7816164E-02  0.1186339E+00
        -11   -1    0    0    0    0  0.00000000000E+00  0.00000000000E+00  0.45593999997E+02  0.45594000000E+02  0.51100000000E-03 0.  1.
         11   -1    0    0    0    0 -0.00000000000E+00 -0.00000000000E+00 -0.45593999997E+02  0.45594000000E+02  0.51100000000E-03 0. -1.
    9900012    2    1    2    0    0 -0.17349016528E+00 -0.19135591205E+00 -0.11516370227E+01  0.90007752672E+02  0.90000014208E+02 0.  0.
        -12    1    1    2    0    0  0.17349016528E+00  0.19135591205E+00  0.11516370227E+01  0.11802473277E+01  0.00000000000E+00 0.  1.
         11    1    3    3    0    0 -0.21566208941E+01  0.39152925721E+01  0.12622789804E+01  0.46447688954E+01  0.51100000000E-03 0. -1.
        -11    1    3    3    0    0 -0.26800083166E+02 -0.17847068381E+02  0.26965748771E+02  0.41998975160E+02  0.51100000000E-03 0.  1.
         12    1    3    3    0    0  0.28783213895E+02  0.13740419897E+02 -0.29379664774E+02  0.43364008616E+02  0.00000000000E+00 0. -1.
</event>
<event>
 7    1  0.2578619E-015  0.9000781E+02  0.7816164E-02  0.1186339E+00
        -11   -1    0    0    0    0  0.00000000000E+00  0.00000000000E+00  0.45593999997E+02  0.45594000000E+02  0.51100000000E-03 0.  1.
         11   -1    0    0    0    0 -0.00000000000E+00 -0.00000000000E+00 -0.45593999997E+02  0.45594000000E+02  0.51100000000E-03 0. -1.
    9900012    2    1    2    0    0  0.60586904553E+00  0.31972375832E+00 -0.96101638115E+00  0.90007808038E+02  0.90000070304E+02 0.  0.
        -12    1    1    2    0    0 -0.60586904553E+00 -0.31972375832E+00  0.96101638115E+00  0.11801919618E+01  0.00000000000E+00 0.  1.
         11    1    3    3    0    0 -0.72155399104E+01 -0.47002563780E+01 -0.29079213112E+01  0.90891381786E+01  0.51100000000E-03 0. -1.
        -11    1    3    3    0    0 -0.24178592095E+02  0.31088493005E+02 -0.21428873173E+01  0.39442244856E+02  0.51100000000E-03 0.  1.
         12    1    3    3    0    0  0.32000001050E+02 -0.26068512869E+02  0.40897922473E+01  0.41476425003E+02  0.00000000000E+00 0. -1.
</event>
<event>
 7    1  0.2578619E-015  0.9000789E+02  0.7816164E-02  0.1186339E+00
        -11   -1    0    0    0    0  0.00000000000E+00  0.00000000000E+00  0.45593999997E+02  0.45594000000E+02  0.51100000000E-03 0.  1.
         11   -1    0    0    0    0 -0.00000000000E+00 -0.00000000000E+00 -0.45593999997E+02  0.45594000000E+02  0.51100000000E-03 0. -1.
    9900012    2    1    2    0    0 -0.95319957843E+00 -0.78946651342E-01  0.69125115626E+00  0.90007894000E+02  0.90000157401E+02 0.  0.
        -12    1    1    2    0    0  0.95319957843E+00  0.78946651342E-01 -0.69125115626E+00  0.11801059999E+01  0.00000000000E+00 0.  1.
         11    1    3    3    0    0 -0.72725621598E+01  0.61130399760E+01 -0.31277283273E+01  0.10002104922E+02  0.51100000000E-03 0. -1.
        -11    1    3    3    0    0 -0.24836312179E+02  0.10783992077E+02  0.26507152019E+02  0.37891502955E+02  0.51100000000E-03 0.  1.
         12    1    3    3    0    0  0.31155674760E+02 -0.16975978704E+02 -0.22688172535E+02  0.42114286124E+02  0.00000000000E+00 0. -1.
</event>
<event>
 7    1  0.2578619E-015  0.9000839E+02  0.7816164E-02  0.1186338E+00
        -11   -1    0    0    0    0  0.00000000000E+00  0.00000000000E+00  0.45593999997E+02  0.45594000000E+02  0.51100000000E-03 0.  1.
         11   -1    0    0    0    0 -0.00000000000E+00 -0.00000000000E+00 -0.45593999997E+02  0.45594000000E+02  0.51100000000E-03 0. -1.
    9900012    2    1    2    0    0 -0.65900662188E+00  0.26479780017E+00 -0.94183951184E+00  0.90008394444E+02  0.90000664448E+02 0.  0.
        -12    1    1    2    0    0  0.65900662188E+00 -0.26479780017E+00  0.94183951184E+00  0.11796055564E+01  0.00000000000E+00 0.  1.
         11    1    3    3    0    0  0.34872446868E+02  0.22422023819E+01 -0.40975606733E+01  0.35183874514E+02  0.51100000000E-03 0. -1.
        -11    1    3    3    0    0  0.94774706525E+01  0.97044682757E+00  0.18205135724E+01  0.96994065253E+01  0.51100000000E-03 0.  1.
        -12    1    3    3    0    0 -0.45008924143E+02 -0.29478514093E+01  0.13352075891E+01  0.45125113404E+02  0.00000000000E+00 0.  1.
</event>
<event>
 7    1  0.2578619E-015  0.9000774E+02  0.7816164E-02  0.1186339E+00
        -11   -1    0    0    0    0  0.00000000000E+00  0.00000000000E+00  0.45593999997E+02  0.45594000000E+02  0.51100000000E-03 0.  1.
         11   -1    0    0    0    0 -0.00000000000E+00 -0.00000000000E+00 -0.45593999997E+02  0.45594000000E+02  0.51100000000E-03 0. -1.
    9900012    2    1    2    0    0  0.86792002840E+00 -0.13676552832E-01  0.79970712325E+00  0.90007744220E+02  0.90000005643E+02 0.  0.
        -12    1    1    2    0    0 -0.86792002840E+00  0.13676552832E-01 -0.79970712325E+00  0.11802557802E+01  0.00000000000E+00 0.  1.
         11    1    3    3    0    0 -0.28480978851E+01  0.41316553671E+01  0.95879185526E+01  0.10821756792E+02  0.51100000000E-03 0. -1.
        -11    1    3    3    0    0 -0.10926261803E+02  0.27473247456E+02  0.18544263410E+02  0.34900604987E+02  0.51100000000E-03 0.  1.
         12    1    3    3    0    0  0.14642279716E+02 -0.31618579376E+02 -0.27332474840E+02  0.44285382441E+02  0.00000000000E+00 0. -1.
</event>
<event>
 7    1  0.2578619E-015  0.9000766E+02  0.7816164E-02  0.1186339E+00
        -11   -1    0    0    0    0  0.00000000000E+00  0.00000000000E+00  0.45593999997E+02  0.45594000000E+02  0.51100000000E-03 0. -1.
         11   -1    0    0    0    0 -0.00000000000E+00 -0.00000000000E+00 -0.45593999997E+02  0.45594000000E+02  0.51100000000E-03 0.  1.
    9900012    2    1    2    0    0 -0.82584341697E+00 -0.25767941396E+00  0.80298633589E+00  0.90007659759E+02  0.89999920067E+02 0.  0.
        -12    1    1    2    0    0  0.82584341697E+00  0.25767941396E+00 -0.80298633589E+00  0.11803402414E+01  0.00000000000E+00 0.  1.
         11    1    3    3    0    0  0.40706768874E+02  0.10822365143E+02  0.33004004575E+01  0.42249938022E+02  0.51100000000E-03 0. -1.
        -11    1    3    3    0    0 -0.44463708240E+01 -0.63416642610E+01 -0.65600337497E+01  0.10149924244E+02  0.51100000000E-03 0.  1.
        -12    1    3    3    0    0 -0.37086241467E+02 -0.47383802962E+01  0.40626196281E+01  0.37607797492E+02  0.00000000000E+00 0.  1.
</event>
<event>
 7    1  0.2578619E-015  0.9000779E+02  0.7816164E-02  0.1186339E+00
        -11   -1    0    0    0    0  0.00000000000E+00  0.00000000000E+00  0.45593999997E+02  0.45594000000E+02  0.51100000000E-03 0.  1.
         11   -1    0    0    0    0 -0.00000000000E+00 -0.00000000000E+00 -0.45593999997E+02  0.45594000000E+02  0.51100000000E-03 0. -1.
    9900012    2    1    2    0    0  0.93835032715E+00  0.20677962807E-01 -0.71551827330E+00  0.90007790140E+02  0.90000052170E+02 0.  0.
        -12    1    1    2    0    0 -0.93835032715E+00 -0.20677962807E-01  0.71551827330E+00  0.11802098602E+01  0.00000000000E+00 0.  1.
         11    1    3    3    0    0  0.14664734409E+01 -0.25388903586E+02 -0.34307567660E+02  0.42705458301E+02  0.51100000000E-03 0. -1.
        -11    1    3    3    0    0  0.66653318095E+01  0.62954748466E+01  0.15402213487E+01  0.92968776339E+01  0.51100000000E-03 0.  1.
        -12    1    3    3    0    0 -0.71934549233E+01  0.19114106702E+02  0.32051828038E+02  0.38005454205E+02  0.00000000000E+00 0.  1.
</event>
<event>
 7    1  0.2578619E-015  0.9000790E+02  0.7816164E-02  0.1186339E+00
        -11   -1    0    0    0    0  0.00000000000E+00  0.00000000000E+00  0.45593999997E+02  0.45594000000E+02  0.51100000000E-03 0. -1.
         11   -1    0    0    0    0 -0.00000000000E+00 -0.00000000000E+00 -0.45593999997E+02  0.45594000000E+02  0.51100000000E-03 0.  1.
    9900012    2    1    2    0    0  0.60196781518E+00 -0.19006391796E+00  0.99707323161E+00  0.90007896372E+02  0.90000159804E+02 0.  0.
        -12    1    1    2    0    0 -0.60196781518E+00  0.19006391796E+00 -0.99707323161E+00  0.11801036279E+01  0.00000000000E+00 0.  1.
         11    1    3    3    0    0 -0.19375472914E+02 -0.14184290887E+02  0.32501934182E+02  0.40410132200E+02  0.51100000000E-03 0. -1.
        -11    1    3    3    0    0  0.75166235875E+01  0.31370209898E+01  0.49781323569E+01  0.95458018453E+01  0.51100000000E-03 0.  1.
        -12    1    3    3    0    0  0.12460817142E+02  0.10857205979E+02 -0.36482993307E+02  0.40051962326E+02  0.00000000000E+00 0.  1.
</event>
<event>
 7    1  0.2578619E-015  0.9000702E+02  0.7816164E-02  0.1186340E+00
        -11   -1    0    0    0    0  0.00000000000E+00  0.00000000000E+00  0.45593999997E+02  0.45594000000E+02  0.51100000000E-03 0.  1.
         11   -1    0    0    0    0 -0.00000000000E+00 -0.00000000000E+00 -0.45593999997E+02  0.45594000000E+02  0.51100000000E-03 0. -1.
    9900012    2    1    2    0    0 -0.28001925760E+00  0.96028528916E+00 -0.62781481774E+00  0.90007021564E+02  0.89999273446E+02 0.  0.
        -12    1    1    2    0    0  0.28001925760E+00 -0.96028528916E+00  0.62781481774E+00  0.11809784361E+01  0.00000000000E+00 0.  1.
         11    1    3    3    0    0 -0.29674654027E+01 -0.41464952352E+02 -0.52192517559E+01  0.41897359268E+02  0.51100000000E-03 0. -1.
        -11    1    3    3    0    0 -0.63393420102E+01  0.61200152262E+01 -0.40753981562E+01  0.97082806863E+01  0.51100000000E-03 0.  1.
        -12    1    3    3    0    0  0.90267881553E+01  0.36305222415E+02  0.86668350944E+01  0.38401381610E+02  0.00000000000E+00 0.  1.
</event>
<event>
 7    1  0.2578619E-015  0.9000768E+02  0.7816164E-02  0.1186339E+00
        -11   -1    0    0    0    0  0.00000000000E+00  0.00000000000E+00  0.45593999997E+02  0.45594000000E+02  0.51100000000E-03 0.  1.
         11   -1    0    0    0    0 -0.00000000000E+00 -0.00000000000E+00 -0.45593999997E+02  0.45594000000E+02  0.51100000000E-03 0. -1.
    9900012    2    1    2    0    0 -0.90246868636E+00 -0.66935088507E+00  0.36148450933E+00  0.90007681658E+02  0.89999942256E+02 0.  0.
        -12    1    1    2    0    0  0.90246868636E+00  0.66935088507E+00 -0.36148450933E+00  0.11803183417E+01  0.00000000000E+00 0.  1.
         11    1    3    3    0    0 -0.76429645543E+01  0.28860939363E+01  0.70732456604E+01  0.10806259752E+02  0.51100000000E-03 0. -1.
        -11    1    3    3    0    0 -0.21972897038E+02  0.23784232934E+02  0.13038552809E+02  0.34907045136E+02  0.51100000000E-03 0.  1.
         12    1    3    3    0    0  0.28713392906E+02 -0.27339677755E+02 -0.19750313960E+02  0.44294376770E+02  0.00000000000E+00 0. -1.
</event>
<event>
 7    1  0.2578619E-015  0.9000778E+02  0.7816164E-02  0.1186339E+00
        -11   -1    0    0    0    0  0.00000000000E+00  0.00000000000E+00  0.45593999997E+02  0.45594000000E+02  0.51100000000E-03 0. -1.
         11   -1    0    0    0    0 -0.00000000000E+00 -0.00000000000E+00 -0.45593999997E+02  0.45594000000E+02  0.51100000000E-03 0.  1.
    9900012    2    1    2    0    0  0.10095776380E+01 -0.42502939768E+00  0.43934866142E+00  0.90007777884E+02  0.90000039752E+02 0.  0.
        -12    1    1    2    0    0 -0.10095776380E+01  0.42502939768E+00 -0.43934866142E+00  0.11802221157E+01  0.00000000000E+00 0.  1.
         11    1    3    3    0    0 -0.81402020677E+01  0.25755671099E+01  0.59764907284E+01  0.10421846157E+02  0.51100000000E-03 0. -1.
        -11    1    3    3    0    0  0.28476530491E+02 -0.10028579384E+02  0.27390304652E+02  0.40764126171E+02  0.51100000000E-03 0.  1.
         12    1    3    3    0    0 -0.19326750786E+02  0.70279828762E+01 -0.32927446719E+02  0.38821805556E+02  0.00000000000E+00 0. -1.
</event>
<event>
 7    1  0.2578619E-015  0.9000759E+02  0.7816164E-02  0.1186339E+00
        -11   -1    0    0    0    0  0.00000000000E+00  0.00000000000E+00  0.45593999997E+02  0.45594000000E+02  0.51100000000E-03 0.  1.
         11   -1    0    0    0    0 -0.00000000000E+00 -0.00000000000E+00 -0.45593999997E+02  0.45594000000E+02  0.51100000000E-03 0. -1.
    9900012    2    1    2    0    0  0.47195598657E+00 -0.64403807118E+00 -0.86938465921E+00  0.90007594487E+02  0.89999853934E+02 0.  0.
        -12    1    1    2    0    0 -0.47195598657E+00  0.64403807118E+00  0.86938465921E+00  0.11804055134E+01  0.00000000000E+00 0.  1.
         11    1    3    3    0    0  0.73047752229E+01  0.15886509404E+02 -0.35263295235E+02  0.39360397777E+02  0.51100000000E-03 0. -1.
        -11    1    3    3    0    0 -0.15374979622E+01  0.96344867118E+01  0.50814382471E+01  0.11000374953E+02  0.51100000000E-03 0.  1.
        -12    1    3    3    0    0 -0.52953212742E+01 -0.26165034187E+02  0.29312472328E+02  0.39646821757E+02  0.00000000000E+00 0.  1.
</event>
<event>
 7    1  0.2578619E-015  0.9000770E+02  0.7816164E-02  0.1186339E+00
        -11   -1    0    0    0    0  0.00000000000E+00  0.00000000000E+00  0.45593999997E+02  0.45594000000E+02  0.51100000000E-03 0. -1.
         11   -1    0    0    0    0 -0.00000000000E+00 -0.00000000000E+00 -0.45593999997E+02  0.45594000000E+02  0.51100000000E-03 0.  1.
    9900012    2    1    2    0    0 -0.95388033216E+00 -0.53554381198E+00 -0.44318647260E+00  0.90007699567E+02  0.89999960401E+02 0.  0.
        -12    1    1    2    0    0  0.95388033216E+00  0.53554381198E+00  0.44318647260E+00  0.11803004330E+01  0.00000000000E+00 0.  1.
         11    1    3    3    0    0 -0.14897587791E+02  0.15533524818E+02  0.37676407418E+02  0.43390554173E+02  0.51100000000E-03 0. -1.
        -11    1    3    3    0    0  0.79241684496E+01 -0.77596834257E+00 -0.43795037665E+01  0.90870581591E+01  0.51100000000E-03 0.  1.
        -12    1    3    3    0    0  0.60195390088E+01 -0.15293100287E+02 -0.33740090124E+02  0.37530087235E+02  0.00000000000E+00 0.  1.
</event>
<event>
 7    1  0.2578619E-015  0.9000770E+02  0.7816164E-02  0.1186339E+00
        -11   -1    0    0    0    0  0.00000000000E+00  0.00000000000E+00  0.45593999997E+02  0.45594000000E+02  0.51100000000E-03 0.  1.
         11   -1    0    0    0    0 -0.00000000000E+00 -0.00000000000E+00 -0.45593999997E+02  0.45594000000E+02  0.51100000000E-03 0. -1.
    9900012    2    1    2    0    0  0.38849023227E+00 -0.34051609980E-01 -0.11140083639E+01  0.90007703932E+02  0.89999964824E+02 0.  0.
        -12    1    1    2    0    0 -0.38849023227E+00  0.34051609980E-01  0.11140083639E+01  0.11802960677E+01  0.00000000000E+00 0.  1.
         11    1    3    3    0    0  0.39553438816E+01 -0.55879635209E+01  0.64223769896E+01  0.93870659948E+01  0.51100000000E-03 0. -1.
        -11    1    3    3    0    0 -0.31543570931E+02  0.32011428521E+01  0.22977211843E+02  0.39156052495E+02  0.51100000000E-03 0.  1.
         12    1    3    3    0    0  0.27976717281E+02  0.23527690588E+01 -0.30513597196E+02  0.41464585443E+02  0.00000000000E+00 0. -1.
</event>
<event>
 7    1  0.2578619E-015  0.9000724E+02  0.7816164E-02  0.1186340E+00
        -11   -1    0    0    0    0  0.00000000000E+00  0.00000000000E+00  0.45593999997E+02  0.45594000000E+02  0.51100000000E-03 0.  1.
         11   -1    0    0    0    0 -0.00000000000E+00 -0.00000000000E+00 -0.45593999997E+02  0.45594000000E+02  0.51100000000E-03 0. -1.
    9900012    2    1    2    0    0  0.10342813650E+00  0.76142660662E+00 -0.89651419758E+00  0.90007235179E+02  0.89999489882E+02 0.  0.
        -12    1    1    2    0    0 -0.10342813650E+00 -0.76142660662E+00  0.89651419758E+00  0.11807648213E+01  0.00000000000E+00 0.  1.
         11    1    3    3    0    0  0.53532372836E+01  0.21838774158E+02 -0.24527863445E+02  0.33274694463E+02  0.51100000000E-03 0. -1.
        -11    1    3    3    0    0  0.13755829354E+01  0.38915949877E+01 -0.12018155338E+02  0.12707194732E+02  0.51100000000E-03 0.  1.
        -12    1    3    3    0    0 -0.66253920825E+01 -0.24968942539E+02  0.35649504586E+02  0.44025345984E+02  0.00000000000E+00 0.  1.
</event>
<event>
 7    1  0.2578619E-015  0.9000769E+02  0.7816164E-02  0.1186339E+00
        -11   -1    0    0    0    0  0.00000000000E+00  0.00000000000E+00  0.45593999997E+02  0.45594000000E+02  0.51100000000E-03 0.  1.
         11   -1    0    0    0    0 -0.00000000000E+00 -0.00000000000E+00 -0.45593999997E+02  0.45594000000E+02  0.51100000000E-03 0. -1.
    9900012    2    1    2    0    0 -0.35849894450E-01  0.62822612427E+00 -0.99859167151E+00  0.90007687073E+02  0.89999947743E+02 0.  0.
        -12    1    1    2    0    0  0.35849894450E-01 -0.62822612427E+00  0.99859167151E+00  0.11803129265E+01  0.00000000000E+00 0.  1.
         11    1    3    3    0    0 -0.34911683932E+00  0.10894904778E+02 -0.40930093276E+01  0.11643605898E+02  0.51100000000E-03 0. -1.
        -11    1    3    3    0    0 -0.57666686715E+01  0.30943833888E+02  0.15241534793E+02  0.34972556475E+02  0.51100000000E-03 0.  1.
         12    1    3    3    0    0  0.60799356164E+01 -0.41210512542E+02 -0.12147117137E+02  0.43391524700E+02  0.00000000000E+00 0. -1.
</event>
<event>
 7    1  0.2578619E-015  0.9000773E+02  0.7816164E-02  0.1186339E+00
        -11   -1    0    0    0    0  0.00000000000E+00  0.00000000000E+00  0.45593999997E+02  0.45594000000E+02  0.51100000000E-03 0. -1.
         11   -1    0    0    0    0 -0.00000000000E+00 -0.00000000000E+00 -0.45593999997E+02  0.45594000000E+02  0.51100000000E-03 0.  1.
    9900012    2    1    2    0    0 -0.37989934968E+00  0.90425381760E+00  0.65653235979E+00  0.90007731716E+02  0.89999992975E+02 0.  0.
        -12    1    1    2    0    0  0.37989934968E+00 -0.90425381760E+00 -0.65653235979E+00  0.11802682839E+01  0.00000000000E+00 0.  1.
         11    1    3    3    0    0 -0.33102713991E+02 -0.74291608008E+00  0.18005535205E+02  0.37690063626E+02  0.51100000000E-03 0. -1.
        -11    1    3    3    0    0 -0.71055679808E+01 -0.51349449282E+01 -0.48909350577E+01  0.10038824719E+02  0.51100000000E-03 0.  1.
        -12    1    3    3    0    0  0.39828382622E+02  0.67821148258E+01 -0.12458067787E+02  0.42278843371E+02  0.00000000000E+00 0.  1.
</event>
<event>
 7    1  0.2578619E-015  0.9000773E+02  0.7816164E-02  0.1186339E+00
        -11   -1    0    0    0    0  0.00000000000E+00  0.00000000000E+00  0.45593999997E+02  0.45594000000E+02  0.51100000000E-03 0. -1.
         11   -1    0    0    0    0 -0.00000000000E+00 -0.00000000000E+00 -0.45593999997E+02  0.45594000000E+02  0.51100000000E-03 0.  1.
    9900012    2    1    2    0    0  0.71079857585E-02 -0.11731586463E+01 -0.12918472611E+00  0.90007728664E+02  0.89999989882E+02 0.  0.
        -12    1    1    2    0    0 -0.71079857585E-02  0.11731586463E+01  0.12918472611E+00  0.11802713359E+01  0.00000000000E+00 0.  1.
         11    1    3    3    0    0  0.14158109609E+02 -0.20750117064E+02  0.32760177661E+02  0.41282546754E+02  0.51100000000E-03 0. -1.
        -11    1    3    3    0    0 -0.92935120400E+00  0.84435304203E+01  0.29037125798E+01  0.89771068071E+01  0.51100000000E-03 0.  1.
        -12    1    3    3    0    0 -0.13221650420E+02  0.11133427997E+02 -0.35793074967E+02  0.39748075103E+02  0.00000000000E+00 0.  1.
</event>
<event>
 7    1  0.2578619E-015  0.9000780E+02  0.7816164E-02  0.1186339E+00
        -11   -1    0    0    0    0  0.00000000000E+00  0.00000000000E+00  0.45593999997E+02  0.45594000000E+02  0.51100000000E-03 0.  1.
         11   -1    0    0    0    0 -0.00000000000E+00 -0.00000000000E+00 -0.45593999997E+02  0.45594000000E+02  0.51100000000E-03 0. -1.
    9900012    2    1    2    0    0  0.52273408645E+00  0.10242745607E+01  0.26548228087E+00  0.90007800804E+02  0.90000062975E+02 0.  0.
        -12    1    1    2    0    0 -0.52273408645E+00 -0.10242745607E+01 -0.26548228087E+00  0.11801991960E+01  0.00000000000E+00 0.  1.
         11    1    3    3    0    0  0.73386270248E+00 -0.91628236617E+01  0.54664356323E+01  0.10694756225E+02  0.51100000000E-03 0. -1.
        -11    1    3    3    0    0  0.86430559351E+01 -0.31556251008E+02  0.96805131820E+01  0.34120547025E+02  0.51100000000E-03 0.  1.
         12    1    3    3    0    0 -0.88541845511E+01  0.41743349230E+02 -0.14881466533E+02  0.45192497554E+02  0.00000000000E+00 0. -1.
</event>
<event>
 7    1  0.2578619E-015  0.9000764E+02  0.7816164E-02  0.1186339E+00
        -11   -1    0    0    0    0  0.00000000000E+00  0.00000000000E+00  0.45593999997E+02  0.45594000000E+02  0.51100000000E-03 0. -1.
         11   -1    0    0    0    0 -0.00000000000E+00 -0.00000000000E+00 -0.45593999997E+02  0.45594000000E+02  0.51100000000E-03 0.  1.
    9900012    2    1    2    0    0  0.11206658438E+01  0.29303173905E+00  0.22693347657E+00  0.90007636354E+02  0.89999896354E+02 0.  0.
        -12    1    1    2    0    0 -0.11206658438E+01 -0.29303173905E+00 -0.22693347657E+00  0.11803636458E+01  0.00000000000E+00 0.  1.
         11    1    3    3    0    0 -0.82734674202E+01  0.12434347957E+02  0.26993962131E+02  0.30850239287E+02  0.51100000000E-03 0. -1.
        -11    1    3    3    0    0  0.41284140242E+01  0.14061937004E+02  0.68774560962E+01  0.16188924525E+02  0.51100000000E-03 0.  1.
        -12    1    3    3    0    0  0.52657192398E+01 -0.26203253222E+02 -0.33644484751E+02  0.42968472543E+02  0.00000000000E+00 0.  1.
</event>
<event>
 7    1  0.2578619E-015  0.9000776E+02  0.7816164E-02  0.1186339E+00
        -11   -1    0    0    0    0  0.00000000000E+00  0.00000000000E+00  0.45593999997E+02  0.45594000000E+02  0.51100000000E-03 0.  1.
         11   -1    0    0    0    0 -0.00000000000E+00 -0.00000000000E+00 -0.45593999997E+02  0.45594000000E+02  0.51100000000E-03 0. -1.
    9900012    2    1    2    0    0 -0.62087533243E+00  0.19129453781E+00 -0.98533390693E+00  0.90007761597E+02  0.90000023251E+02 0.  0.
        -12    1    1    2    0    0  0.62087533243E+00 -0.19129453781E+00  0.98533390693E+00  0.11802384025E+01  0.00000000000E+00 0.  1.
         11    1    3    3    0    0 -0.15808134214E+02 -0.22299113509E+02 -0.26680179618E+02  0.38196590886E+02  0.51100000000E-03 0. -1.
        -11    1    3    3    0    0 -0.10017219069E+02  0.44515872950E+00  0.74853195799E+00  0.10055005944E+02  0.51100000000E-03 0.  1.
        -12    1    3    3    0    0  0.25204477951E+02  0.22045249317E+02  0.24946313753E+02  0.41756164768E+02  0.00000000000E+00 0.  1.
</event>
<event>
 7    1  0.2578619E-015  0.9000778E+02  0.7816164E-02  0.1186339E+00
        -11   -1    0    0    0    0  0.00000000000E+00  0.00000000000E+00  0.45593999997E+02  0.45594000000E+02  0.51100000000E-03 0. -1.
         11   -1    0    0    0    0 -0.00000000000E+00 -0.00000000000E+00 -0.45593999997E+02  0.45594000000E+02  0.51100000000E-03 0.  1.
    9900012    2    1    2    0    0 -0.10274278534E+01  0.20017947395E+00 -0.54520230550E+00  0.90007777407E+02  0.90000039269E+02 0.  0.
        -12    1    1    2    0    0  0.10274278534E+01 -0.20017947395E+00  0.54520230550E+00  0.11802225933E+01  0.00000000000E+00 0.  1.
         11    1    3    3    0    0  0.51060269294E+01 -0.26726605006E+02  0.21298018902E+02  0.34554139196E+02  0.51100000000E-03 0. -1.
        -11    1    3    3    0    0 -0.54537235989E+01 -0.20519625023E+01  0.10508301563E+02  0.12015741891E+02  0.51100000000E-03 0.  1.
        -12    1    3    3    0    0 -0.67973118396E+00  0.28978746982E+02 -0.32351522770E+02  0.43437896320E+02  0.00000000000E+00 0.  1.
</event>
<event>
 7    1  0.2578619E-015  0.9000776E+02  0.7816164E-02  0.1186339E+00
        -11   -1    0    0    0    0  0.00000000000E+00  0.00000000000E+00  0.45593999997E+02  0.45594000000E+02  0.51100000000E-03 0.  1.
         11   -1    0    0    0    0 -0.00000000000E+00 -0.00000000000E+00 -0.45593999997E+02  0.45594000000E+02  0.51100000000E-03 0. -1.
    9900012    2    1    2    0    0  0.45968545966E+00  0.10099110227E+01 -0.40216890377E+00  0.90007758151E+02  0.90000019758E+02 0.  0.
        -12    1    1    2    0    0 -0.45968545966E+00 -0.10099110227E+01  0.40216890377E+00  0.11802418492E+01  0.00000000000E+00 0.  1.
         11    1    3    3    0    0  0.15936916114E+02 -0.17038717906E+02  0.64450841568E+00  0.23339207238E+02  0.51100000000E-03 0. -1.
        -11    1    3    3    0    0 -0.23845230135E+02 -0.16169500224E+02  0.87414570120E+01  0.30107487584E+02  0.51100000000E-03 0.  1.
        -12    1    3    3    0    0  0.83679994803E+01  0.34218129153E+02 -0.97881343315E+01  0.36561063329E+02  0.00000000000E+00 0.  1.
</event>
<event>
 7    1  0.2578619E-015  0.9000774E+02  0.7816164E-02  0.1186339E+00
        -11   -1    0    0    0    0  0.00000000000E+00  0.00000000000E+00  0.45593999997E+02  0.45594000000E+02  0.51100000000E-03 0.  1.
         11   -1    0    0    0    0 -0.00000000000E+00 -0.00000000000E+00 -0.45593999997E+02  0.45594000000E+02  0.51100000000E-03 0. -1.
    9900012    2    1    2    0    0 -0.36597286007E+00  0.10702117204E+01 -0.33724760420E+00  0.90007735111E+02  0.89999996415E+02 0.  0.
        -12    1    1    2    0    0  0.36597286007E+00 -0.10702117204E+01  0.33724760420E+00  0.11802648886E+01  0.00000000000E+00 0.  1.
         11    1    3    3    0    0 -0.37213891183E+02  0.16056766478E+02 -0.23218418940E+01  0.40596605729E+02  0.51100000000E-03 0. -1.
        -11    1    3    3    0    0 -0.12987171736E+01 -0.83757829228E+01  0.61506775432E+01  0.10472403753E+02  0.51100000000E-03 0.  1.
        -12    1    3    3    0    0  0.38146635496E+02 -0.66107718346E+01 -0.41660832534E+01  0.38938725629E+02  0.00000000000E+00 0.  1.
</event>
<event>
 7    1  0.2578619E-015  0.9000773E+02  0.7816164E-02  0.1186339E+00
        -11   -1    0    0    0    0  0.00000000000E+00  0.00000000000E+00  0.45593999997E+02  0.45594000000E+02  0.51100000000E-03 0. -1.
         11   -1    0    0    0    0 -0.00000000000E+00 -0.00000000000E+00 -0.45593999997E+02  0.45594000000E+02  0.51100000000E-03 0.  1.
    9900012    2    1    2    0    0 -0.53917021855E+00 -0.35116086076E+00  0.98945439311E+00  0.90007729493E+02  0.89999990722E+02 0.  0.
        -12    1    1    2    0    0  0.53917021855E+00  0.35116086076E+00 -0.98945439311E+00  0.11802705074E+01  0.00000000000E+00 0.  1.
         11    1    3    3    0    0 -0.11435918908E+02  0.46174476657E+01 -0.12944511004E+01  0.12400672083E+02  0.51100000000E-03 0. -1.
        -11    1    3    3    0    0  0.19088988862E+02 -0.35998219091E+02  0.14526637074E+02  0.43258345535E+02  0.51100000000E-03 0.  1.
         12    1    3    3    0    0 -0.81922401726E+01  0.31029610565E+02 -0.12242731580E+02  0.34348711874E+02  0.00000000000E+00 0. -1.
</event>
<event>
 7    1  0.2578619E-015  0.9000775E+02  0.7816164E-02  0.1186339E+00
        -11   -1    0    0    0    0  0.00000000000E+00  0.00000000000E+00  0.45593999997E+02  0.45594000000E+02  0.51100000000E-03 0. -1.
         11   -1    0    0    0    0 -0.00000000000E+00 -0.00000000000E+00 -0.45593999997E+02  0.45594000000E+02  0.51100000000E-03 0.  1.
    9900012    2    1    2    0    0 -0.20026059277E+00 -0.11393802222E+01  0.23389750882E+00  0.90007745942E+02  0.90000007389E+02 0.  0.
        -12    1    1    2    0    0  0.20026059277E+00  0.11393802222E+01 -0.23389750882E+00  0.11802540575E+01  0.00000000000E+00 0.  1.
         11    1    3    3    0    0  0.54144985833E+01  0.58066744444E+01 -0.12277021988E+01  0.80337734572E+01  0.51100000000E-03 0. -1.
        -11    1    3    3    0    0 -0.43305649947E+02 -0.86839316893E+01 -0.80416438554E+00  0.44175068393E+02  0.51100000000E-03 0.  1.
         12    1    3    3    0    0  0.37690890771E+02  0.17378770228E+01  0.22657640931E+01  0.37798904092E+02  0.00000000000E+00 0. -1.
</event>
<event>
 7    1  0.2578619E-015  0.9000773E+02  0.7816164E-02  0.1186339E+00
        -11   -1    0    0    0    0  0.00000000000E+00  0.00000000000E+00  0.45593999997E+02  0.45594000000E+02  0.51100000000E-03 0.  1.
         11   -1    0    0    0    0 -0.00000000000E+00 -0.00000000000E+00 -0.45593999997E+02  0.45594000000E+02  0.51100000000E-03 0. -1.
    9900012    2    1    2    0    0  0.37507159758E+00  0.22061393202E+00 -0.10971324530E+01  0.90007725104E+02  0.89999986276E+02 0.  0.
        -12    1    1    2    0    0 -0.37507159758E+00 -0.22061393202E+00  0.10971324530E+01  0.11802748958E+01  0.00000000000E+00 0.  1.
         11    1    3    3    0    0 -0.11107365881E+02 -0.23103479058E+02 -0.26773042450E+02  0.37066698311E+02  0.51100000000E-03 0. -1.
        -11    1    3    3    0    0  0.21352747313E+01 -0.89275393487E+01 -0.20376474295E+01  0.94027849230E+01  0.51100000000E-03 0.  1.
        -12    1    3    3    0    0  0.93471627469E+01  0.32251632339E+02  0.27713557426E+02  0.43538241870E+02  0.00000000000E+00 0.  1.
</event>
<event>
 7    1  0.2578619E-015  0.9000778E+02  0.7816164E-02  0.1186339E+00
        -11   -1    0    0    0    0  0.00000000000E+00  0.00000000000E+00  0.45593999997E+02  0.45594000000E+02  0.51100000000E-03 0.  1.
         11   -1    0    0    0    0 -0.00000000000E+00 -0.00000000000E+00 -0.45593999997E+02  0.45594000000E+02  0.51100000000E-03 0. -1.
    9900012    2    1    2    0    0 -0.11183588291E+01 -0.33380346190E+00 -0.17541076776E+00  0.90007779614E+02  0.90000041505E+02 0.  0.
        -12    1    1    2    0    0  0.11183588291E+01  0.33380346190E+00  0.17541076776E+00  0.11802203859E+01  0.00000000000E+00 0.  1.
         11    1    3    3    0    0  0.54675596566E+01 -0.88037819770E+01 -0.99851067385E+01  0.14391078575E+02  0.51100000000E-03 0. -1.
        -11    1    3    3    0    0 -0.27185622270E+00 -0.32638508030E+02 -0.96221584251E+00  0.32653820172E+02  0.51100000000E-03 0.  1.
         12    1    3    3    0    0 -0.63140622631E+01  0.41108486545E+02  0.10771911813E+02  0.42962880867E+02  0.00000000000E+00 0. -1.
</event>
<event>
 7    1  0.2578619E-015  0.9000764E+02  0.7816164E-02  0.1186339E+00
        -11   -1    0    0    0    0  0.00000000000E+00  0.00000000000E+00  0.45593999997E+02  0.45594000000E+02  0.51100000000E-03 0. -1.
         11   -1    0    0    0    0 -0.00000000000E+00 -0.00000000000E+00 -0.45593999997E+02  0.45594000000E+02  0.51100000000E-03 0.  1.
    9900012    2    1    2    0    0 -0.76055189107E+00 -0.66213268617E-01 -0.90023862214E+00  0.90007638635E+02  0.89999898665E+02 0.  0.
        -12    1    1    2    0    0  0.76055189107E+00  0.66213268617E-01  0.90023862214E+00  0.11803613653E+01  0.00000000000E+00 0.  1.
         11    1    3    3    0    0 -0.11896739006E+02  0.96223705798E+01  0.15166212537E+02  0.21543825508E+02  0.51100000000E-03 0. -1.
        -11    1    3    3    0    0  0.35802487330E+01  0.27941783128E+02 -0.67042355051E+01  0.28957006049E+02  0.51100000000E-03 0.  1.
         12    1    3    3    0    0  0.75559383815E+01 -0.37630366976E+02 -0.93622156537E+01  0.39506807078E+02  0.00000000000E+00 0. -1.
</event>
<event>
 7    1  0.2578619E-015  0.9000779E+02  0.7816164E-02  0.1186339E+00
        -11   -1    0    0    0    0  0.00000000000E+00  0.00000000000E+00  0.45593999997E+02  0.45594000000E+02  0.51100000000E-03 0.  1.
         11   -1    0    0    0    0 -0.00000000000E+00 -0.00000000000E+00 -0.45593999997E+02  0.45594000000E+02  0.51100000000E-03 0. -1.
    9900012    2    1    2    0    0 -0.79596344328E+00 -0.72332973280E+00 -0.48592203537E+00  0.90007794963E+02  0.90000057056E+02 0.  0.
        -12    1    1    2    0    0  0.79596344328E+00  0.72332973280E+00  0.48592203537E+00  0.11802050372E+01  0.00000000000E+00 0.  1.
         11    1    3    3    0    0 -0.70048927344E+01 -0.43167465084E+01  0.26580928800E+01  0.86468653660E+01  0.51100000000E-03 0. -1.
        -11    1    3    3    0    0  0.26883158630E+02 -0.61708799868E+01 -0.33476878591E+02  0.43376092243E+02  0.51100000000E-03 0.  1.
         12    1    3    3    0    0 -0.20674229339E+02  0.97642967623E+01  0.30332863676E+02  0.37984837354E+02  0.00000000000E+00 0. -1.
</event>
<event>
 7    1  0.2944207E-015  0.9000770E+02  0.7816164E-02  0.1186339E+00
        -11   -1    0    0    0    0  0.00000000000E+00  0.00000000000E+00  0.45593999997E+02  0.45594000000E+02  0.51100000000E-03 0.  1.
         11   -1    0    0    0    0 -0.00000000000E+00 -0.00000000000E+00 -0.45593999997E+02  0.45594000000E+02  0.51100000000E-03 0. -1.
    9900012    2    1    2    0    0  0.37834817840E+00 -0.10952414846E+01 -0.22452712024E+00  0.90007697631E+02  0.89999958440E+02 0.  0.
        -12    1    1    2    0    0 -0.37834817840E+00  0.10952414846E+01  0.22452712024E+00  0.11803023686E+01  0.00000000000E+00 0.  1.
         11    1    3    3    0    0 -0.28541504528E+01 -0.61739472396E+01 -0.67831025925E+01  0.96059502583E+01  0.51100000000E-03 0. -1.
        -11    1    3    3    0    0 -0.22461999434E+02  0.15789513076E+02  0.32365222444E+02  0.42442405279E+02  0.51100000000E-03 0.  1.
         12    1    3    3    0    0  0.25694498065E+02 -0.10710807321E+02 -0.25806646972E+02  0.37959342094E+02  0.00000000000E+00 0. -1.
</event>
<event>
 7    1  0.2578619E-015  0.9000775E+02  0.7816164E-02  0.1186339E+00
        -11   -1    0    0    0    0  0.00000000000E+00  0.00000000000E+00  0.45593999997E+02  0.45594000000E+02  0.51100000000E-03 0. -1.
         11   -1    0    0    0    0 -0.00000000000E+00 -0.00000000000E+00 -0.45593999997E+02  0.45594000000E+02  0.51100000000E-03 0.  1.
    9900012    2    1    2    0    0  0.10908599664E+01 -0.32586605961E+00  0.31115665786E+00  0.90007753153E+02  0.90000014694E+02 0.  0.
        -12    1    1    2    0    0 -0.10908599664E+01  0.32586605961E+00 -0.31115665786E+00  0.11802468474E+01  0.00000000000E+00 0.  1.
         11    1    3    3    0    0 -0.19558945159E+02  0.21886434480E+00  0.19174667644E+02  0.27391022559E+02  0.51100000000E-03 0. -1.
        -11    1    3    3    0    0 -0.80332240947E+01 -0.21219818305E+02 -0.32093462158E+00  0.22691768938E+02  0.51100000000E-03 0.  1.
        -12    1    3    3    0    0  0.28683029220E+02  0.20675087901E+02 -0.18542576365E+02  0.39924961655E+02  0.00000000000E+00 0.  1.
</event>
<event>
 7    1  0.2578619E-015  0.9000787E+02  0.7816164E-02  0.1186339E+00
        -11   -1    0    0    0    0  0.00000000000E+00  0.00000000000E+00  0.45593999997E+02  0.45594000000E+02  0.51100000000E-03 0. -1.
         11   -1    0    0    0    0 -0.00000000000E+00 -0.00000000000E+00 -0.45593999997E+02  0.45594000000E+02  0.51100000000E-03 0.  1.
    9900012    2    1    2    0    0  0.74245477441E+00 -0.70415409132E+00  0.58790087691E+00  0.90007873093E+02  0.90000136217E+02 0.  0.
        -12    1    1    2    0    0 -0.74245477441E+00  0.70415409132E+00 -0.58790087691E+00  0.11801269073E+01  0.00000000000E+00 0.  1.
         11    1    3    3    0    0  0.11272533280E+02 -0.89731825500E+01 -0.18009703661E+02  0.23063768943E+02  0.51100000000E-03 0. -1.
        -11    1    3    3    0    0 -0.13867596098E+02  0.22609121579E+02 -0.14851347148E+02  0.30398110344E+02  0.51100000000E-03 0.  1.
         12    1    3    3    0    0  0.33375175917E+01 -0.14340093121E+02  0.33448951686E+02  0.36545993806E+02  0.00000000000E+00 0. -1.
</event>
<event>
 7    1  0.2578619E-015  0.9000764E+02  0.7816164E-02  0.1186339E+00
        -11   -1    0    0    0    0  0.00000000000E+00  0.00000000000E+00  0.45593999997E+02  0.45594000000E+02  0.51100000000E-03 0.  1.
         11   -1    0    0    0    0 -0.00000000000E+00 -0.00000000000E+00 -0.45593999997E+02  0.45594000000E+02  0.51100000000E-03 0. -1.
    9900012    2    1    2    0    0 -0.68341031917E+00  0.76030771993E+00  0.59002847786E+00  0.90007639420E+02  0.89999899461E+02 0.  0.
        -12    1    1    2    0    0  0.68341031917E+00 -0.76030771993E+00 -0.59002847786E+00  0.11803605797E+01  0.00000000000E+00 0.  1.
         11    1    3    3    0    0 -0.13644051354E+02  0.18226527162E+02 -0.33361149987E+02  0.40389760564E+02  0.51100000000E-03 0. -1.
        -11    1    3    3    0    0  0.82919353326E+01  0.76093229575E+00 -0.24172070132E+01  0.86705305215E+01  0.51100000000E-03 0.  1.
        -12    1    3    3    0    0  0.46687057026E+01 -0.18227151737E+02  0.36368385478E+02  0.40947348335E+02  0.00000000000E+00 0.  1.
</event>
<event>
 7    1  0.2578619E-015  0.9000781E+02  0.7816164E-02  0.1186339E+00
        -11   -1    0    0    0    0  0.00000000000E+00  0.00000000000E+00  0.45593999997E+02  0.45594000000E+02  0.51100000000E-03 0. -1.
         11   -1    0    0    0    0 -0.00000000000E+00 -0.00000000000E+00 -0.45593999997E+02  0.45594000000E+02  0.51100000000E-03 0.  1.
    9900012    2    1    2    0    0 -0.71156595505E+00 -0.35632163304E+00  0.87152539752E+00  0.90007810298E+02  0.90000072594E+02 0.  0.
        -12    1    1    2    0    0  0.71156595505E+00  0.35632163304E+00 -0.87152539752E+00  0.11801897022E+01  0.00000000000E+00 0.  1.
         11    1    3    3    0    0  0.21628456696E+02 -0.18719165087E+02  0.26392565495E+02  0.38919979371E+02  0.51100000000E-03 0. -1.
        -11    1    3    3    0    0 -0.24551097248E+01 -0.96189137272E+01 -0.59069486278E+01  0.11551757763E+02  0.51100000000E-03 0.  1.
        -12    1    3    3    0    0 -0.19884912927E+02  0.27981757181E+02 -0.19614091469E+02  0.39536073164E+02  0.00000000000E+00 0.  1.
</event>
<event>
 7    1  0.2578619E-015  0.9000755E+02  0.7816164E-02  0.1186339E+00
        -11   -1    0    0    0    0  0.00000000000E+00  0.00000000000E+00  0.45593999997E+02  0.45594000000E+02  0.51100000000E-03 0.  1.
         11   -1    0    0    0    0 -0.00000000000E+00 -0.00000000000E+00 -0.45593999997E+02  0.45594000000E+02  0.51100000000E-03 0. -1.
    9900012    2    1    2    0    0 -0.11530027972E+01 -0.17979740371E+00 -0.17812785394E+00  0.90007545812E+02  0.89999804617E+02 0.  0.
        -12    1    1    2    0    0  0.11530027972E+01  0.17979740371E+00  0.17812785394E+00  0.11804541876E+01  0.00000000000E+00 0.  1.
         11    1    3    3    0    0  0.10109069955E+02 -0.21931349826E+02  0.11244149786E+02  0.26638474154E+02  0.51100000000E-03 0. -1.
        -11    1    3    3    0    0  0.15930233546E+02 -0.11289513459E+02 -0.29480711539E+01  0.19746305446E+02  0.51100000000E-03 0.  1.
         12    1    3    3    0    0 -0.27192306299E+02  0.33041065882E+02 -0.84742064856E+01  0.43622766213E+02  0.00000000000E+00 0. -1.
</event>
<event>
 7    1  0.2578619E-015  0.9000776E+02  0.7816164E-02  0.1186339E+00
        -11   -1    0    0    0    0  0.00000000000E+00  0.00000000000E+00  0.45593999997E+02  0.45594000000E+02  0.51100000000E-03 0.  1.
         11   -1    0    0    0    0 -0.00000000000E+00 -0.00000000000E+00 -0.45593999997E+02  0.45594000000E+02  0.51100000000E-03 0. -1.
    9900012    2    1    2    0    0 -0.87154097830E+00 -0.22870381491E+00 -0.76228874919E+00  0.90007757123E+02  0.90000018717E+02 0.  0.
        -12    1    1    2    0    0  0.87154097830E+00  0.22870381491E+00  0.76228874919E+00  0.11802428771E+01  0.00000000000E+00 0.  1.
         11    1    3    3    0    0 -0.44883299178E+01  0.40720152325E+01  0.88215369382E+01  0.10702613126E+02  0.51100000000E-03 0. -1.
        -11    1    3    3    0    0 -0.52201381387E+01  0.32023556437E+02  0.13747182044E+02  0.35238374302E+02  0.51100000000E-03 0.  1.
         12    1    3    3    0    0  0.88369270782E+01 -0.36324275484E+02 -0.23331007731E+02  0.44066769695E+02  0.00000000000E+00 0. -1.
</event>
<event>
 7    1  0.2578619E-015  0.9000771E+02  0.7816164E-02  0.1186339E+00
        -11   -1    0    0    0    0  0.00000000000E+00  0.00000000000E+00  0.45593999997E+02  0.45594000000E+02  0.51100000000E-03 0.  1.
         11   -1    0    0    0    0 -0.00000000000E+00 -0.00000000000E+00 -0.45593999997E+02  0.45594000000E+02  0.51100000000E-03 0. -1.
    9900012    2    1    2    0    0 -0.39576698876E+00  0.12739846367E+00 -0.11046343533E+01  0.90007712352E+02  0.89999973355E+02 0.  0.
        -12    1    1    2    0    0  0.39576698876E+00 -0.12739846367E+00  0.11046343533E+01  0.11802876482E+01  0.00000000000E+00 0.  1.
         11    1    3    3    0    0 -0.25492462335E+02 -0.16913560309E+02 -0.22985120025E+02  0.38265518434E+02  0.51100000000E-03 0. -1.
        -11    1    3    3    0    0  0.17217736843E+01 -0.67826431895E+01 -0.52355216782E+01  0.87395332118E+01  0.51100000000E-03 0.  1.
        -12    1    3    3    0    0  0.23374921662E+02  0.23823601962E+02  0.27116007350E+02  0.43002660706E+02  0.00000000000E+00 0.  1.
</event>
<event>
 7    1  0.2578619E-015  0.9000773E+02  0.7816164E-02  0.1186339E+00
        -11   -1    0    0    0    0  0.00000000000E+00  0.00000000000E+00  0.45593999997E+02  0.45594000000E+02  0.51100000000E-03 0.  1.
         11   -1    0    0    0    0 -0.00000000000E+00 -0.00000000000E+00 -0.45593999997E+02  0.45594000000E+02  0.51100000000E-03 0. -1.
    9900012    2    1    2    0    0  0.44970025074E+00  0.10002327421E+01 -0.43627428094E+00  0.90007732614E+02  0.89999993885E+02 0.  0.
        -12    1    1    2    0    0 -0.44970025074E+00 -0.10002327421E+01  0.43627428094E+00  0.11802673858E+01  0.00000000000E+00 0.  1.
         11    1    3    3    0    0  0.41443637739E+01  0.74664497209E+01  0.33881482014E+01  0.91871198436E+01  0.51100000000E-03 0. -1.
        -11    1    3    3    0    0  0.18989002824E+02 -0.16065284349E+02  0.30005115119E+02  0.38974126328E+02  0.51100000000E-03 0.  1.
         12    1    3    3    0    0 -0.22683666347E+02  0.95990673697E+01 -0.33829537601E+02  0.41846486443E+02  0.00000000000E+00 0. -1.
</event>
<event>
 7    1  0.2578619E-015  0.9000753E+02  0.7816164E-02  0.1186339E+00
        -11   -1    0    0    0    0  0.00000000000E+00  0.00000000000E+00  0.45593999997E+02  0.45594000000E+02  0.51100000000E-03 0.  1.
         11   -1    0    0    0    0 -0.00000000000E+00 -0.00000000000E+00 -0.45593999997E+02  0.45594000000E+02  0.51100000000E-03 0. -1.
    9900012    2    1    2    0    0 -0.65692115367E-01  0.11731303032E+01  0.11379122499E+00  0.90007534581E+02  0.89999793237E+02 0.  0.
        -12    1    1    2    0    0  0.65692115367E-01 -0.11731303032E+01 -0.11379122499E+00  0.11804654189E+01  0.00000000000E+00 0.  1.
         11    1    3    3    0    0 -0.21590584100E+02  0.69274773231E+01 -0.30176495644E+02  0.37746048183E+02  0.51100000000E-03 0. -1.
        -11    1    3    3    0    0 -0.27396653941E+01  0.85400824341E+01 -0.22302464129E+01  0.92419031468E+01  0.51100000000E-03 0.  1.
        -12    1    3    3    0    0  0.24264557379E+02 -0.14294429454E+02  0.32520533281E+02  0.43019583251E+02  0.00000000000E+00 0.  1.
</event>
<event>
 7    1  0.2578619E-015  0.9000770E+02  0.7816164E-02  0.1186339E+00
        -11   -1    0    0    0    0  0.00000000000E+00  0.00000000000E+00  0.45593999997E+02  0.45594000000E+02  0.51100000000E-03 0. -1.
         11   -1    0    0    0    0 -0.00000000000E+00 -0.00000000000E+00 -0.45593999997E+02  0.45594000000E+02  0.51100000000E-03 0.  1.
    9900012    2    1    2    0    0 -0.33378180798E+00  0.10653714569E+01  0.38298343366E+00  0.90007702179E+02  0.89999963047E+02 0.  0.
        -12    1    1    2    0    0  0.33378180798E+00 -0.10653714569E+01 -0.38298343366E+00  0.11802978213E+01  0.00000000000E+00 0.  1.
         11    1    3    3    0    0 -0.18148110940E+02  0.19440497763E+02  0.26148881308E+02  0.37296794472E+02  0.51100000000E-03 0. -1.
        -11    1    3    3    0    0 -0.70118753685E+01  0.24962270832E+01  0.42059252861E+01  0.85491142001E+01  0.51100000000E-03 0.  1.
        -12    1    3    3    0    0  0.24826204501E+02 -0.20871353389E+02 -0.29971823160E+02  0.44161793507E+02  0.00000000000E+00 0.  1.
</event>
<event>
 7    1  0.2578619E-015  0.9000776E+02  0.7816164E-02  0.1186339E+00
        -11   -1    0    0    0    0  0.00000000000E+00  0.00000000000E+00  0.45593999997E+02  0.45594000000E+02  0.51100000000E-03 0. -1.
         11   -1    0    0    0    0 -0.00000000000E+00 -0.00000000000E+00 -0.45593999997E+02  0.45594000000E+02  0.51100000000E-03 0.  1.
    9900012    2    1    2    0    0  0.88225436226E+00  0.18273256147E+00  0.76236104024E+00  0.90007763454E+02  0.90000025132E+02 0.  0.
        -12    1    1    2    0    0 -0.88225436226E+00 -0.18273256147E+00 -0.76236104024E+00  0.11802365460E+01  0.00000000000E+00 0.  1.
         11    1    3    3    0    0  0.80103346044E+00 -0.17181790065E+01  0.98883031712E+01  0.10068382868E+02  0.51100000000E-03 0. -1.
        -11    1    3    3    0    0 -0.24496816893E+02 -0.29569355680E+02  0.21150131250E+01  0.38456652403E+02  0.51100000000E-03 0.  1.
         12    1    3    3    0    0  0.24578037795E+02  0.31470267248E+02 -0.11240955256E+02  0.41482728184E+02  0.00000000000E+00 0. -1.
</event>
<event>
 7    1  0.2578619E-015  0.9000764E+02  0.7816164E-02  0.1186339E+00
        -11   -1    0    0    0    0  0.00000000000E+00  0.00000000000E+00  0.45593999997E+02  0.45594000000E+02  0.51100000000E-03 0. -1.
         11   -1    0    0    0    0 -0.00000000000E+00 -0.00000000000E+00 -0.45593999997E+02  0.45594000000E+02  0.51100000000E-03 0.  1.
    9900012    2    1    2    0    0  0.11693624032E+01 -0.48059715359E-01  0.15336676883E+00  0.90007644320E+02  0.89999904425E+02 0.  0.
        -12    1    1    2    0    0 -0.11693624032E+01  0.48059715359E-01 -0.15336676883E+00  0.11803556803E+01  0.00000000000E+00 0.  1.
         11    1    3    3    0    0  0.37246506781E+02 -0.52721853767E+00  0.13994726259E+02  0.39792368491E+02  0.51100000000E-03 0. -1.
        -11    1    3    3    0    0  0.17047240854E+01  0.77177851995E+01 -0.81050987552E+01  0.11320906266E+02  0.51100000000E-03 0.  1.
        -12    1    3    3    0    0 -0.37781868464E+02 -0.72386263772E+01 -0.57362607351E+01  0.38894369562E+02  0.00000000000E+00 0.  1.
</event>
<event>
 7    1  0.2578619E-015  0.9000745E+02  0.7816164E-02  0.1186340E+00
        -11   -1    0    0    0    0  0.00000000000E+00  0.00000000000E+00  0.45593999997E+02  0.45594000000E+02  0.51100000000E-03 0.  1.
         11   -1    0    0    0    0 -0.00000000000E+00 -0.00000000000E+00 -0.45593999997E+02  0.45594000000E+02  0.51100000000E-03 0. -1.
    9900012    2    1    2    0    0 -0.39681392887E+00  0.59257613332E+00 -0.94079581673E+00  0.90007447360E+02  0.89999704864E+02 0.  0.
        -12    1    1    2    0    0  0.39681392887E+00 -0.59257613332E+00  0.94079581673E+00  0.11805526404E+01  0.00000000000E+00 0.  1.
         11    1    3    3    0    0  0.28899930037E+02 -0.43320723166E+01 -0.23261264798E+02  0.37350491924E+02  0.51100000000E-03 0. -1.
        -11    1    3    3    0    0 -0.97062493538E+00 -0.35035462578E+01 -0.89322454527E+01  0.96437522902E+01  0.51100000000E-03 0.  1.
        -12    1    3    3    0    0 -0.28326119031E+02  0.84281947078E+01  0.31252714434E+02  0.43013203146E+02  0.00000000000E+00 0.  1.
</event>
<event>
 7    1  0.2578619E-015  0.9000760E+02  0.7816164E-02  0.1186339E+00
        -11   -1    0    0    0    0  0.00000000000E+00  0.00000000000E+00  0.45593999997E+02  0.45594000000E+02  0.51100000000E-03 0.  1.
         11   -1    0    0    0    0 -0.00000000000E+00 -0.00000000000E+00 -0.45593999997E+02  0.45594000000E+02  0.51100000000E-03 0. -1.
    9900012    2    1    2    0    0 -0.60105118209E+00 -0.10042699358E+01  0.15334122028E+00  0.90007604237E+02  0.89999863813E+02 0.  0.
        -12    1    1    2    0    0  0.60105118209E+00  0.10042699358E+01 -0.15334122028E+00  0.11803957630E+01  0.00000000000E+00 0.  1.
         11    1    3    3    0    0 -0.17423219666E+02 -0.16863629412E+02 -0.97194992824E+01  0.26123155381E+02  0.51100000000E-03 0. -1.
        -11    1    3    3    0    0 -0.14342627295E+02 -0.13924247330E+02  0.38575759606E+01  0.20358696274E+02  0.51100000000E-03 0.  1.
         12    1    3    3    0    0  0.31164795779E+02  0.29783606806E+02  0.60152645420E+01  0.43525752582E+02  0.00000000000E+00 0. -1.
</event>
<event>
 7    1  0.2578619E-015  0.9000773E+02  0.7816164E-02  0.1186339E+00
        -11   -1    0    0    0    0  0.00000000000E+00  0.00000000000E+00  0.45593999997E+02  0.45594000000E+02  0.51100000000E-03 0.  1.
         11   -1    0    0    0    0 -0.00000000000E+00 -0.00000000000E+00 -0.45593999997E+02  0.45594000000E+02  0.51100000000E-03 0. -1.
    9900012    2    1    2    0    0  0.10669471953E+01  0.43345196857E+00  0.25841811455E+00  0.90007730180E+02  0.89999991418E+02 0.  0.
        -12    1    1    2    0    0 -0.10669471953E+01 -0.43345196857E+00 -0.25841811455E+00  0.11802698202E+01  0.00000000000E+00 0.  1.
         11    1    3    3    0    0 -0.20290660596E+02 -0.25763200144E+01  0.88665500428E+01  0.22292690331E+02  0.51100000000E-03 0. -1.
        -11    1    3    3    0    0 -0.86202122706E+01 -0.74888831179E+01 -0.28180376314E+02  0.30406003345E+02  0.51100000000E-03 0.  1.
        -12    1    3    3    0    0  0.29977820062E+02  0.10498655101E+02  0.19572244386E+02  0.37309036505E+02  0.00000000000E+00 0.  1.
</event>
<event>
 7    1  0.2578619E-015  0.9000778E+02  0.7816164E-02  0.1186339E+00
        -11   -1    0    0    0    0  0.00000000000E+00  0.00000000000E+00  0.45593999997E+02  0.45594000000E+02  0.51100000000E-03 0. -1.
         11   -1    0    0    0    0 -0.00000000000E+00 -0.00000000000E+00 -0.45593999997E+02  0.45594000000E+02  0.51100000000E-03 0.  1.
    9900012    2    1    2    0    0  0.67352490821E+00  0.61787985736E+00  0.74665898687E+00  0.90007783510E+02  0.90000045453E+02 0.  0.
        -12    1    1    2    0    0 -0.67352490821E+00 -0.61787985736E+00 -0.74665898687E+00  0.11802164898E+01  0.00000000000E+00 0.  1.
         11    1    3    3    0    0  0.52252971231E+01 -0.37874526982E+02 -0.20774260621E+01  0.38289675155E+02  0.51100000000E-03 0. -1.
        -11    1    3    3    0    0  0.53842278435E+01 -0.38317541506E+01  0.48482521701E+01  0.81962063607E+01  0.51100000000E-03 0.  1.
        -12    1    3    3    0    0 -0.99360000584E+01  0.42324160990E+02 -0.20241671211E+01  0.43521901995E+02  0.00000000000E+00 0.  1.
</event>
<event>
 7    1  0.2578619E-015  0.9000766E+02  0.7816164E-02  0.1186339E+00
        -11   -1    0    0    0    0  0.00000000000E+00  0.00000000000E+00  0.45593999997E+02  0.45594000000E+02  0.51100000000E-03 0.  1.
         11   -1    0    0    0    0 -0.00000000000E+00 -0.00000000000E+00 -0.45593999997E+02  0.45594000000E+02  0.51100000000E-03 0. -1.
    9900012    2    1    2    0    0  0.89977794142E+00  0.74463757034E-02 -0.76390651421E+00  0.90007657272E+02  0.89999917548E+02 0.  0.
        -12    1    1    2    0    0 -0.89977794142E+00 -0.74463757034E-02  0.76390651421E+00  0.11803427277E+01  0.00000000000E+00 0.  1.
         11    1    3    3    0    0  0.78557737595E+01  0.32198525812E+02  0.20986544259E+02  0.39228730364E+02  0.51100000000E-03 0. -1.
        -11    1    3    3    0    0  0.10476403497E+02 -0.16702876531E+01 -0.66749898990E+01  0.12533969103E+02  0.51100000000E-03 0.  1.
        -12    1    3    3    0    0 -0.17432399315E+02 -0.30520791783E+02 -0.15075460874E+02  0.38244957805E+02  0.00000000000E+00 0.  1.
</event>
<event>
 7    1  0.2578619E-015  0.9000784E+02  0.7816164E-02  0.1186339E+00
        -11   -1    0    0    0    0  0.00000000000E+00  0.00000000000E+00  0.45593999997E+02  0.45594000000E+02  0.51100000000E-03 0.  1.
         11   -1    0    0    0    0 -0.00000000000E+00 -0.00000000000E+00 -0.45593999997E+02  0.45594000000E+02  0.51100000000E-03 0. -1.
    9900012    2    1    2    0    0  0.95234618294E+00 -0.50930108948E+00 -0.47584374362E+00  0.90007839790E+02  0.90000102476E+02 0.  0.
        -12    1    1    2    0    0 -0.95234618294E+00  0.50930108948E+00  0.47584374362E+00  0.11801602096E+01  0.00000000000E+00 0.  1.
         11    1    3    3    0    0 -0.82087762918E+01  0.33372365145E+00  0.41145630573E+01  0.91883082827E+01  0.51100000000E-03 0. -1.
        -11    1    3    3    0    0  0.30588204993E+02  0.30149557828E+02 -0.87118664707E+00  0.42958038693E+02  0.51100000000E-03 0.  1.
         12    1    3    3    0    0 -0.21427082518E+02 -0.30992582569E+02 -0.37192201539E+01  0.37861492814E+02  0.00000000000E+00 0. -1.
</event>
<event>
 7    1  0.2984435E-015  0.9000769E+02  0.7816164E-02  0.1186339E+00
        -11   -1    0    0    0    0  0.00000000000E+00  0.00000000000E+00  0.45593999997E+02  0.45594000000E+02  0.51100000000E-03 0. -1.
         11   -1    0    0    0    0 -0.00000000000E+00 -0.00000000000E+00 -0.45593999997E+02  0.45594000000E+02  0.51100000000E-03 0.  1.
    9900012    2    1    2    0    0 -0.14398813031E+00  0.78025244830E+00  0.87384656685E+00  0.90007688902E+02  0.89999949596E+02 0.  0.
        -12    1    1    2    0    0  0.14398813031E+00 -0.78025244830E+00 -0.87384656685E+00  0.11803110976E+01  0.00000000000E+00 0.  1.
         11    1    3    3    0    0 -0.21469362283E+01  0.87233573031E+01  0.44617728666E+01  0.10030638822E+02  0.51100000000E-03 0. -1.
        -11    1    3    3    0    0  0.17212659528E+02  0.26762395801E+01 -0.37485786769E+02  0.41335482534E+02  0.51100000000E-03 0.  1.
         12    1    3    3    0    0 -0.15209711430E+02 -0.10619344435E+02  0.33897860470E+02  0.38641567546E+02  0.00000000000E+00 0. -1.
</event>
<event>
 7    1  0.2578619E-015  0.9000773E+02  0.7816164E-02  0.1186339E+00
        -11   -1    0    0    0    0  0.00000000000E+00  0.00000000000E+00  0.45593999997E+02  0.45594000000E+02  0.51100000000E-03 0.  1.
         11   -1    0    0    0    0 -0.00000000000E+00 -0.00000000000E+00 -0.45593999997E+02  0.45594000000E+02  0.51100000000E-03 0. -1.
    9900012    2    1    2    0    0 -0.24175400467E+00  0.11392756288E+01  0.19143920354E+00  0.90007727605E+02  0.89999988810E+02 0.  0.
        -12    1    1    2    0    0  0.24175400467E+00 -0.11392756288E+01 -0.19143920354E+00  0.11802723947E+01  0.00000000000E+00 0.  1.
         11    1    3    3    0    0 -0.60183141479E+01  0.16875310833E+01  0.80939384437E+01  0.10226421961E+02  0.51100000000E-03 0. -1.
        -11    1    3    3    0    0 -0.31826091680E+02 -0.28252255135E+00  0.15592101756E+02  0.35441410357E+02  0.51100000000E-03 0.  1.
         12    1    3    3    0    0  0.37602651823E+02 -0.26573290315E+00 -0.23494600996E+02  0.44339895287E+02  0.00000000000E+00 0. -1.
</event>
<event>
 7    1  0.2578619E-015  0.9000776E+02  0.7816164E-02  0.1186339E+00
        -11   -1    0    0    0    0  0.00000000000E+00  0.00000000000E+00  0.45593999997E+02  0.45594000000E+02  0.51100000000E-03 0.  1.
         11   -1    0    0    0    0 -0.00000000000E+00 -0.00000000000E+00 -0.45593999997E+02  0.45594000000E+02  0.51100000000E-03 0. -1.
    9900012    2    1    2    0    0  0.65578850544E-01  0.30872830210E-01 -0.11780081103E+01  0.90007764081E+02  0.90000025767E+02 0.  0.
        -12    1    1    2    0    0 -0.65578850544E-01 -0.30872830210E-01  0.11780081103E+01  0.11802359193E+01  0.00000000000E+00 0.  1.
         11    1    3    3    0    0  0.49806773077E+01 -0.31336283493E+02 -0.17288868590E+02  0.36134122197E+02  0.51100000000E-03 0. -1.
        -11    1    3    3    0    0  0.16436086798E+02  0.88250918411E+01 -0.49738295801E+00  0.18662116313E+02  0.51100000000E-03 0.  1.
        -12    1    3    3    0    0 -0.21351185255E+02  0.22542064482E+02  0.16608243438E+02  0.35211525570E+02  0.00000000000E+00 0.  1.
</event>
<event>
 7    1  0.2578619E-015  0.9000797E+02  0.7816164E-02  0.1186339E+00
        -11   -1    0    0    0    0  0.00000000000E+00  0.00000000000E+00  0.45593999997E+02  0.45594000000E+02  0.51100000000E-03 0.  1.
         11   -1    0    0    0    0 -0.00000000000E+00 -0.00000000000E+00 -0.45593999997E+02  0.45594000000E+02  0.51100000000E-03 0. -1.
    9900012    2    1    2    0    0 -0.15019453571E+00 -0.88895081564E-01 -0.11670535607E+01  0.90007968328E+02  0.90000232709E+02 0.  0.
        -12    1    1    2    0    0  0.15019453571E+00  0.88895081564E-01  0.11670535607E+01  0.11800316723E+01  0.00000000000E+00 0.  1.
         11    1    3    3    0    0  0.75397498248E+00 -0.11538915966E+01  0.10314845399E+02  0.10406535444E+02  0.51100000000E-03 0. -1.
        -11    1    3    3    0    0  0.23894638246E+02  0.17282120254E+01  0.25552055116E+02  0.35026389689E+02  0.51100000000E-03 0.  1.
         12    1    3    3    0    0 -0.24798807764E+02 -0.66321551040E+00 -0.37033954076E+02  0.44575043195E+02  0.00000000000E+00 0. -1.
</event>
<event>
 7    1  0.3580766E-015  0.9000772E+02  0.7816164E-02  0.1186339E+00
        -11   -1    0    0    0    0  0.00000000000E+00  0.00000000000E+00  0.45593999997E+02  0.45594000000E+02  0.51100000000E-03 0. -1.
         11   -1    0    0    0    0 -0.00000000000E+00 -0.00000000000E+00 -0.45593999997E+02  0.45594000000E+02  0.51100000000E-03 0.  1.
    9900012    2    1    2    0    0  0.44924152388E+00  0.53349315145E+00  0.95217612220E+00  0.90007715180E+02  0.89999976220E+02 0.  0.
        -12    1    1    2    0    0 -0.44924152388E+00 -0.53349315145E+00 -0.95217612220E+00  0.11802848203E+01  0.00000000000E+00 0.  1.
         11    1    3    3    0    0 -0.13869815588E+01  0.89961528219E+01  0.27437797917E+00  0.91065782254E+01  0.51100000000E-03 0. -1.
        -11    1    3    3    0    0  0.85668535089E+01 -0.23744946932E+02 -0.34038631896E+02  0.42377375396E+02  0.51100000000E-03 0.  1.
         12    1    3    3    0    0 -0.67306304262E+01  0.15282287262E+02  0.34716430039E+02  0.38523761558E+02  0.00000000000E+00 0. -1.
</event>
<event>
 7    1  0.2578619E-015  0.9000768E+02  0.7816164E-02  0.1186339E+00
        -11   -1    0    0    0    0  0.00000000000E+00  0.00000000000E+00  0.45593999997E+02  0.45594000000E+02  0.51100000000E-03 0.  1.
         11   -1    0    0    0    0 -0.00000000000E+00 -0.00000000000E+00 -0.45593999997E+02  0.45594000000E+02  0.51100000000E-03 0. -1.
    9900012    2    1    2    0    0 -0.18214499366E+00 -0.12961079272E+00 -0.11589524689E+01  0.90007683694E+02  0.89999944319E+02 0.  0.
        -12    1    1    2    0    0  0.18214499366E+00  0.12961079272E+00  0.11589524689E+01  0.11803163057E+01  0.00000000000E+00 0.  1.
         11    1    3    3    0    0  0.95688071216E+01  0.40652068974E+02 -0.11209233885E+02  0.43241180674E+02  0.51100000000E-03 0. -1.
        -11    1    3    3    0    0  0.24372411571E+01 -0.59495014971E+01  0.73494412796E+01  0.97647836589E+01  0.51100000000E-03 0.  1.
        -12    1    3    3    0    0 -0.12188193272E+02 -0.34832178269E+02  0.27008401365E+01  0.37001719361E+02  0.00000000000E+00 0.  1.
</event>
<event>
 7    1  0.2578619E-015  0.9000772E+02  0.7816164E-02  0.1186339E+00
        -11   -1    0    0    0    0  0.00000000000E+00  0.00000000000E+00  0.45593999997E+02  0.45594000000E+02  0.51100000000E-03 0. -1.
         11   -1    0    0    0    0 -0.00000000000E+00 -0.00000000000E+00 -0.45593999997E+02  0.45594000000E+02  0.51100000000E-03 0.  1.
    9900012    2    1    2    0    0 -0.11608912091E+01 -0.21113207913E+00 -0.28666867539E-01  0.90007717431E+02  0.89999978501E+02 0.  0.
        -12    1    1    2    0    0  0.11608912091E+01  0.21113207913E+00  0.28666867539E-01  0.11802825693E+01  0.00000000000E+00 0.  1.
         11    1    3    3    0    0 -0.26524388704E+02  0.14776458993E+02  0.24029967530E+02  0.38721134749E+02  0.51100000000E-03 0. -1.
        -11    1    3    3    0    0 -0.79181883186E+01  0.14349534876E+01 -0.28246293580E+01  0.85285009839E+01  0.51100000000E-03 0.  1.
        -12    1    3    3    0    0  0.33281685814E+02 -0.16422544560E+02 -0.21234005040E+02  0.42758081698E+02  0.00000000000E+00 0.  1.
</event>
<event>
 7    1  0.2578619E-015  0.9000764E+02  0.7816164E-02  0.1186339E+00
        -11   -1    0    0    0    0  0.00000000000E+00  0.00000000000E+00  0.45593999997E+02  0.45594000000E+02  0.51100000000E-03 0.  1.
         11   -1    0    0    0    0 -0.00000000000E+00 -0.00000000000E+00 -0.45593999997E+02  0.45594000000E+02  0.51100000000E-03 0. -1.
    9900012    2    1    2    0    0  0.92145900735E+00  0.71754898920E+00  0.17111886001E+00  0.90007642038E+02  0.89999902113E+02 0.  0.
        -12    1    1    2    0    0 -0.92145900735E+00 -0.71754898920E+00 -0.17111886001E+00  0.11803579620E+01  0.00000000000E+00 0.  1.
         11    1    3    3    0    0  0.54989308826E+01  0.34514684770E+01  0.65297062734E+01  0.92080366950E+01  0.51100000000E-03 0. -1.
        -11    1    3    3    0    0  0.11927630288E+02  0.43487152826E+01  0.34179359924E+02  0.36461052288E+02  0.51100000000E-03 0.  1.
         12    1    3    3    0    0 -0.16505102163E+02 -0.70826347704E+01 -0.40537947337E+02  0.44338553055E+02  0.00000000000E+00 0. -1.
</event>
<event>
 7    1  0.2578619E-015  0.9000775E+02  0.7816164E-02  0.1186339E+00
        -11   -1    0    0    0    0  0.00000000000E+00  0.00000000000E+00  0.45593999997E+02  0.45594000000E+02  0.51100000000E-03 0. -1.
         11   -1    0    0    0    0 -0.00000000000E+00 -0.00000000000E+00 -0.45593999997E+02  0.45594000000E+02  0.51100000000E-03 0.  1.
    9900012    2    1    2    0    0  0.11588840439E+01  0.13170811914E-01  0.22319470931E+00  0.90007745123E+02  0.90000006558E+02 0.  0.
        -12    1    1    2    0    0 -0.11588840439E+01 -0.13170811914E-01 -0.22319470931E+00  0.11802548774E+01  0.00000000000E+00 0.  1.
         11    1    3    3    0    0  0.56186654002E+00  0.19153100067E+02  0.35418074593E+02  0.40269056909E+02  0.51100000000E-03 0. -1.
        -11    1    3    3    0    0  0.66319003768E+01  0.58851557009E+01 -0.54776789601E+01  0.10422193976E+02  0.51100000000E-03 0.  1.
        -12    1    3    3    0    0 -0.60348828730E+01 -0.25025084956E+02 -0.29717200924E+02  0.39316494237E+02  0.00000000000E+00 0.  1.
</event>
<event>
 7    1  0.2578619E-015  0.9000773E+02  0.7816164E-02  0.1186339E+00
        -11   -1    0    0    0    0  0.00000000000E+00  0.00000000000E+00  0.45593999997E+02  0.45594000000E+02  0.51100000000E-03 0. -1.
         11   -1    0    0    0    0 -0.00000000000E+00 -0.00000000000E+00 -0.45593999997E+02  0.45594000000E+02  0.51100000000E-03 0.  1.
    9900012    2    1    2    0    0 -0.28989975061E-01  0.68676673222E+00  0.95944619763E+00  0.90007734789E+02  0.89999996088E+02 0.  0.
        -12    1    1    2    0    0  0.28989975061E-01 -0.68676673222E+00 -0.95944619763E+00  0.11802652114E+01  0.00000000000E+00 0.  1.
         11    1    3    3    0    0 -0.25451341092E+01  0.53472841139E+01 -0.42885864280E+01  0.73118485242E+01  0.51100000000E-03 0. -1.
        -11    1    3    3    0    0 -0.13131112317E+02  0.13722783258E+02 -0.32643909838E+02  0.37767257523E+02  0.51100000000E-03 0.  1.
         12    1    3    3    0    0  0.15647256451E+02 -0.18383300640E+02  0.37891942464E+02  0.44928628741E+02  0.00000000000E+00 0. -1.
</event>
<event>
 7    1  0.2578619E-015  0.9000781E+02  0.7816164E-02  0.1186339E+00
        -11   -1    0    0    0    0  0.00000000000E+00  0.00000000000E+00  0.45593999997E+02  0.45594000000E+02  0.51100000000E-03 0. -1.
         11   -1    0    0    0    0 -0.00000000000E+00 -0.00000000000E+00 -0.45593999997E+02  0.45594000000E+02  0.51100000000E-03 0.  1.
    9900012    2    1    2    0    0  0.54246492187E+00 -0.10399713081E+01 -0.13049892636E+00  0.90007814217E+02  0.90000076564E+02 0.  0.
        -12    1    1    2    0    0 -0.54246492187E+00  0.10399713081E+01  0.13049892636E+00  0.11801857832E+01  0.00000000000E+00 0.  1.
         11    1    3    3    0    0 -0.10415919771E+02 -0.93932400726E+01  0.37134211002E+02  0.39694759991E+02  0.51100000000E-03 0. -1.
        -11    1    3    3    0    0 -0.65823311121E+01 -0.87622171457E+00  0.14704899206E+01  0.68012637230E+01  0.51100000000E-03 0.  1.
        -12    1    3    3    0    0  0.17540715805E+02  0.92294904790E+01 -0.38735199849E+02  0.43511790503E+02  0.00000000000E+00 0.  1.
</event>
<event>
 7    1  0.2578619E-015  0.9000769E+02  0.7816164E-02  0.1186339E+00
        -11   -1    0    0    0    0  0.00000000000E+00  0.00000000000E+00  0.45593999997E+02  0.45594000000E+02  0.51100000000E-03 0. -1.
         11   -1    0    0    0    0 -0.00000000000E+00 -0.00000000000E+00 -0.45593999997E+02  0.45594000000E+02  0.51100000000E-03 0.  1.
    9900012    2    1    2    0    0  0.30622320458E+00  0.87202074076E+00  0.73412064573E+00  0.90007692436E+02  0.89999953176E+02 0.  0.
        -12    1    1    2    0    0 -0.30622320458E+00 -0.87202074076E+00 -0.73412064573E+00  0.11803075641E+01  0.00000000000E+00 0.  1.
         11    1    3    3    0    0  0.21302490755E+02  0.31559938738E+02  0.16775549367E+02  0.41608231185E+02  0.51100000000E-03 0. -1.
        -11    1    3    3    0    0 -0.34892136225E+01  0.21031135104E+01 -0.99238300315E+01  0.10727539368E+02  0.51100000000E-03 0.  1.
        -12    1    3    3    0    0 -0.17507053928E+02 -0.32791031508E+02 -0.61175986897E+01  0.37671921883E+02  0.00000000000E+00 0.  1.
</event>
<event>
 7    1  0.2578619E-015  0.9000772E+02  0.7816164E-02  0.1186339E+00
        -11   -1    0    0    0    0  0.00000000000E+00  0.00000000000E+00  0.45593999997E+02  0.45594000000E+02  0.51100000000E-03 0.  1.
         11   -1    0    0    0    0 -0.00000000000E+00 -0.00000000000E+00 -0.45593999997E+02  0.45594000000E+02  0.51100000000E-03 0. -1.
    9900012    2    1    2    0    0  0.37146628180E+00  0.52515324622E+00 -0.98958718765E+00  0.90007722095E+02  0.89999983227E+02 0.  0.
        -12    1    1    2    0    0 -0.37146628180E+00 -0.52515324622E+00  0.98958718765E+00  0.11802779048E+01  0.00000000000E+00 0.  1.
         11    1    3    3    0    0 -0.27355847333E+02 -0.23595473860E+02 -0.14145519034E+02  0.38796707064E+02  0.51100000000E-03 0. -1.
        -11    1    3    3    0    0 -0.76798844595E+01  0.56832772502E+01  0.19943913752E+01  0.97600134647E+01  0.51100000000E-03 0.  1.
        -12    1    3    3    0    0  0.35407198075E+02  0.18437349856E+02  0.11161540471E+02  0.41451001567E+02  0.00000000000E+00 0.  1.
</event>
<event>
 7    1  0.2578619E-015  0.9000712E+02  0.7816164E-02  0.1186340E+00
        -11   -1    0    0    0    0  0.00000000000E+00  0.00000000000E+00  0.45593999997E+02  0.45594000000E+02  0.51100000000E-03 0.  1.
         11   -1    0    0    0    0 -0.00000000000E+00 -0.00000000000E+00 -0.45593999997E+02  0.45594000000E+02  0.51100000000E-03 0. -1.
    9900012    2    1    2    0    0  0.20815424388E-01  0.11693149542E+01  0.16354520693E+00  0.90007119914E+02  0.89999373094E+02 0.  0.
        -12    1    1    2    0    0 -0.20815424388E-01 -0.11693149542E+01 -0.16354520693E+00  0.11808800865E+01  0.00000000000E+00 0.  1.
         11    1    3    3    0    0  0.23393779336E+01 -0.42878395006E+01 -0.11903183848E+02  0.12866391984E+02  0.51100000000E-03 0. -1.
        -11    1    3    3    0    0  0.21930318506E+02 -0.25973298699E+02  0.15368948468E+02  0.37306242003E+02  0.51100000000E-03 0.  1.
         12    1    3    3    0    0 -0.24248881015E+02  0.31430453154E+02 -0.33022194127E+01  0.39834485926E+02  0.00000000000E+00 0. -1.
</event>
<event>
 7    1  0.2578619E-015  0.9000767E+02  0.7816164E-02  0.1186339E+00
        -11   -1    0    0    0    0  0.00000000000E+00  0.00000000000E+00  0.45593999997E+02  0.45594000000E+02  0.51100000000E-03 0.  1.
         11   -1    0    0    0    0 -0.00000000000E+00 -0.00000000000E+00 -0.45593999997E+02  0.45594000000E+02  0.51100000000E-03 0. -1.
    9900012    2    1    2    0    0  0.54660923928E-01  0.56852655794E+00 -0.10329390610E+01  0.90007672347E+02  0.89999932822E+02 0.  0.
        -12    1    1    2    0    0 -0.54660923928E-01 -0.56852655794E+00  0.10329390610E+01  0.11803276526E+01  0.00000000000E+00 0.  1.
         11    1    3    3    0    0 -0.45839721394E+01 -0.31686811967E+02 -0.15998540244E+02  0.35791341738E+02  0.51100000000E-03 0. -1.
        -11    1    3    3    0    0 -0.40980289141E+00 -0.93287326169E+01 -0.99220764373E+00  0.93902964233E+01  0.51100000000E-03 0.  1.
        -12    1    3    3    0    0  0.50484359548E+01  0.41584071142E+02  0.15957808826E+02  0.44826034186E+02  0.00000000000E+00 0.  1.
</event>
<event>
 7    1  0.2578619E-015  0.9000773E+02  0.7816164E-02  0.1186339E+00
        -11   -1    0    0    0    0  0.00000000000E+00  0.00000000000E+00  0.45593999997E+02  0.45594000000E+02  0.51100000000E-03 0.  1.
         11   -1    0    0    0    0 -0.00000000000E+00 -0.00000000000E+00 -0.45593999997E+02  0.45594000000E+02  0.51100000000E-03 0. -1.
    9900012    2    1    2    0    0  0.11545863230E+01 -0.17684901743E+00 -0.16939088197E+00  0.90007729513E+02  0.89999990742E+02 0.  0.
        -12    1    1    2    0    0 -0.11545863230E+01  0.17684901743E+00  0.16939088197E+00  0.11802704873E+01  0.00000000000E+00 0.  1.
         11    1    3    3    0    0  0.61257948916E+01  0.38765351211E+01 -0.85566522760E+01  0.11214686176E+02  0.51100000000E-03 0. -1.
        -11    1    3    3    0    0  0.27917438382E+02  0.20376184624E+02  0.14291304646E+02  0.37400717298E+02  0.51100000000E-03 0.  1.
         12    1    3    3    0    0 -0.32888646950E+02 -0.24429568763E+02 -0.59040432520E+01  0.41392326039E+02  0.00000000000E+00 0. -1.
</event>
<event>
 7    1  0.2578619E-015  0.9000778E+02  0.7816164E-02  0.1186339E+00
        -11   -1    0    0    0    0  0.00000000000E+00  0.00000000000E+00  0.45593999997E+02  0.45594000000E+02  0.51100000000E-03 0. -1.
         11   -1    0    0    0    0 -0.00000000000E+00 -0.00000000000E+00 -0.45593999997E+02  0.45594000000E+02  0.51100000000E-03 0.  1.
    9900012    2    1    2    0    0 -0.40685900561E+00 -0.10893598124E+01  0.20171437108E+00  0.90007776403E+02  0.90000038252E+02 0.  0.
        -12    1    1    2    0    0  0.40685900561E+00  0.10893598124E+01 -0.20171437108E+00  0.11802235970E+01  0.00000000000E+00 0.  1.
         11    1    3    3    0    0 -0.14307019074E+01  0.55183884273E+01  0.73764239859E+01  0.93226149692E+01  0.51100000000E-03 0. -1.
        -11    1    3    3    0    0  0.30516847083E+02  0.20130056553E+01 -0.29664909220E+02  0.42606771609E+02  0.51100000000E-03 0.  1.
         12    1    3    3    0    0 -0.29493004181E+02 -0.86207538950E+01  0.22490199605E+02  0.38078389825E+02  0.00000000000E+00 0. -1.
</event>
<event>
 7    1  0.2578619E-015  0.9000779E+02  0.7816164E-02  0.1186339E+00
        -11   -1    0    0    0    0  0.00000000000E+00  0.00000000000E+00  0.45593999997E+02  0.45594000000E+02  0.51100000000E-03 0.  1.
         11   -1    0    0    0    0 -0.00000000000E+00 -0.00000000000E+00 -0.45593999997E+02  0.45594000000E+02  0.51100000000E-03 0. -1.
    9900012    2    1    2    0    0  0.12735003020E+00 -0.81996710301E+00 -0.83924012380E+00  0.90007793211E+02  0.90000055281E+02 0.  0.
        -12    1    1    2    0    0 -0.12735003020E+00  0.81996710301E+00  0.83924012380E+00  0.11802067893E+01  0.00000000000E+00 0.  1.
         11    1    3    3    0    0  0.19293563140E+01  0.11616719675E+02 -0.23809069625E+00  0.11778254507E+02  0.51100000000E-03 0. -1.
        -11    1    3    3    0    0 -0.27356303112E+02  0.17373920712E+02 -0.15890521918E+02  0.36093339107E+02  0.51100000000E-03 0.  1.
         12    1    3    3    0    0  0.25554296828E+02 -0.29810607490E+02  0.15289372490E+02  0.42136199596E+02  0.00000000000E+00 0. -1.
</event>
<event>
 7    1  0.2578619E-015  0.9000768E+02  0.7816164E-02  0.1186339E+00
        -11   -1    0    0    0    0  0.00000000000E+00  0.00000000000E+00  0.45593999997E+02  0.45594000000E+02  0.51100000000E-03 0.  1.
         11   -1    0    0    0    0 -0.00000000000E+00 -0.00000000000E+00 -0.45593999997E+02  0.45594000000E+02  0.51100000000E-03 0. -1.
    9900012    2    1    2    0    0 -0.74914766060E+00 -0.33900167141E+00 -0.84676774333E+00  0.90007678026E+02  0.89999938576E+02 0.  0.
        -12    1    1    2    0    0  0.74914766060E+00  0.33900167141E+00  0.84676774333E+00  0.11803219738E+01  0.00000000000E+00 0.  1.
         11    1    3    3    0    0 -0.19936284431E+02  0.20536240953E+02 -0.20159853340E+02  0.35008746284E+02  0.51100000000E-03 0. -1.
        -11    1    3    3    0    0 -0.53225471410E+01  0.40041414139E+01 -0.81819773823E+01  0.10550232731E+02  0.51100000000E-03 0.  1.
        -12    1    3    3    0    0  0.24509683911E+02 -0.24879384039E+02  0.27495062979E+02  0.44448699011E+02  0.00000000000E+00 0.  1.
</event>
<event>
 7    1  0.2578619E-015  0.9000778E+02  0.7816164E-02  0.1186339E+00
        -11   -1    0    0    0    0  0.00000000000E+00  0.00000000000E+00  0.45593999997E+02  0.45594000000E+02  0.51100000000E-03 0.  1.
         11   -1    0    0    0    0 -0.00000000000E+00 -0.00000000000E+00 -0.45593999997E+02  0.45594000000E+02  0.51100000000E-03 0. -1.
    9900012    2    1    2    0    0  0.77371748842E+00 -0.39752635256E+00 -0.79765195053E+00  0.90007781975E+02  0.90000043897E+02 0.  0.
        -12    1    1    2    0    0 -0.77371748842E+00  0.39752635256E+00  0.79765195053E+00  0.11802180252E+01  0.00000000000E+00 0.  1.
         11    1    3    3    0    0 -0.39357185609E+01  0.35816397022E+00  0.74978438920E+01  0.84756017669E+01  0.51100000000E-03 0. -1.
        -11    1    3    3    0    0  0.76097213476E+01  0.34067474323E+02  0.16574207648E+02  0.38642011143E+02  0.51100000000E-03 0.  1.
         12    1    3    3    0    0 -0.29002852984E+01 -0.34823164646E+02 -0.24869703490E+02  0.42890169065E+02  0.00000000000E+00 0. -1.
</event>
<event>
 7    1  0.2578619E-015  0.9000741E+02  0.7816164E-02  0.1186340E+00
        -11   -1    0    0    0    0  0.00000000000E+00  0.00000000000E+00  0.45593999997E+02  0.45594000000E+02  0.51100000000E-03 0. -1.
         11   -1    0    0    0    0 -0.00000000000E+00 -0.00000000000E+00 -0.45593999997E+02  0.45594000000E+02  0.51100000000E-03 0.  1.
    9900012    2    1    2    0    0  0.11033754335E+01 -0.12145192076E+00  0.40201252637E+00  0.90007406087E+02  0.89999663047E+02 0.  0.
        -12    1    1    2    0    0 -0.11033754335E+01  0.12145192076E+00 -0.40201252637E+00  0.11805939131E+01  0.00000000000E+00 0.  1.
         11    1    3    3    0    0 -0.35329992666E+02  0.22504449934E+02 -0.44472887164E+01  0.42124067062E+02  0.51100000000E-03 0. -1.
        -11    1    3    3    0    0  0.39137167269E+01 -0.92088351166E+00 -0.60778072028E+01  0.72873140262E+01  0.51100000000E-03 0.  1.
        -12    1    3    3    0    0  0.32519651373E+02 -0.21705018344E+02  0.10927108446E+02  0.40596024999E+02  0.00000000000E+00 0.  1.
</event>
<event>
 8    1  0.2578619E-015  0.9000773E+02  0.7816164E-02  0.1186339E+00
        -11   -1    0    0    0    0  0.00000000000E+00  0.00000000000E+00  0.45593999997E+02  0.45594000000E+02  0.51100000000E-03 0.  1.
         11   -1    0    0    0    0 -0.00000000000E+00 -0.00000000000E+00 -0.45593999997E+02  0.45594000000E+02  0.51100000000E-03 0. -1.
    9900012    2    1    2    0    0  0.12382926651E+00 -0.18271028734E+00 -0.11594497738E+01  0.90007728627E+02  0.89999989845E+02 0.  0.
         23    2    3    3    0    0  0.12506895355E+02  0.56346397473E+01 -0.21734599221E+02  0.65299052783E+02  0.60028342428E+02 0.  0.
        -12    1    1    2    0    0 -0.12382926651E+00  0.18271028734E+00  0.11594497738E+01  0.11802713731E+01  0.00000000000E+00 0.  1.
         11    1    4    4    0    0  0.16141491435E+02  0.30178615472E+02 -0.21631397662E+02  0.40487207147E+02  0.51100000000E-03 0. -1.
        -11    1    4    4    0    0 -0.36345960795E+01 -0.24543975725E+02 -0.10320155913E+00  0.24811845636E+02  0.51100000000E-03 0.  1.
        -12    1    3    3    0    0 -0.12383066089E+02 -0.58173500346E+01  0.20575149447E+02  0.24708675844E+02  0.00000000000E+00 0.  1.
</event>
<event>
 7    1  0.2578619E-015  0.9000775E+02  0.7816164E-02  0.1186339E+00
        -11   -1    0    0    0    0  0.00000000000E+00  0.00000000000E+00  0.45593999997E+02  0.45594000000E+02  0.51100000000E-03 0.  1.
         11   -1    0    0    0    0 -0.00000000000E+00 -0.00000000000E+00 -0.45593999997E+02  0.45594000000E+02  0.51100000000E-03 0. -1.
    9900012    2    1    2    0    0  0.10241408010E+01 -0.58579281142E+00  0.31243645856E-01  0.90007748432E+02  0.90000009911E+02 0.  0.
        -12    1    1    2    0    0 -0.10241408010E+01  0.58579281142E+00 -0.31243645856E-01  0.11802515680E+01  0.00000000000E+00 0.  1.
         11    1    3    3    0    0  0.13490661965E+02  0.38513885536E+02 -0.51119301092E+01  0.41127231478E+02  0.51100000000E-03 0. -1.
        -11    1    3    3    0    0 -0.76116689461E+01 -0.31223622983E+01  0.92105986254E+01  0.12349970760E+02  0.51100000000E-03 0.  1.
        -12    1    3    3    0    0 -0.48548522179E+01 -0.35977316049E+02 -0.40674248704E+01  0.36530546194E+02  0.00000000000E+00 0.  1.
</event>
<event>
 7    1  0.2578619E-015  0.9000769E+02  0.7816164E-02  0.1186339E+00
        -11   -1    0    0    0    0  0.00000000000E+00  0.00000000000E+00  0.45593999997E+02  0.45594000000E+02  0.51100000000E-03 0. -1.
         11   -1    0    0    0    0 -0.00000000000E+00 -0.00000000000E+00 -0.45593999997E+02  0.45594000000E+02  0.51100000000E-03 0.  1.
    9900012    2    1    2    0    0 -0.93871692927E+00 -0.66549330604E+00 -0.26277642310E+00  0.90007693996E+02  0.89999954757E+02 0.  0.
        -12    1    1    2    0    0  0.93871692927E+00  0.66549330604E+00  0.26277642310E+00  0.11803060036E+01  0.00000000000E+00 0.  1.
         11    1    3    3    0    0 -0.27846045379E+02  0.21324979239E+02 -0.99966205831E+01  0.36470390814E+02  0.51100000000E-03 0. -1.
        -11    1    3    3    0    0  0.32816037469E+01  0.11017312229E+02  0.54438711269E+01  0.12719505691E+02  0.51100000000E-03 0.  1.
        -12    1    3    3    0    0  0.23625724703E+02 -0.33007784774E+02  0.42899730331E+01  0.40817797492E+02  0.00000000000E+00 0.  1.
</event>
<event>
 7    1  0.2578619E-015  0.9000785E+02  0.7816164E-02  0.1186339E+00
        -11   -1    0    0    0    0  0.00000000000E+00  0.00000000000E+00  0.45593999997E+02  0.45594000000E+02  0.51100000000E-03 0.  1.
         11   -1    0    0    0    0 -0.00000000000E+00 -0.00000000000E+00 -0.45593999997E+02  0.45594000000E+02  0.51100000000E-03 0. -1.
    9900012    2    1    2    0    0 -0.66112019923E+00  0.94418518493E+00 -0.25334981867E+00  0.90007850979E+02  0.90000113812E+02 0.  0.
        -12    1    1    2    0    0  0.66112019923E+00 -0.94418518493E+00  0.25334981867E+00  0.11801490211E+01  0.00000000000E+00 0.  1.
         11    1    3    3    0    0 -0.32086280955E+02 -0.18145209124E+02 -0.91492406553E+01  0.37980082207E+02  0.51100000000E-03 0. -1.
        -11    1    3    3    0    0  0.53667541797E+00 -0.83221896709E+01 -0.32973893958E+01  0.89676997336E+01  0.51100000000E-03 0.  1.
        -12    1    3    3    0    0  0.30888485337E+02  0.27411583980E+02  0.12193280232E+02  0.43060069038E+02  0.00000000000E+00 0.  1.
</event>
<event>
 7    1  0.2578619E-015  0.9000782E+02  0.7816164E-02  0.1186339E+00
        -11   -1    0    0    0    0  0.00000000000E+00  0.00000000000E+00  0.45593999997E+02  0.45594000000E+02  0.51100000000E-03 0. -1.
         11   -1    0    0    0    0 -0.00000000000E+00 -0.00000000000E+00 -0.45593999997E+02  0.45594000000E+02  0.51100000000E-03 0.  1.
    9900012    2    1    2    0    0  0.96729166473E+00 -0.59657528069E+00 -0.31824400952E+00  0.90007815913E+02  0.90000078283E+02 0.  0.
        -12    1    1    2    0    0 -0.96729166473E+00  0.59657528069E+00  0.31824400952E+00  0.11801840872E+01  0.00000000000E+00 0.  1.
         11    1    3    3    0    0 -0.20194499729E+02 -0.19022997569E+02  0.27067192763E+02  0.38759839785E+02  0.51100000000E-03 0. -1.
        -11    1    3    3    0    0 -0.75071288800E+01  0.29019746427E+01  0.88306418786E+00  0.80968045221E+01  0.51100000000E-03 0.  1.
        -12    1    3    3    0    0  0.28668920274E+02  0.15524447646E+02 -0.28268500961E+02  0.43151171606E+02  0.00000000000E+00 0.  1.
</event>
<event>
 7    1  0.2578619E-015  0.9000765E+02  0.7816164E-02  0.1186339E+00
        -11   -1    0    0    0    0  0.00000000000E+00  0.00000000000E+00  0.45593999997E+02  0.45594000000E+02  0.51100000000E-03 0.  1.
         11   -1    0    0    0    0 -0.00000000000E+00 -0.00000000000E+00 -0.45593999997E+02  0.45594000000E+02  0.51100000000E-03 0. -1.
    9900012    2    1    2    0    0  0.43069341618E+00 -0.61479169188E-01 -0.10972495468E+01  0.90007647055E+02  0.89999907196E+02 0.  0.
        -12    1    1    2    0    0 -0.43069341618E+00  0.61479169188E-01  0.10972495468E+01  0.11803529451E+01  0.00000000000E+00 0.  1.
         11    1    3    3    0    0  0.15059126698E+02  0.28991786586E+01  0.12560436078E+01  0.15387013342E+02  0.51100000000E-03 0. -1.
        -11    1    3    3    0    0  0.18753190443E+02 -0.20294247655E+02  0.16874595766E+02  0.32377316476E+02  0.51100000000E-03 0.  1.
         12    1    3    3    0    0 -0.33381623725E+02  0.17333589827E+02 -0.19227888920E+02  0.42243317236E+02  0.00000000000E+00 0. -1.
</event>
<event>
 7    1  0.2578619E-015  0.9000779E+02  0.7816164E-02  0.1186339E+00
        -11   -1    0    0    0    0  0.00000000000E+00  0.00000000000E+00  0.45593999997E+02  0.45594000000E+02  0.51100000000E-03 0. -1.
         11   -1    0    0    0    0 -0.00000000000E+00 -0.00000000000E+00 -0.45593999997E+02  0.45594000000E+02  0.51100000000E-03 0.  1.
    9900012    2    1    2    0    0  0.11748147244E+01  0.13332243937E-02  0.11273338949E+00  0.90007788057E+02  0.90000050059E+02 0.  0.
        -12    1    1    2    0    0 -0.11748147244E+01 -0.13332243937E-02 -0.11273338949E+00  0.11802119434E+01  0.00000000000E+00 0.  1.
         11    1    3    3    0    0  0.62717945662E+01 -0.48626977351E+01  0.50145872881E+01  0.93876153668E+01  0.51100000000E-03 0. -1.
        -11    1    3    3    0    0  0.24016058402E+02  0.19114982263E+02 -0.27414977103E+02  0.41155006717E+02  0.51100000000E-03 0.  1.
         12    1    3    3    0    0 -0.29113038244E+02 -0.14250951303E+02  0.22513123204E+02  0.39465165973E+02  0.00000000000E+00 0. -1.
</event>
<event>
 7    1  0.2578619E-015  0.9000779E+02  0.7816164E-02  0.1186339E+00
        -11   -1    0    0    0    0  0.00000000000E+00  0.00000000000E+00  0.45593999997E+02  0.45594000000E+02  0.51100000000E-03 0.  1.
         11   -1    0    0    0    0 -0.00000000000E+00 -0.00000000000E+00 -0.45593999997E+02  0.45594000000E+02  0.51100000000E-03 0. -1.
    9900012    2    1    2    0    0 -0.89352878845E+00  0.13680985222E+00 -0.75880121464E+00  0.90007792427E+02  0.90000054487E+02 0.  0.
        -12    1    1    2    0    0  0.89352878845E+00 -0.13680985222E+00  0.75880121464E+00  0.11802075728E+01  0.00000000000E+00 0.  1.
         11    1    3    3    0    0  0.61307119509E+01 -0.31005493178E+01 -0.73438738623E+01  0.10056416790E+02  0.51100000000E-03 0. -1.
        -11    1    3    3    0    0 -0.13848122592E+02 -0.36641892015E+02  0.18312650286E+01  0.39214184699E+02  0.51100000000E-03 0.  1.
         12    1    3    3    0    0  0.68238818526E+01  0.39879251185E+02  0.47538076190E+01  0.40737190938E+02  0.00000000000E+00 0. -1.
</event>
<event>
 7    1  0.2578619E-015  0.9000828E+02  0.7816164E-02  0.1186338E+00
        -11   -1    0    0    0    0  0.00000000000E+00  0.00000000000E+00  0.45593999997E+02  0.45594000000E+02  0.51100000000E-03 0.  1.
         11   -1    0    0    0    0 -0.00000000000E+00 -0.00000000000E+00 -0.45593999997E+02  0.45594000000E+02  0.51100000000E-03 0. -1.
    9900012    2    1    2    0    0  0.36520607602E+00 -0.61798539294E+00 -0.93619253731E+00  0.90008280588E+02  0.90000549090E+02 0.  0.
        -12    1    1    2    0    0 -0.36520607602E+00  0.61798539294E+00  0.93619253731E+00  0.11797194119E+01  0.00000000000E+00 0.  1.
         11    1    3    3    0    0 -0.52993164520E+01 -0.82304731752E+01  0.88880402799E+01  0.13221978060E+02  0.51100000000E-03 0. -1.
        -11    1    3    3    0    0 -0.80353844095E+01  0.29148930801E+02 -0.31233752322E+02  0.43471540734E+02  0.51100000000E-03 0.  1.
         12    1    3    3    0    0  0.13699906937E+02 -0.21536443018E+02  0.21409519504E+02  0.33314761794E+02  0.00000000000E+00 0. -1.
</event>
<event>
 7    1  0.2578619E-015  0.9000778E+02  0.7816164E-02  0.1186339E+00
        -11   -1    0    0    0    0  0.00000000000E+00  0.00000000000E+00  0.45593999997E+02  0.45594000000E+02  0.51100000000E-03 0. -1.
         11   -1    0    0    0    0 -0.00000000000E+00 -0.00000000000E+00 -0.45593999997E+02  0.45594000000E+02  0.51100000000E-03 0.  1.
    9900012    2    1    2    0    0  0.10536441468E+01  0.10168981750E+00  0.52193115599E+00  0.90007780131E+02  0.90000042029E+02 0.  0.
        -12    1    1    2    0    0 -0.10536441468E+01 -0.10168981750E+00 -0.52193115599E+00  0.11802198688E+01  0.00000000000E+00 0.  1.
         11    1    3    3    0    0  0.21048031796E+02 -0.33635945135E+02  0.12729511272E+02  0.41670576011E+02  0.51100000000E-03 0. -1.
        -11    1    3    3    0    0  0.47502233192E+01  0.69567364510E+01 -0.80269570257E+01  0.11635843029E+02  0.51100000000E-03 0.  1.
        -12    1    3    3    0    0 -0.24744610968E+02  0.26780898502E+02 -0.41806230901E+01  0.36701361091E+02  0.00000000000E+00 0.  1.
</event>
<event>
 7    1  0.2578619E-015  0.9000776E+02  0.7816164E-02  0.1186339E+00
        -11   -1    0    0    0    0  0.00000000000E+00  0.00000000000E+00  0.45593999997E+02  0.45594000000E+02  0.51100000000E-03 0. -1.
         11   -1    0    0    0    0 -0.00000000000E+00 -0.00000000000E+00 -0.45593999997E+02  0.45594000000E+02  0.51100000000E-03 0.  1.
    9900012    2    1    2    0    0  0.71842950100E+00 -0.38945201023E+00  0.85156075068E+00  0.90007758699E+02  0.90000020314E+02 0.  0.
        -12    1    1    2    0    0 -0.71842950100E+00  0.38945201023E+00 -0.85156075068E+00  0.11802413009E+01  0.00000000000E+00 0.  1.
         11    1    3    3    0    0  0.17226247376E+01 -0.28600881431E+02 -0.26755867983E+02  0.39202733659E+02  0.51100000000E-03 0. -1.
        -11    1    3    3    0    0  0.60830470176E-01 -0.71188657578E+01  0.29401138881E+01  0.77023515863E+01  0.51100000000E-03 0.  1.
        -12    1    3    3    0    0 -0.10650257067E+01  0.35330295178E+02  0.24667314845E+02  0.43102673453E+02  0.00000000000E+00 0.  1.
</event>
<event>
 7    1  0.2578619E-015  0.9000774E+02  0.7816164E-02  0.1186339E+00
        -11   -1    0    0    0    0  0.00000000000E+00  0.00000000000E+00  0.45593999997E+02  0.45594000000E+02  0.51100000000E-03 0. -1.
         11   -1    0    0    0    0 -0.00000000000E+00 -0.00000000000E+00 -0.45593999997E+02  0.45594000000E+02  0.51100000000E-03 0.  1.
    9900012    2    1    2    0    0 -0.10265378918E+01 -0.13368656147E+00  0.56689469817E+00  0.90007736581E+02  0.89999997904E+02 0.  0.
        -12    1    1    2    0    0  0.10265378918E+01  0.13368656147E+00 -0.56689469817E+00  0.11802634193E+01  0.00000000000E+00 0.  1.
         11    1    3    3    0    0 -0.67431094292E+01  0.13728004987E+02  0.37562768382E+01  0.15749198762E+02  0.51100000000E-03 0. -1.
        -11    1    3    3    0    0  0.75527756624E+00  0.17262557769E+02 -0.28841603874E+02  0.33621488058E+02  0.51100000000E-03 0.  1.
         12    1    3    3    0    0  0.49612939712E+01 -0.31124249318E+02  0.25652221734E+02  0.40637049761E+02  0.00000000000E+00 0. -1.
</event>
<event>
 7    1  0.2578619E-015  0.9000772E+02  0.7816164E-02  0.1186339E+00
        -11   -1    0    0    0    0  0.00000000000E+00  0.00000000000E+00  0.45593999997E+02  0.45594000000E+02  0.51100000000E-03 0. -1.
         11   -1    0    0    0    0 -0.00000000000E+00 -0.00000000000E+00 -0.45593999997E+02  0.45594000000E+02  0.51100000000E-03 0.  1.
    9900012    2    1    2    0    0  0.70765614374E+00 -0.82637601456E+00  0.45757752914E+00  0.90007723875E+02  0.89999985031E+02 0.  0.
        -12    1    1    2    0    0 -0.70765614374E+00  0.82637601456E+00 -0.45757752914E+00  0.11802761246E+01  0.00000000000E+00 0.  1.
         11    1    3    3    0    0  0.15576937340E+02  0.31575881110E+02 -0.51788484929E+01  0.35587887220E+02  0.51100000000E-03 0. -1.
        -11    1    3    3    0    0 -0.29570608846E+01  0.98128055210E+01  0.15691220700E+01  0.10368100385E+02  0.51100000000E-03 0.  1.
        -12    1    3    3    0    0 -0.11912220312E+02 -0.42215062646E+02  0.40673039520E+01  0.44051736270E+02  0.00000000000E+00 0.  1.
</event>
<event>
 7    1  0.2578619E-015  0.9000782E+02  0.7816164E-02  0.1186339E+00
        -11   -1    0    0    0    0  0.00000000000E+00  0.00000000000E+00  0.45593999997E+02  0.45594000000E+02  0.51100000000E-03 0. -1.
         11   -1    0    0    0    0 -0.00000000000E+00 -0.00000000000E+00 -0.45593999997E+02  0.45594000000E+02  0.51100000000E-03 0.  1.
    9900012    2    1    2    0    0 -0.65380086047E+00  0.34733276705E+00  0.91909500653E+00  0.90007817282E+02  0.90000079670E+02 0.  0.
        -12    1    1    2    0    0  0.65380086047E+00 -0.34733276705E+00 -0.91909500653E+00  0.11801827177E+01  0.00000000000E+00 0.  1.
         11    1    3    3    0    0  0.14317631368E+02  0.28072099442E+02  0.29231797152E+02  0.42982965231E+02  0.51100000000E-03 0. -1.
        -11    1    3    3    0    0 -0.52364935942E+01  0.16184181271E+01 -0.91070353866E+01  0.10629122080E+02  0.51100000000E-03 0.  1.
        -12    1    3    3    0    0 -0.97349386345E+01 -0.29343184802E+02 -0.19205666758E+02  0.36395729971E+02  0.00000000000E+00 0.  1.
</event>
<event>
 7    1  0.2578619E-015  0.9000776E+02  0.7816164E-02  0.1186339E+00
        -11   -1    0    0    0    0  0.00000000000E+00  0.00000000000E+00  0.45593999997E+02  0.45594000000E+02  0.51100000000E-03 0.  1.
         11   -1    0    0    0    0 -0.00000000000E+00 -0.00000000000E+00 -0.45593999997E+02  0.45594000000E+02  0.51100000000E-03 0. -1.
    9900012    2    1    2    0    0  0.43624478360E+00  0.35476999016E+00 -0.10376897556E+01  0.90007757955E+02  0.90000019559E+02 0.  0.
        -12    1    1    2    0    0 -0.43624478360E+00 -0.35476999016E+00  0.10376897556E+01  0.11802420455E+01  0.00000000000E+00 0.  1.
         11    1    3    3    0    0  0.34250381910E+01  0.95674051484E+01 -0.41903482702E+01  0.10992049253E+02  0.51100000000E-03 0. -1.
        -11    1    3    3    0    0 -0.17189629232E+02  0.30502003701E+02  0.97054507505E+01  0.36332511025E+02  0.51100000000E-03 0.  1.
         12    1    3    3    0    0  0.14200835824E+02 -0.39714638859E+02 -0.65527922358E+01  0.42683197676E+02  0.00000000000E+00 0. -1.
</event>
<event>
 7    1  0.2578619E-015  0.9000812E+02  0.7816164E-02  0.1186338E+00
        -11   -1    0    0    0    0  0.00000000000E+00  0.00000000000E+00  0.45593999997E+02  0.45594000000E+02  0.51100000000E-03 0.  1.
         11   -1    0    0    0    0 -0.00000000000E+00 -0.00000000000E+00 -0.45593999997E+02  0.45594000000E+02  0.51100000000E-03 0. -1.
    9900012    2    1    2    0    0 -0.61322472526E+00 -0.89251999236E+00 -0.46848587503E+00  0.90008120550E+02  0.90000386941E+02 0.  0.
        -12    1    1    2    0    0  0.61322472526E+00  0.89251999236E+00  0.46848587503E+00  0.11798794496E+01  0.00000000000E+00 0.  1.
         11    1    3    3    0    0  0.22195702888E+02  0.77023257105E+01 -0.30305737219E+02  0.38345961413E+02  0.51100000000E-03 0. -1.
        -11    1    3    3    0    0 -0.10176397824E+02  0.51980450069E+01 -0.47235621602E+01  0.12364901306E+02  0.51100000000E-03 0.  1.
        -12    1    3    3    0    0 -0.12632529789E+02 -0.13792890710E+02  0.34560813504E+02  0.39297257832E+02  0.00000000000E+00 0.  1.
</event>
<event>
 7    1  0.4065381E-015  0.9000748E+02  0.7816164E-02  0.1186340E+00
        -11   -1    0    0    0    0  0.00000000000E+00  0.00000000000E+00  0.45593999997E+02  0.45594000000E+02  0.51100000000E-03 0. -1.
         11   -1    0    0    0    0 -0.00000000000E+00 -0.00000000000E+00 -0.45593999997E+02  0.45594000000E+02  0.51100000000E-03 0.  1.
    9900012    2    1    2    0    0 -0.60947543911E+00  0.43313365671E+00  0.91353907429E+00  0.90007483708E+02  0.89999741693E+02 0.  0.
        -12    1    1    2    0    0  0.60947543911E+00 -0.43313365671E+00 -0.91353907429E+00  0.11805162920E+01  0.00000000000E+00 0.  1.
         11    1    3    3    0    0  0.64108951413E+01 -0.41758578722E+00 -0.75098346988E+01  0.98828928896E+01  0.51100000000E-03 0. -1.
        -11    1    3    3    0    0 -0.24724908041E+01 -0.54066198838E+01 -0.35261986058E+02  0.35759647794E+02  0.51100000000E-03 0.  1.
         12    1    3    3    0    0 -0.45478797764E+01  0.62573393277E+01  0.43685359831E+02  0.44364943024E+02  0.00000000000E+00 0. -1.
</event>
<event>
 7    1  0.2578619E-015  0.9000777E+02  0.7816164E-02  0.1186339E+00
        -11   -1    0    0    0    0  0.00000000000E+00  0.00000000000E+00  0.45593999997E+02  0.45594000000E+02  0.51100000000E-03 0.  1.
         11   -1    0    0    0    0 -0.00000000000E+00 -0.00000000000E+00 -0.45593999997E+02  0.45594000000E+02  0.51100000000E-03 0. -1.
    9900012    2    1    2    0    0 -0.63544552144E+00 -0.37861782271E+00 -0.91967264974E+00  0.90007771103E+02  0.90000032882E+02 0.  0.
        -12    1    1    2    0    0  0.63544552144E+00  0.37861782271E+00  0.91967264974E+00  0.11802288969E+01  0.00000000000E+00 0.  1.
         11    1    3    3    0    0  0.63741867351E+01 -0.20237173419E+01  0.70116256237E+00  0.67243823221E+01  0.51100000000E-03 0. -1.
        -11    1    3    3    0    0  0.23053811228E+02  0.22352821588E+02 -0.24333361691E+02  0.40289444481E+02  0.51100000000E-03 0.  1.
         12    1    3    3    0    0 -0.30063443485E+02 -0.20707722069E+02  0.22712526479E+02  0.42993944300E+02  0.00000000000E+00 0. -1.
</event>
<event>
 7    1  0.2578619E-015  0.9000764E+02  0.7816164E-02  0.1186339E+00
        -11   -1    0    0    0    0  0.00000000000E+00  0.00000000000E+00  0.45593999997E+02  0.45594000000E+02  0.51100000000E-03 0. -1.
         11   -1    0    0    0    0 -0.00000000000E+00 -0.00000000000E+00 -0.45593999997E+02  0.45594000000E+02  0.51100000000E-03 0.  1.
    9900012    2    1    2    0    0 -0.60657708684E+00 -0.65458137015E+00  0.77254559836E+00  0.90007644446E+02  0.89999904553E+02 0.  0.
        -12    1    1    2    0    0  0.60657708684E+00  0.65458137015E+00 -0.77254559836E+00  0.11803555540E+01  0.00000000000E+00 0.  1.
         11    1    3    3    0    0 -0.61233352787E+01  0.35163573239E+02 -0.99895871842E+01  0.37064322066E+02  0.51100000000E-03 0. -1.
        -11    1    3    3    0    0 -0.12465654439E+02 -0.83787230177E+00  0.21005101932E+01  0.12669124434E+02  0.51100000000E-03 0.  1.
        -12    1    3    3    0    0  0.17982412631E+02 -0.34980282307E+02  0.86616225893E+01  0.40274197946E+02  0.00000000000E+00 0.  1.
</event>
<event>
 7    1  0.2578619E-015  0.9000778E+02  0.7816164E-02  0.1186339E+00
        -11   -1    0    0    0    0  0.00000000000E+00  0.00000000000E+00  0.45593999997E+02  0.45594000000E+02  0.51100000000E-03 0. -1.
         11   -1    0    0    0    0 -0.00000000000E+00 -0.00000000000E+00 -0.45593999997E+02  0.45594000000E+02  0.51100000000E-03 0.  1.
    9900012    2    1    2    0    0 -0.84287132169E+00 -0.60176649169E+00 -0.56600230148E+00  0.90007782401E+02  0.90000044329E+02 0.  0.
        -12    1    1    2    0    0  0.84287132169E+00  0.60176649169E+00  0.56600230148E+00  0.11802175989E+01  0.00000000000E+00 0.  1.
         11    1    3    3    0    0 -0.96829023462E+01  0.33460178630E+01 -0.12201203095E+01  0.10317127857E+02  0.51100000000E-03 0. -1.
        -11    1    3    3    0    0 -0.10249243685E+02  0.33411728398E+02 -0.10103329988E+02  0.36379497905E+02  0.51100000000E-03 0.  1.
         12    1    3    3    0    0  0.19089274709E+02 -0.37359512753E+02  0.10757447996E+02  0.43311156640E+02  0.00000000000E+00 0. -1.
</event>
<event>
 7    1  0.2578619E-015  0.9000774E+02  0.7816164E-02  0.1186339E+00
        -11   -1    0    0    0    0  0.00000000000E+00  0.00000000000E+00  0.45593999997E+02  0.45594000000E+02  0.51100000000E-03 0. -1.
         11   -1    0    0    0    0 -0.00000000000E+00 -0.00000000000E+00 -0.45593999997E+02  0.45594000000E+02  0.51100000000E-03 0.  1.
    9900012    2    1    2    0    0 -0.24374587647E+00 -0.15804557935E+00  0.11439461060E+01  0.90007744455E+02  0.90000005882E+02 0.  0.
        -12    1    1    2    0    0  0.24374587647E+00  0.15804557935E+00 -0.11439461060E+01  0.11802555448E+01  0.00000000000E+00 0.  1.
         11    1    3    3    0    0  0.23394611208E+01  0.30717322226E+02 -0.25654523440E+02  0.40089668697E+02  0.51100000000E-03 0. -1.
        -11    1    3    3    0    0  0.39145326205E+01 -0.63866503012E+01 -0.51887711392E+01  0.91124208585E+01  0.51100000000E-03 0.  1.
        -12    1    3    3    0    0 -0.64977396178E+01 -0.24488717504E+02  0.31987240685E+02  0.40805654900E+02  0.00000000000E+00 0.  1.
</event>
<event>
 7    1  0.2578619E-015  0.9000779E+02  0.7816164E-02  0.1186339E+00
        -11   -1    0    0    0    0  0.00000000000E+00  0.00000000000E+00  0.45593999997E+02  0.45594000000E+02  0.51100000000E-03 0.  1.
         11   -1    0    0    0    0 -0.00000000000E+00 -0.00000000000E+00 -0.45593999997E+02  0.45594000000E+02  0.51100000000E-03 0. -1.
    9900012    2    1    2    0    0  0.46631887698E+00  0.10631265507E+01  0.21261881364E+00  0.90007788952E+02  0.90000050966E+02 0.  0.
        -12    1    1    2    0    0 -0.46631887698E+00 -0.10631265507E+01 -0.21261881364E+00  0.11802110480E+01  0.00000000000E+00 0.  1.
         11    1    3    3    0    0  0.95177422823E+01  0.24351602882E+01  0.28112964505E+01  0.10218650193E+02  0.51100000000E-03 0. -1.
        -11    1    3    3    0    0  0.35289661618E+01 -0.16115378502E+02  0.34327396392E+02  0.38085813235E+02  0.51100000000E-03 0.  1.
         12    1    3    3    0    0 -0.12580389567E+02  0.14743344765E+02 -0.36926074029E+02  0.41703325524E+02  0.00000000000E+00 0. -1.
</event>
<event>
 7    1  0.2578619E-015  0.9000701E+02  0.7816164E-02  0.1186340E+00
        -11   -1    0    0    0    0  0.00000000000E+00  0.00000000000E+00  0.45593999997E+02  0.45594000000E+02  0.51100000000E-03 0.  1.
         11   -1    0    0    0    0 -0.00000000000E+00 -0.00000000000E+00 -0.45593999997E+02  0.45594000000E+02  0.51100000000E-03 0. -1.
    9900012    2    1    2    0    0 -0.11199631119E+01  0.24949214712E+00 -0.27957738915E+00  0.90007014302E+02  0.89999266087E+02 0.  0.
        -12    1    1    2    0    0  0.11199631119E+01 -0.24949214712E+00  0.27957738915E+00  0.11809856985E+01  0.00000000000E+00 0.  1.
         11    1    3    3    0    0 -0.72391517819E+00  0.37101323214E+01  0.17614682191E+02  0.18015719913E+02  0.51100000000E-03 0. -1.
        -11    1    3    3    0    0 -0.19586730845E+02  0.14644179210E+01 -0.38614675678E+02  0.43322946841E+02  0.51100000000E-03 0.  1.
         12    1    3    3    0    0  0.19190682912E+02 -0.49250580952E+01  0.20720416097E+02  0.28668347547E+02  0.00000000000E+00 0. -1.
</event>
<event>
 7    1  0.2578619E-015  0.9000830E+02  0.7816164E-02  0.1186338E+00
        -11   -1    0    0    0    0  0.00000000000E+00  0.00000000000E+00  0.45593999997E+02  0.45594000000E+02  0.51100000000E-03 0.  1.
         11   -1    0    0    0    0 -0.00000000000E+00 -0.00000000000E+00 -0.45593999997E+02  0.45594000000E+02  0.51100000000E-03 0. -1.
    9900012    2    1    2    0    0 -0.49137870363E-01  0.39942641440E+00 -0.11089312277E+01  0.90008303234E+02  0.90000572035E+02 0.  0.
        -12    1    1    2    0    0  0.49137870363E-01 -0.39942641440E+00  0.11089312277E+01  0.11796967655E+01  0.00000000000E+00 0.  1.
         11    1    3    3    0    0  0.22031799821E+02 -0.30578921590E+02  0.97352133454E+01  0.38926148385E+02  0.51100000000E-03 0. -1.
        -11    1    3    3    0    0  0.22655756141E+01 -0.25318797928E+01 -0.90003559473E+01  0.96202731555E+01  0.51100000000E-03 0.  1.
        -12    1    3    3    0    0 -0.24346513305E+02  0.33510227797E+02 -0.18437886258E+01  0.41461881694E+02  0.00000000000E+00 0.  1.
</event>
<event>
 7    1  0.2578619E-015  0.9000779E+02  0.7816164E-02  0.1186339E+00
        -11   -1    0    0    0    0  0.00000000000E+00  0.00000000000E+00  0.45593999997E+02  0.45594000000E+02  0.51100000000E-03 0.  1.
         11   -1    0    0    0    0 -0.00000000000E+00 -0.00000000000E+00 -0.45593999997E+02  0.45594000000E+02  0.51100000000E-03 0. -1.
    9900012    2    1    2    0    0 -0.10422817365E+01  0.25949816488E+00  0.48909705919E+00  0.90007785422E+02  0.90000047390E+02 0.  0.
        -12    1    1    2    0    0  0.10422817365E+01 -0.25949816488E+00 -0.48909705919E+00  0.11802145776E+01  0.00000000000E+00 0.  1.
         11    1    3    3    0    0 -0.61528796491E+01  0.65097457417E+01  0.39330956507E+01  0.97828400404E+01  0.51100000000E-03 0. -1.
        -11    1    3    3    0    0 -0.23647813457E+01 -0.48952709840E+01  0.37849728287E+02  0.38238172034E+02  0.51100000000E-03 0.  1.
         12    1    3    3    0    0  0.74753792582E+01 -0.13549765928E+01 -0.41293726879E+02  0.41986773348E+02  0.00000000000E+00 0. -1.
</event>
<event>
 7    1  0.2578619E-015  0.9000768E+02  0.7816164E-02  0.1186339E+00
        -11   -1    0    0    0    0  0.00000000000E+00  0.00000000000E+00  0.45593999997E+02  0.45594000000E+02  0.51100000000E-03 0. -1.
         11   -1    0    0    0    0 -0.00000000000E+00 -0.00000000000E+00 -0.45593999997E+02  0.45594000000E+02  0.51100000000E-03 0.  1.
    9900012    2    1    2    0    0  0.11536774695E+01  0.65966312098E-01 -0.24048402534E+00  0.90007679779E+02  0.89999940352E+02 0.  0.
        -12    1    1    2    0    0 -0.11536774695E+01 -0.65966312098E-01  0.24048402534E+00  0.11803202212E+01  0.00000000000E+00 0.  1.
         11    1    3    3    0    0  0.78778719128E+01 -0.44342004542E+01 -0.44276199359E+01  0.10066122297E+02  0.51100000000E-03 0. -1.
        -11    1    3    3    0    0 -0.22070410094E+02 -0.14893772485E+02 -0.28467603341E+02  0.38978608246E+02  0.51100000000E-03 0.  1.
         12    1    3    3    0    0  0.15346215650E+02  0.19393939251E+02  0.32654739252E+02  0.40962949236E+02  0.00000000000E+00 0. -1.
</event>
<event>
 7    1  0.2578619E-015  0.9000749E+02  0.7816164E-02  0.1186340E+00
        -11   -1    0    0    0    0  0.00000000000E+00  0.00000000000E+00  0.45593999997E+02  0.45594000000E+02  0.51100000000E-03 0. -1.
         11   -1    0    0    0    0 -0.00000000000E+00 -0.00000000000E+00 -0.45593999997E+02  0.45594000000E+02  0.51100000000E-03 0.  1.
    9900012    2    1    2    0    0 -0.64823679509E+00  0.84225514650E+00 -0.51381707963E+00  0.90007486270E+02  0.89999744289E+02 0.  0.
        -12    1    1    2    0    0  0.64823679509E+00 -0.84225514650E+00  0.51381707963E+00  0.11805137295E+01  0.00000000000E+00 0.  1.
         11    1    3    3    0    0  0.28061017705E+02 -0.25639958536E+02 -0.26493399836E+01  0.38103112616E+02  0.51100000000E-03 0. -1.
        -11    1    3    3    0    0 -0.27813545433E+01 -0.78020615621E+01  0.32694694810E+01  0.89049159829E+01  0.51100000000E-03 0.  1.
        -12    1    3    3    0    0 -0.25927899957E+02  0.34284275245E+02 -0.11339465770E+01  0.42999457672E+02  0.00000000000E+00 0.  1.
</event>
<event>
 7    1  0.2578619E-015  0.9000778E+02  0.7816164E-02  0.1186339E+00
        -11   -1    0    0    0    0  0.00000000000E+00  0.00000000000E+00  0.45593999997E+02  0.45594000000E+02  0.51100000000E-03 0.  1.
         11   -1    0    0    0    0 -0.00000000000E+00 -0.00000000000E+00 -0.45593999997E+02  0.45594000000E+02  0.51100000000E-03 0. -1.
    9900012    2    1    2    0    0  0.19999782063E+00  0.68492172894E+00 -0.94010182876E+00  0.90007784616E+02  0.90000046573E+02 0.  0.
        -12    1    1    2    0    0 -0.19999782063E+00 -0.68492172894E+00  0.94010182876E+00  0.11802153835E+01  0.00000000000E+00 0.  1.
         11    1    3    3    0    0 -0.43242080029E+00 -0.39948616328E+02 -0.97250602803E+01  0.41117584219E+02  0.51100000000E-03 0. -1.
        -11    1    3    3    0    0  0.74718774791E+01  0.19612112643E+01 -0.23414260008E+01  0.80720244465E+01  0.51100000000E-03 0.  1.
        -12    1    3    3    0    0 -0.68394588582E+01  0.38672326792E+02  0.11126384452E+02  0.40818175951E+02  0.00000000000E+00 0.  1.
</event>
<event>
 7    1  0.2578619E-015  0.9000787E+02  0.7816164E-02  0.1186339E+00
        -11   -1    0    0    0    0  0.00000000000E+00  0.00000000000E+00  0.45593999997E+02  0.45594000000E+02  0.51100000000E-03 0. -1.
         11   -1    0    0    0    0 -0.00000000000E+00 -0.00000000000E+00 -0.45593999997E+02  0.45594000000E+02  0.51100000000E-03 0.  1.
    9900012    2    1    2    0    0 -0.25583651719E+00 -0.91129599228E+00  0.70482857160E+00  0.90007874573E+02  0.90000137717E+02 0.  0.
        -12    1    1    2    0    0  0.25583651719E+00  0.91129599228E+00 -0.70482857160E+00  0.11801254274E+01  0.00000000000E+00 0.  1.
         11    1    3    3    0    0 -0.56312524140E+01  0.94531375388E+00 -0.55705758798E+01  0.79772136575E+01  0.51100000000E-03 0. -1.
        -11    1    3    3    0    0  0.15873713545E+02  0.16168645344E+02 -0.31544941016E+02  0.38839196412E+02  0.51100000000E-03 0.  1.
         12    1    3    3    0    0 -0.10498297648E+02 -0.18025255090E+02  0.37820345468E+02  0.43191464503E+02  0.00000000000E+00 0. -1.
</event>
<event>
 7    1  0.2578619E-015  0.9000773E+02  0.7816164E-02  0.1186339E+00
        -11   -1    0    0    0    0  0.00000000000E+00  0.00000000000E+00  0.45593999997E+02  0.45594000000E+02  0.51100000000E-03 0.  1.
         11   -1    0    0    0    0 -0.00000000000E+00 -0.00000000000E+00 -0.45593999997E+02  0.45594000000E+02  0.51100000000E-03 0. -1.
    9900012    2    1    2    0    0 -0.11625540460E+01 -0.92141301345E-01 -0.18167765569E+00  0.90007733632E+02  0.89999994916E+02 0.  0.
        -12    1    1    2    0    0  0.11625540460E+01  0.92141301345E-01  0.18167765569E+00  0.11802663682E+01  0.00000000000E+00 0.  1.
         11    1    3    3    0    0  0.14840152571E+02 -0.52189402336E+01  0.52042492484E+01  0.16569600961E+02  0.51100000000E-03 0. -1.
        -11    1    3    3    0    0 -0.31131786196E+02  0.24141137219E+02  0.14561618980E+02  0.42000278161E+02  0.51100000000E-03 0.  1.
         12    1    3    3    0    0  0.15129079579E+02 -0.19014338287E+02 -0.19947545884E+02  0.31437854510E+02  0.00000000000E+00 0. -1.
</event>
<event>
 7    1  0.2578619E-015  0.9000778E+02  0.7816164E-02  0.1186339E+00
        -11   -1    0    0    0    0  0.00000000000E+00  0.00000000000E+00  0.45593999997E+02  0.45594000000E+02  0.51100000000E-03 0.  1.
         11   -1    0    0    0    0 -0.00000000000E+00 -0.00000000000E+00 -0.45593999997E+02  0.45594000000E+02  0.51100000000E-03 0. -1.
    9900012    2    1    2    0    0 -0.55920320112E+00 -0.97822314010E+00  0.35111811679E+00  0.90007782790E+02  0.90000044722E+02 0.  0.
        -12    1    1    2    0    0  0.55920320112E+00  0.97822314010E+00 -0.35111811679E+00  0.11802172105E+01  0.00000000000E+00 0.  1.
         11    1    3    3    0    0  0.67876113268E+01 -0.49980974449E+01  0.53185860747E+01  0.99669455546E+01  0.51100000000E-03 0. -1.
        -11    1    3    3    0    0  0.14858477557E+02 -0.96599342858E+01  0.30942875752E+02  0.35658803201E+02  0.51100000000E-03 0.  1.
         12    1    3    3    0    0 -0.22205292085E+02  0.13679808591E+02 -0.35910343709E+02  0.44382034034E+02  0.00000000000E+00 0. -1.
</event>
<event>
 7    1  0.2578619E-015  0.9000802E+02  0.7816164E-02  0.1186338E+00
        -11   -1    0    0    0    0  0.00000000000E+00  0.00000000000E+00  0.45593999997E+02  0.45594000000E+02  0.51100000000E-03 0. -1.
         11   -1    0    0    0    0 -0.00000000000E+00 -0.00000000000E+00 -0.45593999997E+02  0.45594000000E+02  0.51100000000E-03 0.  1.
    9900012    2    1    2    0    0  0.60908165004E+00  0.68807093681E+00  0.74023054011E+00  0.90008015541E+02  0.90000280546E+02 0.  0.
        -12    1    1    2    0    0 -0.60908165004E+00 -0.68807093681E+00 -0.74023054011E+00  0.11799844588E+01  0.00000000000E+00 0.  1.
         11    1    3    3    0    0  0.63227718586E+01  0.31316768452E+02  0.68692712633E+01  0.32678805336E+02  0.51100000000E-03 0. -1.
        -11    1    3    3    0    0  0.35557748992E+01  0.12443689909E+02 -0.14776347817E+01  0.13025834273E+02  0.51100000000E-03 0.  1.
        -12    1    3    3    0    0 -0.92694651078E+01 -0.43072387424E+02 -0.46514059415E+01  0.44303375933E+02  0.00000000000E+00 0.  1.
</event>
<event>
 7    1  0.2578619E-015  0.9000773E+02  0.7816164E-02  0.1186339E+00
        -11   -1    0    0    0    0  0.00000000000E+00  0.00000000000E+00  0.45593999997E+02  0.45594000000E+02  0.51100000000E-03 0. -1.
         11   -1    0    0    0    0 -0.00000000000E+00 -0.00000000000E+00 -0.45593999997E+02  0.45594000000E+02  0.51100000000E-03 0.  1.
    9900012    2    1    2    0    0  0.10509047151E+01  0.34336186208E+00  0.41319789156E+00  0.90007732833E+02  0.89999994106E+02 0.  0.
        -12    1    1    2    0    0 -0.10509047151E+01 -0.34336186208E+00 -0.41319789156E+00  0.11802671673E+01  0.00000000000E+00 0.  1.
         11    1    3    3    0    0 -0.44436306277E+01  0.12307172485E+02  0.15452243544E+02  0.20248066045E+02  0.51100000000E-03 0. -1.
        -11    1    3    3    0    0 -0.76136304072E+01  0.21560128475E+01 -0.38555262096E+02  0.39358912522E+02  0.51100000000E-03 0.  1.
         12    1    3    3    0    0  0.13108165750E+02 -0.14119823471E+02  0.23516216443E+02  0.30400754266E+02  0.00000000000E+00 0. -1.
</event>
<event>
 8    1  0.2578619E-015  0.9000784E+02  0.7816164E-02  0.1186339E+00
        -11   -1    0    0    0    0  0.00000000000E+00  0.00000000000E+00  0.45593999997E+02  0.45594000000E+02  0.51100000000E-03 0.  1.
         11   -1    0    0    0    0 -0.00000000000E+00 -0.00000000000E+00 -0.45593999997E+02  0.45594000000E+02  0.51100000000E-03 0. -1.
    9900012    2    1    2    0    0  0.77909793881E+00  0.81863617298E+00  0.34003315020E+00  0.90007838433E+02  0.90000101100E+02 0.  0.
         23    2    3    3    0    0  0.33450007457E+01  0.27083129138E+02 -0.36473620953E+01  0.63318762600E+02  0.57019974860E+02 0.  0.
        -12    1    1    2    0    0 -0.77909793881E+00 -0.81863617298E+00 -0.34003315020E+00  0.11801615674E+01  0.00000000000E+00 0.  1.
         11    1    4    4    0    0  0.12930314759E+02  0.82352217264E+01 -0.27474464255E+02  0.31462010473E+02  0.51100000000E-03 0. -1.
        -11    1    4    4    0    0 -0.95853140134E+01  0.18847907412E+02  0.23827102159E+02  0.31856752127E+02  0.51100000000E-03 0.  1.
         12    1    3    3    0    0 -0.25659028069E+01 -0.26264492965E+02  0.39873952455E+01  0.26689075832E+02  0.00000000000E+00 0. -1.
</event>
<event>
 7    1  0.2578619E-015  0.9000773E+02  0.7816164E-02  0.1186339E+00
        -11   -1    0    0    0    0  0.00000000000E+00  0.00000000000E+00  0.45593999997E+02  0.45594000000E+02  0.51100000000E-03 0.  1.
         11   -1    0    0    0    0 -0.00000000000E+00 -0.00000000000E+00 -0.45593999997E+02  0.45594000000E+02  0.51100000000E-03 0. -1.
    9900012    2    1    2    0    0 -0.88274827260E+00  0.78060925025E+00 -0.66677860262E-01  0.90007728315E+02  0.89999989528E+02 0.  0.
        -12    1    1    2    0    0  0.88274827260E+00 -0.78060925025E+00  0.66677860262E-01  0.11802716854E+01  0.00000000000E+00 0.  1.
         11    1    3    3    0    0  0.12754528244E+02  0.23133993516E+02 -0.22311268118E+02  0.34578206026E+02  0.51100000000E-03 0. -1.
        -11    1    3    3    0    0 -0.14117570465E+01 -0.30417232844E+01 -0.12998351912E+02  0.13423944695E+02  0.51100000000E-03 0.  1.
        -12    1    3    3    0    0 -0.12225519470E+02 -0.19311660981E+02  0.35242942169E+02  0.42005577593E+02  0.00000000000E+00 0.  1.
</event>
<event>
 7    1  0.2578619E-015  0.9000772E+02  0.7816164E-02  0.1186339E+00
        -11   -1    0    0    0    0  0.00000000000E+00  0.00000000000E+00  0.45593999997E+02  0.45594000000E+02  0.51100000000E-03 0. -1.
         11   -1    0    0    0    0 -0.00000000000E+00 -0.00000000000E+00 -0.45593999997E+02  0.45594000000E+02  0.51100000000E-03 0.  1.
    9900012    2    1    2    0    0 -0.42279028253E+00  0.98944392514E+00  0.48509019098E+00  0.90007718933E+02  0.89999980023E+02 0.  0.
        -12    1    1    2    0    0  0.42279028253E+00 -0.98944392514E+00 -0.48509019098E+00  0.11802810671E+01  0.00000000000E+00 0.  1.
         11    1    3    3    0    0  0.14835147505E+02  0.29878059040E+02  0.21655065118E+02  0.39770866963E+02  0.51100000000E-03 0. -1.
        -11    1    3    3    0    0  0.89051679490E+01 -0.11215881993E+02 -0.12659357625E+02  0.19114323446E+02  0.51100000000E-03 0.  1.
        -12    1    3    3    0    0 -0.24163105737E+02 -0.17672733121E+02 -0.85106173022E+01  0.31122528523E+02  0.00000000000E+00 0.  1.
</event>
<event>
 7    1  0.2578619E-015  0.9000744E+02  0.7816164E-02  0.1186340E+00
        -11   -1    0    0    0    0  0.00000000000E+00  0.00000000000E+00  0.45593999997E+02  0.45594000000E+02  0.51100000000E-03 0.  1.
         11   -1    0    0    0    0 -0.00000000000E+00 -0.00000000000E+00 -0.45593999997E+02  0.45594000000E+02  0.51100000000E-03 0. -1.
    9900012    2    1    2    0    0 -0.19686887442E+00  0.81480359707E-02 -0.11639998722E+01  0.90007441045E+02  0.89999698466E+02 0.  0.
        -12    1    1    2    0    0  0.19686887442E+00 -0.81480359707E-02  0.11639998722E+01  0.11805589552E+01  0.00000000000E+00 0.  1.
         11    1    3    3    0    0 -0.73798179465E+01 -0.29208257318E+01  0.76515084567E+01  0.11024450907E+02  0.51100000000E-03 0. -1.
        -11    1    3    3    0    0  0.16130816766E+02 -0.17654627502E+02  0.27405156495E+02  0.36372128403E+02  0.51100000000E-03 0.  1.
         12    1    3    3    0    0 -0.89478676939E+01  0.20583601270E+02 -0.36220664824E+02  0.42610861735E+02  0.00000000000E+00 0. -1.
</event>
<event>
 7    1  0.2578619E-015  0.9000774E+02  0.7816164E-02  0.1186339E+00
        -11   -1    0    0    0    0  0.00000000000E+00  0.00000000000E+00  0.45593999997E+02  0.45594000000E+02  0.51100000000E-03 0.  1.
         11   -1    0    0    0    0 -0.00000000000E+00 -0.00000000000E+00 -0.45593999997E+02  0.45594000000E+02  0.51100000000E-03 0. -1.
    9900012    2    1    2    0    0  0.27763893076E+00 -0.62886671326E+00 -0.95940329099E+00  0.90007740963E+02  0.90000002344E+02 0.  0.
        -12    1    1    2    0    0 -0.27763893076E+00  0.62886671326E+00  0.95940329099E+00  0.11802590367E+01  0.00000000000E+00 0.  1.
         11    1    3    3    0    0 -0.36094329385E+01 -0.63076169649E+01 -0.37727137594E+02  0.38420709900E+02  0.51100000000E-03 0. -1.
        -11    1    3    3    0    0 -0.20795863823E+01 -0.10536459721E+02 -0.24233405644E+00  0.10742457309E+02  0.51100000000E-03 0.  1.
        -12    1    3    3    0    0  0.59666582516E+01  0.16215209973E+02  0.37010068360E+02  0.40844573754E+02  0.00000000000E+00 0.  1.
</event>
<event>
 7    1  0.2578619E-015  0.9000775E+02  0.7816164E-02  0.1186339E+00
        -11   -1    0    0    0    0  0.00000000000E+00  0.00000000000E+00  0.45593999997E+02  0.45594000000E+02  0.51100000000E-03 0.  1.
         11   -1    0    0    0    0 -0.00000000000E+00 -0.00000000000E+00 -0.45593999997E+02  0.45594000000E+02  0.51100000000E-03 0. -1.
    9900012    2    1    2    0    0 -0.45567949721E+00 -0.10253579034E+01 -0.36604836004E+00  0.90007748317E+02  0.90000009794E+02 0.  0.
        -12    1    1    2    0    0  0.45567949721E+00  0.10253579034E+01  0.36604836004E+00  0.11802516834E+01  0.00000000000E+00 0.  1.
         11    1    3    3    0    0  0.10318539478E+02  0.61134437445E+00 -0.10485669191E+02  0.14723968811E+02  0.51100000000E-03 0. -1.
        -11    1    3    3    0    0  0.82815699472E+01  0.32488021317E+02  0.13302648054E+02  0.36069604592E+02  0.51100000000E-03 0.  1.
         12    1    3    3    0    0 -0.19055788922E+02 -0.34124723595E+02 -0.31830272234E+01  0.39214174914E+02  0.00000000000E+00 0. -1.
</event>
<event>
 7    1  0.2578619E-015  0.9000772E+02  0.7816164E-02  0.1186339E+00
        -11   -1    0    0    0    0  0.00000000000E+00  0.00000000000E+00  0.45593999997E+02  0.45594000000E+02  0.51100000000E-03 0.  1.
         11   -1    0    0    0    0 -0.00000000000E+00 -0.00000000000E+00 -0.45593999997E+02  0.45594000000E+02  0.51100000000E-03 0. -1.
    9900012    2    1    2    0    0  0.10360693396E+01  0.68869693390E-01 -0.56113966898E+00  0.90007720186E+02  0.89999981293E+02 0.  0.
        -12    1    1    2    0    0 -0.10360693396E+01 -0.68869693390E-01  0.56113966898E+00  0.11802798139E+01  0.00000000000E+00 0.  1.
         11    1    3    3    0    0  0.35890742175E+02  0.30817308111E+01  0.18623157093E+02  0.40551996487E+02  0.51100000000E-03 0. -1.
        -11    1    3    3    0    0  0.12727267443E+01  0.77126339850E+01 -0.44269594841E+01  0.89834585148E+01  0.51100000000E-03 0.  1.
        -12    1    3    3    0    0 -0.36127399580E+02 -0.10725495103E+02 -0.14757337278E+02  0.40472265184E+02  0.00000000000E+00 0.  1.
</event>
<event>
 7    1  0.2578619E-015  0.9000785E+02  0.7816164E-02  0.1186339E+00
        -11   -1    0    0    0    0  0.00000000000E+00  0.00000000000E+00  0.45593999997E+02  0.45594000000E+02  0.51100000000E-03 0.  1.
         11   -1    0    0    0    0 -0.00000000000E+00 -0.00000000000E+00 -0.45593999997E+02  0.45594000000E+02  0.51100000000E-03 0. -1.
    9900012    2    1    2    0    0 -0.11190010737E+01 -0.34153099388E+00 -0.15476473628E+00  0.90007847914E+02  0.90000110706E+02 0.  0.
        -12    1    1    2    0    0  0.11190010737E+01  0.34153099388E+00  0.15476473628E+00  0.11801520861E+01  0.00000000000E+00 0.  1.
         11    1    3    3    0    0 -0.19122563012E+02 -0.12180044787E+02 -0.11892695597E+02  0.25601994375E+02  0.51100000000E-03 0. -1.
        -11    1    3    3    0    0 -0.69454904636E+01  0.14870894764E+02 -0.18733918607E+02  0.24906686964E+02  0.51100000000E-03 0.  1.
        -12    1    3    3    0    0  0.24949052402E+02 -0.30323809713E+01  0.30471849468E+02  0.39499166575E+02  0.00000000000E+00 0.  1.
</event>
<event>
 7    1  0.2578619E-015  0.9000778E+02  0.7816164E-02  0.1186339E+00
        -11   -1    0    0    0    0  0.00000000000E+00  0.00000000000E+00  0.45593999997E+02  0.45594000000E+02  0.51100000000E-03 0.  1.
         11   -1    0    0    0    0 -0.00000000000E+00 -0.00000000000E+00 -0.45593999997E+02  0.45594000000E+02  0.51100000000E-03 0. -1.
    9900012    2    1    2    0    0  0.88163903573E+00  0.58233833754E+00 -0.52584727590E+00  0.90007779391E+02  0.90000041279E+02 0.  0.
        -12    1    1    2    0    0 -0.88163903573E+00 -0.58233833754E+00  0.52584727590E+00  0.11802206092E+01  0.00000000000E+00 0.  1.
         11    1    3    3    0    0  0.62539922237E+01 -0.19588137054E+01  0.70331064298E+01  0.96132177849E+01  0.51100000000E-03 0. -1.
        -11    1    3    3    0    0  0.14283148356E+02  0.37253682300E+02 -0.69506031120E+01  0.40498840178E+02  0.51100000000E-03 0.  1.
         12    1    3    3    0    0 -0.19655501544E+02 -0.34712530257E+02 -0.60835059370E+00  0.39895721428E+02  0.00000000000E+00 0. -1.
</event>
<event>
 7    1  0.2578619E-015  0.9000787E+02  0.7816164E-02  0.1186339E+00
        -11   -1    0    0    0    0  0.00000000000E+00  0.00000000000E+00  0.45593999997E+02  0.45594000000E+02  0.51100000000E-03 0. -1.
         11   -1    0    0    0    0 -0.00000000000E+00 -0.00000000000E+00 -0.45593999997E+02  0.45594000000E+02  0.51100000000E-03 0.  1.
    9900012    2    1    2    0    0 -0.66056149516E+00 -0.83364428405E+00  0.51127638127E+00  0.90007869575E+02  0.90000132654E+02 0.  0.
        -12    1    1    2    0    0  0.66056149516E+00  0.83364428405E+00 -0.51127638127E+00  0.11801304247E+01  0.00000000000E+00 0.  1.
         11    1    3    3    0    0  0.71884929141E+01 -0.38938649732E+01  0.37363667859E+01  0.89887180302E+01  0.51100000000E-03 0. -1.
        -11    1    3    3    0    0 -0.44525232704E+01 -0.36364811654E+02  0.12101985295E+02  0.38583449023E+02  0.51100000000E-03 0.  1.
         12    1    3    3    0    0 -0.33965311389E+01  0.39425032344E+02 -0.15327075700E+02  0.42435702523E+02  0.00000000000E+00 0. -1.
</event>
<event>
 7    1  0.2578619E-015  0.9000774E+02  0.7816164E-02  0.1186339E+00
        -11   -1    0    0    0    0  0.00000000000E+00  0.00000000000E+00  0.45593999997E+02  0.45594000000E+02  0.51100000000E-03 0.  1.
         11   -1    0    0    0    0 -0.00000000000E+00 -0.00000000000E+00 -0.45593999997E+02  0.45594000000E+02  0.51100000000E-03 0. -1.
    9900012    2    1    2    0    0 -0.22900217594E+00  0.10381461322E+01  0.51265688720E+00  0.90007743048E+02  0.90000004456E+02 0.  0.
        -12    1    1    2    0    0  0.22900217594E+00 -0.10381461322E+01 -0.51265688720E+00  0.11802569519E+01  0.00000000000E+00 0.  1.
         11    1    3    3    0    0 -0.13905226796E+01  0.33226680354E+01  0.82721581786E+01  0.90223210644E+01  0.51100000000E-03 0. -1.
        -11    1    3    3    0    0  0.35361103254E+02  0.43768530212E+01  0.15746651202E+02  0.38955378191E+02  0.51100000000E-03 0.  1.
         12    1    3    3    0    0 -0.34199582750E+02 -0.66613749244E+01 -0.23506152493E+02  0.42030043792E+02  0.00000000000E+00 0. -1.
</event>
<event>
 7    1  0.2578619E-015  0.9000775E+02  0.7816164E-02  0.1186339E+00
        -11   -1    0    0    0    0  0.00000000000E+00  0.00000000000E+00  0.45593999997E+02  0.45594000000E+02  0.51100000000E-03 0. -1.
         11   -1    0    0    0    0 -0.00000000000E+00 -0.00000000000E+00 -0.45593999997E+02  0.45594000000E+02  0.51100000000E-03 0.  1.
    9900012    2    1    2    0    0  0.47718619879E+00 -0.77018329109E+00 -0.75636792722E+00  0.90007753665E+02  0.90000015213E+02 0.  0.
        -12    1    1    2    0    0 -0.47718619879E+00  0.77018329109E+00  0.75636792722E+00  0.11802463351E+01  0.00000000000E+00 0.  1.
         11    1    3    3    0    0  0.99463546041E+01 -0.27352849815E+02 -0.14367337299E+02  0.32458107527E+02  0.51100000000E-03 0. -1.
        -11    1    3    3    0    0  0.43730128562E+01 -0.36176324184E+01 -0.13516390400E+02  0.14659581013E+02  0.51100000000E-03 0.  1.
        -12    1    3    3    0    0 -0.13842181261E+02  0.30200298942E+02  0.27127359772E+02  0.42890065125E+02  0.00000000000E+00 0.  1.
</event>
<event>
 7    1  0.2578619E-015  0.9000767E+02  0.7816164E-02  0.1186339E+00
        -11   -1    0    0    0    0  0.00000000000E+00  0.00000000000E+00  0.45593999997E+02  0.45594000000E+02  0.51100000000E-03 0.  1.
         11   -1    0    0    0    0 -0.00000000000E+00 -0.00000000000E+00 -0.45593999997E+02  0.45594000000E+02  0.51100000000E-03 0. -1.
    9900012    2    1    2    0    0 -0.76331946892E+00  0.30950245834E+00 -0.84541359087E+00  0.90007672705E+02  0.89999933185E+02 0.  0.
        -12    1    1    2    0    0  0.76331946892E+00 -0.30950245834E+00  0.84541359087E+00  0.11803272949E+01  0.00000000000E+00 0.  1.
         11    1    3    3    0    0  0.44410393349E+01 -0.10416041692E+02 -0.17675512842E+01  0.11460409797E+02  0.51100000000E-03 0. -1.
        -11    1    3    3    0    0 -0.30315465119E+02 -0.32655705428E+00  0.27072381037E+02  0.40645391868E+02  0.51100000000E-03 0.  1.
         12    1    3    3    0    0  0.25111106315E+02  0.11052101205E+02 -0.26150243343E+02  0.37901871040E+02  0.00000000000E+00 0. -1.
</event>
<event>
 7    1  0.2578619E-015  0.9000771E+02  0.7816164E-02  0.1186339E+00
        -11   -1    0    0    0    0  0.00000000000E+00  0.00000000000E+00  0.45593999997E+02  0.45594000000E+02  0.51100000000E-03 0.  1.
         11   -1    0    0    0    0 -0.00000000000E+00 -0.00000000000E+00 -0.45593999997E+02  0.45594000000E+02  0.51100000000E-03 0. -1.
    9900012    2    1    2    0    0 -0.34982035142E+00  0.42331797529E+00 -0.10447566594E+01  0.90007708145E+02  0.89999969092E+02 0.  0.
        -12    1    1    2    0    0  0.34982035142E+00 -0.42331797529E+00  0.10447566594E+01  0.11802918553E+01  0.00000000000E+00 0.  1.
         11    1    3    3    0    0 -0.38654105909E+02 -0.50353956500E+01  0.49742514527E+01  0.39296797462E+02  0.51100000000E-03 0. -1.
        -11    1    3    3    0    0 -0.24372339352E+01  0.79821076431E+01 -0.52969604822E+01  0.98849351182E+01  0.51100000000E-03 0.  1.
        -12    1    3    3    0    0  0.40741519493E+02 -0.25233940178E+01 -0.72204762979E+00  0.40825975564E+02  0.00000000000E+00 0.  1.
</event>
<event>
 7    1  0.2578619E-015  0.9000786E+02  0.7816164E-02  0.1186339E+00
        -11   -1    0    0    0    0  0.00000000000E+00  0.00000000000E+00  0.45593999997E+02  0.45594000000E+02  0.51100000000E-03 0. -1.
         11   -1    0    0    0    0 -0.00000000000E+00 -0.00000000000E+00 -0.45593999997E+02  0.45594000000E+02  0.51100000000E-03 0.  1.
    9900012    2    1    2    0    0  0.75128247982E+00 -0.90629426406E+00 -0.83339464036E-01  0.90007855889E+02  0.90000118786E+02 0.  0.
        -12    1    1    2    0    0 -0.75128247982E+00  0.90629426406E+00  0.83339464036E-01  0.11801441115E+01  0.00000000000E+00 0.  1.
         11    1    3    3    0    0 -0.24802796670E-01  0.12324871244E+02 -0.17854401123E+01  0.12453548210E+02  0.51100000000E-03 0. -1.
        -11    1    3    3    0    0 -0.28120172336E+02 -0.29617913006E+02 -0.10493280394E+02  0.42167212342E+02  0.51100000000E-03 0.  1.
         12    1    3    3    0    0  0.28896257612E+02  0.16386747498E+02  0.12195381042E+02  0.35387095336E+02  0.00000000000E+00 0. -1.
</event>
<event>
 7    1  0.2578619E-015  0.9000764E+02  0.7816164E-02  0.1186339E+00
        -11   -1    0    0    0    0  0.00000000000E+00  0.00000000000E+00  0.45593999997E+02  0.45594000000E+02  0.51100000000E-03 0. -1.
         11   -1    0    0    0    0 -0.00000000000E+00 -0.00000000000E+00 -0.45593999997E+02  0.45594000000E+02  0.51100000000E-03 0.  1.
    9900012    2    1    2    0    0 -0.27356143516E-01 -0.11546895104E+01  0.24331620750E+00  0.90007636073E+02  0.89999896069E+02 0.  0.
        -12    1    1    2    0    0  0.27356143516E-01  0.11546895104E+01 -0.24331620750E+00  0.11803639273E+01  0.00000000000E+00 0.  1.
         11    1    3    3    0    0  0.34834699502E+01 -0.78127737891E+01 -0.58498555914E+01  0.10363146620E+02  0.51100000000E-03 0. -1.
        -11    1    3    3    0    0  0.26289294228E+02  0.26939294047E+02 -0.11737553091E+02  0.39428704107E+02  0.51100000000E-03 0.  1.
         12    1    3    3    0    0 -0.29800120321E+02 -0.20281209768E+02  0.17830724890E+02  0.40215785345E+02  0.00000000000E+00 0. -1.
</event>
<event>
 7    1  0.2578619E-015  0.9000766E+02  0.7816164E-02  0.1186339E+00
        -11   -1    0    0    0    0  0.00000000000E+00  0.00000000000E+00  0.45593999997E+02  0.45594000000E+02  0.51100000000E-03 0.  1.
         11   -1    0    0    0    0 -0.00000000000E+00 -0.00000000000E+00 -0.45593999997E+02  0.45594000000E+02  0.51100000000E-03 0. -1.
    9900012    2    1    2    0    0 -0.27229619966E+00 -0.65761554421E+00  0.94159185626E+00  0.90007661638E+02  0.89999921972E+02 0.  0.
        -12    1    1    2    0    0  0.27229619966E+00  0.65761554421E+00 -0.94159185626E+00  0.11803383617E+01  0.00000000000E+00 0.  1.
         11    1    3    3    0    0  0.59531752975E+01 -0.61191232262E+01 -0.35338910658E+01  0.92397159862E+01  0.51100000000E-03 0. -1.
        -11    1    3    3    0    0  0.65452985988E+01  0.41050829492E+02 -0.47717253714E+01  0.41842333814E+02  0.51100000000E-03 0.  1.
         12    1    3    3    0    0 -0.12770770096E+02 -0.35589321810E+02  0.92472082935E+01  0.38925611838E+02  0.00000000000E+00 0. -1.
</event>
<event>
 7    1  0.2578619E-015  0.9000767E+02  0.7816164E-02  0.1186339E+00
        -11   -1    0    0    0    0  0.00000000000E+00  0.00000000000E+00  0.45593999997E+02  0.45594000000E+02  0.51100000000E-03 0.  1.
         11   -1    0    0    0    0 -0.00000000000E+00 -0.00000000000E+00 -0.45593999997E+02  0.45594000000E+02  0.51100000000E-03 0. -1.
    9900012    2    1    2    0    0 -0.58580664166E-01 -0.51368975335E-01 -0.11777576651E+01  0.90007668020E+02  0.89999928438E+02 0.  0.
        -12    1    1    2    0    0  0.58580664166E-01  0.51368975335E-01  0.11777576651E+01  0.11803319802E+01  0.00000000000E+00 0.  1.
         11    1    3    3    0    0 -0.12321255078E+02 -0.20312392827E+02 -0.26935914603E+02  0.35915875665E+02  0.51100000000E-03 0. -1.
        -11    1    3    3    0    0  0.10367730770E+01  0.21860623203E+01 -0.11193513981E+02  0.11452009535E+02  0.51100000000E-03 0.  1.
        -12    1    3    3    0    0  0.11225901337E+02  0.18074961531E+02  0.36951670919E+02  0.42639782819E+02  0.00000000000E+00 0.  1.
</event>
<event>
 7    1  0.2578619E-015  0.9000771E+02  0.7816164E-02  0.1186339E+00
        -11   -1    0    0    0    0  0.00000000000E+00  0.00000000000E+00  0.45593999997E+02  0.45594000000E+02  0.51100000000E-03 0.  1.
         11   -1    0    0    0    0 -0.00000000000E+00 -0.00000000000E+00 -0.45593999997E+02  0.45594000000E+02  0.51100000000E-03 0. -1.
    9900012    2    1    2    0    0  0.11123694228E+01 -0.25326812422E+00  0.30260206198E+00  0.90007712542E+02  0.89999973548E+02 0.  0.
        -12    1    1    2    0    0 -0.11123694228E+01  0.25326812422E+00 -0.30260206198E+00  0.11802874579E+01  0.00000000000E+00 0.  1.
         11    1    3    3    0    0 -0.66709900534E+01 -0.62688699028E+00  0.58065625853E+01  0.88662993920E+01  0.51100000000E-03 0. -1.
        -11    1    3    3    0    0 -0.61789198727E+01  0.86960649438E+01  0.35481468798E+02  0.37050441625E+02  0.51100000000E-03 0.  1.
         12    1    3    3    0    0  0.13962279349E+02 -0.83224460777E+01 -0.40985429321E+02  0.44090971525E+02  0.00000000000E+00 0. -1.
</event>
<event>
 7    1  0.2578619E-015  0.9000764E+02  0.7816164E-02  0.1186339E+00
        -11   -1    0    0    0    0  0.00000000000E+00  0.00000000000E+00  0.45593999997E+02  0.45594000000E+02  0.51100000000E-03 0.  1.
         11   -1    0    0    0    0 -0.00000000000E+00 -0.00000000000E+00 -0.45593999997E+02  0.45594000000E+02  0.51100000000E-03 0. -1.
    9900012    2    1    2    0    0 -0.59954969281E+00  0.68281631922E+00 -0.75335293284E+00  0.90007644714E+02  0.89999904824E+02 0.  0.
        -12    1    1    2    0    0  0.59954969281E+00 -0.68281631922E+00  0.75335293284E+00  0.11803552861E+01  0.00000000000E+00 0.  1.
         11    1    3    3    0    0  0.36256440545E+01  0.10927155119E+01  0.79938112458E+01  0.88453570021E+01  0.51100000000E-03 0. -1.
        -11    1    3    3    0    0 -0.31981523120E+02 -0.26598760200E+02  0.15849572375E+01  0.41627202103E+02  0.51100000000E-03 0.  1.
         12    1    3    3    0    0  0.27756329372E+02  0.26188861008E+02 -0.10332121416E+02  0.39535085608E+02  0.00000000000E+00 0. -1.
</event>
<event>
 7    1  0.2578619E-015  0.9000771E+02  0.7816164E-02  0.1186339E+00
        -11   -1    0    0    0    0  0.00000000000E+00  0.00000000000E+00  0.45593999997E+02  0.45594000000E+02  0.51100000000E-03 0. -1.
         11   -1    0    0    0    0 -0.00000000000E+00 -0.00000000000E+00 -0.45593999997E+02  0.45594000000E+02  0.51100000000E-03 0.  1.
    9900012    2    1    2    0    0 -0.11252682217E+00  0.75015522329E+00  0.90425829564E+00  0.90007712658E+02  0.89999973665E+02 0.  0.
        -12    1    1    2    0    0  0.11252682217E+00 -0.75015522329E+00 -0.90425829564E+00  0.11802873421E+01  0.00000000000E+00 0.  1.
         11    1    3    3    0    0 -0.29367861178E+02  0.22176775629E+02  0.16307385985E+01  0.36836665921E+02  0.51100000000E-03 0. -1.
        -11    1    3    3    0    0  0.53109481948E+01  0.11097280157E+02  0.28410074267E+01  0.12626445306E+02  0.51100000000E-03 0.  1.
        -12    1    3    3    0    0  0.23944386161E+02 -0.32523900563E+02 -0.35674877296E+01  0.40544601431E+02  0.00000000000E+00 0.  1.
</event>
<event>
 7    1  0.2578619E-015  0.9000788E+02  0.7816164E-02  0.1186339E+00
        -11   -1    0    0    0    0  0.00000000000E+00  0.00000000000E+00  0.45593999997E+02  0.45594000000E+02  0.51100000000E-03 0.  1.
         11   -1    0    0    0    0 -0.00000000000E+00 -0.00000000000E+00 -0.45593999997E+02  0.45594000000E+02  0.51100000000E-03 0. -1.
    9900012    2    1    2    0    0 -0.68067789079E+00 -0.93972007263E+00 -0.21512207129E+00  0.90007884026E+02  0.90000147295E+02 0.  0.
        -12    1    1    2    0    0  0.68067789079E+00  0.93972007263E+00  0.21512207129E+00  0.11801159737E+01  0.00000000000E+00 0.  1.
         11    1    3    3    0    0  0.16857631466E+02  0.12967571762E+02 -0.26432240991E+02  0.33926405942E+02  0.51100000000E-03 0. -1.
        -11    1    3    3    0    0  0.19741874978E+00  0.45797695078E+01 -0.10415366283E+02  0.11379504294E+02  0.51100000000E-03 0.  1.
        -12    1    3    3    0    0 -0.17735728107E+02 -0.18487061343E+02  0.36632485203E+02  0.44701973790E+02  0.00000000000E+00 0.  1.
</event>
<event>
 7    1  0.2578619E-015  0.9000780E+02  0.7816164E-02  0.1186339E+00
        -11   -1    0    0    0    0  0.00000000000E+00  0.00000000000E+00  0.45593999997E+02  0.45594000000E+02  0.51100000000E-03 0.  1.
         11   -1    0    0    0    0 -0.00000000000E+00 -0.00000000000E+00 -0.45593999997E+02  0.45594000000E+02  0.51100000000E-03 0. -1.
    9900012    2    1    2    0    0 -0.44910982012E+00 -0.10913561301E+01 -0.11181688456E-01  0.90007795415E+02  0.90000057514E+02 0.  0.
        -12    1    1    2    0    0  0.44910982012E+00  0.10913561301E+01  0.11181688456E-01  0.11802045854E+01  0.00000000000E+00 0.  1.
         11    1    3    3    0    0 -0.98507676238E+01  0.13657246733E+00 -0.19240809615E+01  0.10037846513E+02  0.51100000000E-03 0. -1.
        -11    1    3    3    0    0 -0.63498281900E+01 -0.20999921732E+02  0.33170589879E+02  0.39769398587E+02  0.51100000000E-03 0.  1.
         12    1    3    3    0    0  0.15751485994E+02  0.19771993135E+02 -0.31257690606E+02  0.40200550314E+02  0.00000000000E+00 0. -1.
</event>
<event>
 7    1  0.2578619E-015  0.9000772E+02  0.7816164E-02  0.1186339E+00
        -11   -1    0    0    0    0  0.00000000000E+00  0.00000000000E+00  0.45593999997E+02  0.45594000000E+02  0.51100000000E-03 0. -1.
         11   -1    0    0    0    0 -0.00000000000E+00 -0.00000000000E+00 -0.45593999997E+02  0.45594000000E+02  0.51100000000E-03 0.  1.
    9900012    2    1    2    0    0 -0.74816623728E+00  0.61844530576E+00 -0.67143490286E+00  0.90007723700E+02  0.89999984853E+02 0.  0.
        -12    1    1    2    0    0  0.74816623728E+00 -0.61844530576E+00  0.67143490286E+00  0.11802762997E+01  0.00000000000E+00 0.  1.
         11    1    3    3    0    0 -0.28076109830E+01  0.25300655563E+02 -0.27126713838E+02  0.37200328698E+02  0.51100000000E-03 0. -1.
        -11    1    3    3    0    0 -0.76907650254E+01  0.62720780989E+01 -0.14208319551E+01  0.10025247830E+02  0.51100000000E-03 0.  1.
        -12    1    3    3    0    0  0.97502097711E+01 -0.30954288356E+02  0.27876110891E+02  0.42782147171E+02  0.00000000000E+00 0.  1.
</event>
<event>
 7    1  0.2578619E-015  0.9000779E+02  0.7816164E-02  0.1186339E+00
        -11   -1    0    0    0    0  0.00000000000E+00  0.00000000000E+00  0.45593999997E+02  0.45594000000E+02  0.51100000000E-03 0.  1.
         11   -1    0    0    0    0 -0.00000000000E+00 -0.00000000000E+00 -0.45593999997E+02  0.45594000000E+02  0.51100000000E-03 0. -1.
    9900012    2    1    2    0    0  0.73387359373E+00  0.74825876280E+00  0.54261741314E+00  0.90007790152E+02  0.90000052182E+02 0.  0.
        -12    1    1    2    0    0 -0.73387359373E+00 -0.74825876280E+00 -0.54261741314E+00  0.11802098478E+01  0.00000000000E+00 0.  1.
         11    1    3    3    0    0 -0.90836263703E+01 -0.30996885851E+01  0.27150748062E+01  0.99745660970E+01  0.51100000000E-03 0. -1.
        -11    1    3    3    0    0 -0.31581663454E+02 -0.13599742980E+02  0.42643944906E+01  0.34648802811E+02  0.51100000000E-03 0.  1.
         12    1    3    3    0    0  0.41399163418E+02  0.17447690328E+02 -0.64368518836E+01  0.45384421244E+02  0.00000000000E+00 0. -1.
</event>
<event>
 7    1  0.2578619E-015  0.9000774E+02  0.7816164E-02  0.1186339E+00
        -11   -1    0    0    0    0  0.00000000000E+00  0.00000000000E+00  0.45593999997E+02  0.45594000000E+02  0.51100000000E-03 0.  1.
         11   -1    0    0    0    0 -0.00000000000E+00 -0.00000000000E+00 -0.45593999997E+02  0.45594000000E+02  0.51100000000E-03 0. -1.
    9900012    2    1    2    0    0 -0.54081582033E+00 -0.36351629719E-01  0.10484300460E+01  0.90007742082E+02  0.90000003477E+02 0.  0.
        -12    1    1    2    0    0  0.54081582033E+00  0.36351629719E-01 -0.10484300460E+01  0.11802579183E+01  0.00000000000E+00 0.  1.
         11    1    3    3    0    0 -0.20185473423E+02 -0.29893753559E+02 -0.18670367349E+02  0.40616160040E+02  0.51100000000E-03 0. -1.
        -11    1    3    3    0    0 -0.19376461963E+01 -0.31407756979E+01  0.70834763948E+01  0.79871511105E+01  0.51100000000E-03 0.  1.
        -12    1    3    3    0    0  0.21582303799E+02  0.32998177627E+02  0.12635321000E+02  0.41404430932E+02  0.00000000000E+00 0.  1.
</event>
<event>
 7    1  0.2578619E-015  0.9000774E+02  0.7816164E-02  0.1186339E+00
        -11   -1    0    0    0    0  0.00000000000E+00  0.00000000000E+00  0.45593999997E+02  0.45594000000E+02  0.51100000000E-03 0. -1.
         11   -1    0    0    0    0 -0.00000000000E+00 -0.00000000000E+00 -0.45593999997E+02  0.45594000000E+02  0.51100000000E-03 0.  1.
    9900012    2    1    2    0    0 -0.23663165683E-01  0.10666170832E+01 -0.50474840019E+00  0.90007744564E+02  0.90000005992E+02 0.  0.
        -12    1    1    2    0    0  0.23663165683E-01 -0.10666170832E+01  0.50474840019E+00  0.11802554364E+01  0.00000000000E+00 0.  1.
         11    1    3    3    0    0  0.22147756785E+01 -0.53367843524E+01 -0.18857418426E+02  0.19722797177E+02  0.51100000000E-03 0. -1.
        -11    1    3    3    0    0 -0.32545757336E+01 -0.21728433051E+02 -0.15028301716E+02  0.26618920316E+02  0.51100000000E-03 0.  1.
         12    1    3    3    0    0  0.10161368895E+01  0.28131834486E+02  0.33380971742E+02  0.43666027071E+02  0.00000000000E+00 0. -1.
</event>
<event>
 7    1  0.2578619E-015  0.9000769E+02  0.7816164E-02  0.1186339E+00
        -11   -1    0    0    0    0  0.00000000000E+00  0.00000000000E+00  0.45593999997E+02  0.45594000000E+02  0.51100000000E-03 0.  1.
         11   -1    0    0    0    0 -0.00000000000E+00 -0.00000000000E+00 -0.45593999997E+02  0.45594000000E+02  0.51100000000E-03 0. -1.
    9900012    2    1    2    0    0 -0.10445046944E+01 -0.53205073302E+00 -0.13805746902E+00  0.90007691606E+02  0.89999952336E+02 0.  0.
        -12    1    1    2    0    0  0.10445046944E+01  0.53205073302E+00  0.13805746902E+00  0.11803083935E+01  0.00000000000E+00 0.  1.
         11    1    3    3    0    0 -0.42153318200E+01  0.69948605429E+01  0.17216387816E+01  0.83463247435E+01  0.51100000000E-03 0. -1.
        -11    1    3    3    0    0 -0.26647460194E+02  0.25652191198E+02  0.47351297113E+00  0.36991164659E+02  0.51100000000E-03 0.  1.
         12    1    3    3    0    0  0.29818287320E+02 -0.33179102474E+02 -0.23332092218E+01  0.44670202204E+02  0.00000000000E+00 0. -1.
</event>
<event>
 7    1  0.2578619E-015  0.9000777E+02  0.7816164E-02  0.1186339E+00
        -11   -1    0    0    0    0  0.00000000000E+00  0.00000000000E+00  0.45593999997E+02  0.45594000000E+02  0.51100000000E-03 0. -1.
         11   -1    0    0    0    0 -0.00000000000E+00 -0.00000000000E+00 -0.45593999997E+02  0.45594000000E+02  0.51100000000E-03 0.  1.
    9900012    2    1    2    0    0  0.70529419648E+00  0.88563157261E+00  0.33340718032E+00  0.90007769712E+02  0.90000031472E+02 0.  0.
        -12    1    1    2    0    0 -0.70529419648E+00 -0.88563157261E+00 -0.33340718032E+00  0.11802302885E+01  0.00000000000E+00 0.  1.
         11    1    3    3    0    0 -0.60028687720E+01  0.80516727785E+01 -0.15881233437E+02  0.18790355073E+02  0.51100000000E-03 0. -1.
        -11    1    3    3    0    0  0.27841091075E+02 -0.22600640634E+02 -0.66446951629E+01  0.36470087515E+02  0.51100000000E-03 0.  1.
         12    1    3    3    0    0 -0.21132928106E+02  0.15434599428E+02  0.22859335781E+02  0.34747327123E+02  0.00000000000E+00 0. -1.
</event>
<event>
 7    1  0.2578619E-015  0.9000778E+02  0.7816164E-02  0.1186339E+00
        -11   -1    0    0    0    0  0.00000000000E+00  0.00000000000E+00  0.45593999997E+02  0.45594000000E+02  0.51100000000E-03 0. -1.
         11   -1    0    0    0    0 -0.00000000000E+00 -0.00000000000E+00 -0.45593999997E+02  0.45594000000E+02  0.51100000000E-03 0.  1.
    9900012    2    1    2    0    0  0.20343830405E-01  0.10407417384E+01 -0.55619822327E+00  0.90007782350E+02  0.90000044277E+02 0.  0.
        -12    1    1    2    0    0 -0.20343830405E-01 -0.10407417384E+01  0.55619822327E+00  0.11802176498E+01  0.00000000000E+00 0.  1.
         11    1    3    3    0    0 -0.76158427007E+01  0.64371308535E+01 -0.79393971855E+00  0.10003402131E+02  0.51100000000E-03 0. -1.
        -11    1    3    3    0    0 -0.12462218625E+02  0.33253528640E+02 -0.59394479866E+01  0.36005292704E+02  0.51100000000E-03 0.  1.
         12    1    3    3    0    0  0.20098405156E+02 -0.38649917755E+02  0.61771894818E+01  0.43999087515E+02  0.00000000000E+00 0. -1.
</event>
<event>
 7    1  0.2578619E-015  0.9000772E+02  0.7816164E-02  0.1186339E+00
        -11   -1    0    0    0    0  0.00000000000E+00  0.00000000000E+00  0.45593999997E+02  0.45594000000E+02  0.51100000000E-03 0.  1.
         11   -1    0    0    0    0 -0.00000000000E+00 -0.00000000000E+00 -0.45593999997E+02  0.45594000000E+02  0.51100000000E-03 0. -1.
    9900012    2    1    2    0    0  0.87358397931E+00  0.46787595828E+00  0.64109711052E+00  0.90007719361E+02  0.89999980457E+02 0.  0.
        -12    1    1    2    0    0 -0.87358397931E+00 -0.46787595828E+00 -0.64109711052E+00  0.11802806388E+01  0.00000000000E+00 0.  1.
         11    1    3    3    0    0 -0.76921819799E+00 -0.10504939979E+02  0.24037301787E+01  0.10803859479E+02  0.51100000000E-03 0. -1.
        -11    1    3    3    0    0 -0.37968380386E+02  0.20823078973E+01  0.38551842159E+01  0.38220365787E+02  0.51100000000E-03 0.  1.
         12    1    3    3    0    0  0.39611182563E+02  0.88905080402E+01 -0.56178172841E+01  0.40983494096E+02  0.00000000000E+00 0. -1.
</event>
<event>
 7    1  0.2578619E-015  0.9000773E+02  0.7816164E-02  0.1186339E+00
        -11   -1    0    0    0    0  0.00000000000E+00  0.00000000000E+00  0.45593999997E+02  0.45594000000E+02  0.51100000000E-03 0. -1.
         11   -1    0    0    0    0 -0.00000000000E+00 -0.00000000000E+00 -0.45593999997E+02  0.45594000000E+02  0.51100000000E-03 0.  1.
    9900012    2    1    2    0    0  0.10477242335E+01  0.53867785781E+00  0.71656202189E-01  0.90007731168E+02  0.89999992420E+02 0.  0.
        -12    1    1    2    0    0 -0.10477242335E+01 -0.53867785781E+00 -0.71656202189E-01  0.11802688317E+01  0.00000000000E+00 0.  1.
         11    1    3    3    0    0  0.45490780532E+01 -0.68827555199E+01 -0.65609341547E+01  0.10540981545E+02  0.51100000000E-03 0. -1.
        -11    1    3    3    0    0  0.30675791864E+02  0.19660767144E+02 -0.12386920346E+02  0.38483577888E+02  0.51100000000E-03 0.  1.
         12    1    3    3    0    0 -0.34177145684E+02 -0.12239333766E+02  0.19019510703E+02  0.40983171735E+02  0.00000000000E+00 0. -1.
</event>
<event>
 7    1  0.2578619E-015  0.9000769E+02  0.7816164E-02  0.1186339E+00
        -11   -1    0    0    0    0  0.00000000000E+00  0.00000000000E+00  0.45593999997E+02  0.45594000000E+02  0.51100000000E-03 0.  1.
         11   -1    0    0    0    0 -0.00000000000E+00 -0.00000000000E+00 -0.45593999997E+02  0.45594000000E+02  0.51100000000E-03 0. -1.
    9900012    2    1    2    0    0 -0.53778183026E+00 -0.19797373465E+00 -0.10318586537E+01  0.90007688525E+02  0.89999949214E+02 0.  0.
        -12    1    1    2    0    0  0.53778183026E+00  0.19797373465E+00  0.10318586537E+01  0.11803114749E+01  0.00000000000E+00 0.  1.
         11    1    3    3    0    0 -0.30011656129E+01  0.58081818131E+01  0.58827060754E+01  0.87947826602E+01  0.51100000000E-03 0. -1.
        -11    1    3    3    0    0 -0.89182926462E+01  0.12002498271E+02  0.32854416169E+02  0.36097210011E+02  0.51100000000E-03 0.  1.
         12    1    3    3    0    0  0.11381676429E+02 -0.18008653819E+02 -0.39768980899E+02  0.45115695854E+02  0.00000000000E+00 0. -1.
</event>
<event>
 7    1  0.2578619E-015  0.9000762E+02  0.7816164E-02  0.1186339E+00
        -11   -1    0    0    0    0  0.00000000000E+00  0.00000000000E+00  0.45593999997E+02  0.45594000000E+02  0.51100000000E-03 0. -1.
         11   -1    0    0    0    0 -0.00000000000E+00 -0.00000000000E+00 -0.45593999997E+02  0.45594000000E+02  0.51100000000E-03 0.  1.
    9900012    2    1    2    0    0  0.32304032037E+00 -0.22138266074E+00  0.11135258550E+01  0.90007616520E+02  0.89999876258E+02 0.  0.
        -12    1    1    2    0    0 -0.32304032037E+00  0.22138266074E+00 -0.11135258550E+01  0.11803834804E+01  0.00000000000E+00 0.  1.
         11    1    3    3    0    0  0.13198319564E+02  0.28457809364E+02  0.20615681451E+02  0.37537299784E+02  0.51100000000E-03 0. -1.
        -11    1    3    3    0    0  0.18790576720E+01  0.27657129873E+00  0.90280494371E+01  0.92256721336E+01  0.51100000000E-03 0.  1.
        -12    1    3    3    0    0 -0.14754336916E+02 -0.28955763324E+02 -0.28530205033E+02  0.43244644602E+02  0.00000000000E+00 0.  1.
</event>
<event>
 7    1  0.2578619E-015  0.9000769E+02  0.7816164E-02  0.1186339E+00
        -11   -1    0    0    0    0  0.00000000000E+00  0.00000000000E+00  0.45593999997E+02  0.45594000000E+02  0.51100000000E-03 0. -1.
         11   -1    0    0    0    0 -0.00000000000E+00 -0.00000000000E+00 -0.45593999997E+02  0.45594000000E+02  0.51100000000E-03 0.  1.
    9900012    2    1    2    0    0 -0.10431132699E+01 -0.52934655562E+00  0.15758433474E+00  0.90007692459E+02  0.89999953199E+02 0.  0.
        -12    1    1    2    0    0  0.10431132699E+01  0.52934655562E+00 -0.15758433474E+00  0.11803075414E+01  0.00000000000E+00 0.  1.
         11    1    3    3    0    0 -0.19889994955E+02 -0.29287151321E+02  0.16379674576E+02  0.39008241069E+02  0.51100000000E-03 0. -1.
        -11    1    3    3    0    0 -0.53035190203E+01 -0.45019624469E+01 -0.43952601700E+01  0.82288086680E+01  0.51100000000E-03 0.  1.
        -12    1    3    3    0    0  0.24150400706E+02  0.33259767212E+02 -0.11826830071E+02  0.42770642721E+02  0.00000000000E+00 0.  1.
</event>
<event>
 7    1  0.2578619E-015  0.9000776E+02  0.7816164E-02  0.1186339E+00
        -11   -1    0    0    0    0  0.00000000000E+00  0.00000000000E+00  0.45593999997E+02  0.45594000000E+02  0.51100000000E-03 0.  1.
         11   -1    0    0    0    0 -0.00000000000E+00 -0.00000000000E+00 -0.45593999997E+02  0.45594000000E+02  0.51100000000E-03 0. -1.
    9900012    2    1    2    0    0 -0.88377267984E+00  0.20328241292E-01  0.78198859014E+00  0.90007756999E+02  0.90000018591E+02 0.  0.
        -12    1    1    2    0    0  0.88377267984E+00 -0.20328241292E-01 -0.78198859014E+00  0.11802430013E+01  0.00000000000E+00 0.  1.
         11    1    3    3    0    0 -0.12403231016E+02 -0.33779815441E+02  0.12765968100E+01  0.36007579348E+02  0.51100000000E-03 0. -1.
        -11    1    3    3    0    0  0.25849132352E+01 -0.92092532088E+01 -0.29336322721E+01  0.10004914776E+02  0.51100000000E-03 0.  1.
        -12    1    3    3    0    0  0.89345451012E+01  0.43009396891E+02  0.24390240522E+01  0.43995262875E+02  0.00000000000E+00 0.  1.
</event>
<event>
 7    1  0.2578619E-015  0.9000789E+02  0.7816164E-02  0.1186339E+00
        -11   -1    0    0    0    0  0.00000000000E+00  0.00000000000E+00  0.45593999997E+02  0.45594000000E+02  0.51100000000E-03 0. -1.
         11   -1    0    0    0    0 -0.00000000000E+00 -0.00000000000E+00 -0.45593999997E+02  0.45594000000E+02  0.51100000000E-03 0.  1.
    9900012    2    1    2    0    0 -0.48885698073E+00  0.10118445656E+01  0.36033494445E+00  0.90007893291E+02  0.90000156682E+02 0.  0.
        -12    1    1    2    0    0  0.48885698073E+00 -0.10118445656E+01 -0.36033494445E+00  0.11801067090E+01  0.00000000000E+00 0.  1.
         11    1    3    3    0    0 -0.75544198021E+01  0.51036647046E+01  0.36477145871E+01  0.98194945865E+01  0.51100000000E-03 0. -1.
        -11    1    3    3    0    0 -0.26523128933E+02 -0.28047892148E+02 -0.48271443307E+01  0.38903238233E+02  0.51100000000E-03 0.  1.
         12    1    3    3    0    0  0.33588691754E+02  0.23956072009E+02  0.15397646880E+01  0.41285160472E+02  0.00000000000E+00 0. -1.
</event>
<event>
 7    1  0.2578619E-015  0.9000762E+02  0.7816164E-02  0.1186339E+00
        -11   -1    0    0    0    0  0.00000000000E+00  0.00000000000E+00  0.45593999997E+02  0.45594000000E+02  0.51100000000E-03 0.  1.
         11   -1    0    0    0    0 -0.00000000000E+00 -0.00000000000E+00 -0.45593999997E+02  0.45594000000E+02  0.51100000000E-03 0. -1.
    9900012    2    1    2    0    0  0.28869556548E+00 -0.60722075505E+00 -0.97017648256E+00  0.90007616765E+02  0.89999876506E+02 0.  0.
        -12    1    1    2    0    0 -0.28869556548E+00  0.60722075505E+00  0.97017648256E+00  0.11803832353E+01  0.00000000000E+00 0.  1.
         11    1    3    3    0    0  0.22392069890E+02 -0.33746839873E+02  0.68474811736E+01  0.41074834072E+02  0.51100000000E-03 0. -1.
        -11    1    3    3    0    0 -0.56949356534E+00  0.26011638715E+01 -0.11106425762E+02  0.11421167623E+02  0.51100000000E-03 0.  1.
        -12    1    3    3    0    0 -0.21533880759E+02  0.30538455247E+02  0.32887681061E+01  0.37511615069E+02  0.00000000000E+00 0.  1.
</event>
<event>
 7    1  0.2598877E-015  0.9000787E+02  0.7816164E-02  0.1186339E+00
        -11   -1    0    0    0    0  0.00000000000E+00  0.00000000000E+00  0.45593999997E+02  0.45594000000E+02  0.51100000000E-03 0.  1.
         11   -1    0    0    0    0 -0.00000000000E+00 -0.00000000000E+00 -0.45593999997E+02  0.45594000000E+02  0.51100000000E-03 0. -1.
    9900012    2    1    2    0    0 -0.59747539016E+00  0.90686932357E+00 -0.46186084856E+00  0.90007871085E+02  0.90000134184E+02 0.  0.
        -12    1    1    2    0    0  0.59747539016E+00 -0.90686932357E+00  0.46186084856E+00  0.11801289147E+01  0.00000000000E+00 0.  1.
         11    1    3    3    0    0  0.31680525194E+01 -0.59192153043E+01  0.58206403633E+01  0.88855793893E+01  0.51100000000E-03 0. -1.
        -11    1    3    3    0    0  0.10153101747E+02 -0.34003337618E+02  0.66165369968E+01  0.36098351851E+02  0.51100000000E-03 0.  1.
         12    1    3    3    0    0 -0.13918629656E+02  0.40829422246E+02 -0.12899038209E+02  0.45023939845E+02  0.00000000000E+00 0. -1.
</event>
<event>
 7    1  0.4153394E-015  0.9000743E+02  0.7816164E-02  0.1186340E+00
        -11   -1    0    0    0    0  0.00000000000E+00  0.00000000000E+00  0.45593999997E+02  0.45594000000E+02  0.51100000000E-03 0. -1.
         11   -1    0    0    0    0 -0.00000000000E+00 -0.00000000000E+00 -0.45593999997E+02  0.45594000000E+02  0.51100000000E-03 0.  1.
    9900012    2    1    2    0    0 -0.66689071794E+00 -0.33991338176E+00  0.91293652577E+00  0.90007433425E+02  0.89999690746E+02 0.  0.
        -12    1    1    2    0    0  0.66689071794E+00  0.33991338176E+00 -0.91293652577E+00  0.11805665745E+01  0.00000000000E+00 0.  1.
         11    1    3    3    0    0  0.65934163902E+01 -0.61053673454E+01  0.46959177991E+01  0.10139048000E+02  0.51100000000E-03 0. -1.
        -11    1    3    3    0    0  0.76843397599E+01 -0.27310176663E+02 -0.25010951404E+02  0.37821191378E+02  0.51100000000E-03 0.  1.
         12    1    3    3    0    0 -0.14944646868E+02  0.33075630627E+02  0.21227970130E+02  0.42047194047E+02  0.00000000000E+00 0. -1.
</event>
<event>
 7    1  0.2578619E-015  0.9000768E+02  0.7816164E-02  0.1186339E+00
        -11   -1    0    0    0    0  0.00000000000E+00  0.00000000000E+00  0.45593999997E+02  0.45594000000E+02  0.51100000000E-03 0. -1.
         11   -1    0    0    0    0 -0.00000000000E+00 -0.00000000000E+00 -0.45593999997E+02  0.45594000000E+02  0.51100000000E-03 0.  1.
    9900012    2    1    2    0    0  0.10806610402E+01 -0.27371854168E+00  0.38783025116E+00  0.90007676982E+02  0.89999937518E+02 0.  0.
        -12    1    1    2    0    0 -0.10806610402E+01  0.27371854168E+00 -0.38783025116E+00  0.11803230183E+01  0.00000000000E+00 0.  1.
         11    1    3    3    0    0 -0.48845914604E+01 -0.27549903756E+02  0.26724246044E+02  0.38691623868E+02  0.51100000000E-03 0. -1.
        -11    1    3    3    0    0  0.63196268272E+01 -0.62671470209E+01 -0.39255446095E+00  0.89089232953E+01  0.51100000000E-03 0.  1.
        -12    1    3    3    0    0 -0.35437432662E+00  0.33543332235E+02 -0.25943861331E+02  0.42407129818E+02  0.00000000000E+00 0.  1.
</event>
<event>
 7    1  0.2578619E-015  0.9000774E+02  0.7816164E-02  0.1186339E+00
        -11   -1    0    0    0    0  0.00000000000E+00  0.00000000000E+00  0.45593999997E+02  0.45594000000E+02  0.51100000000E-03 0. -1.
         11   -1    0    0    0    0 -0.00000000000E+00 -0.00000000000E+00 -0.45593999997E+02  0.45594000000E+02  0.51100000000E-03 0.  1.
    9900012    2    1    2    0    0  0.14492855873E+00 -0.84459034191E-01  0.11682766942E+01  0.90007742380E+02  0.90000003779E+02 0.  0.
        -12    1    1    2    0    0 -0.14492855873E+00  0.84459034191E-01 -0.11682766942E+01  0.11802576201E+01  0.00000000000E+00 0.  1.
         11    1    3    3    0    0 -0.26624543622E+02 -0.23186737430E+02 -0.90073144255E+01  0.36436558964E+02  0.51100000000E-03 0. -1.
        -11    1    3    3    0    0 -0.57426398324E+00 -0.75116362764E+01 -0.58173502125E+01  0.95181942840E+01  0.51100000000E-03 0.  1.
        -12    1    3    3    0    0  0.27343736164E+02  0.30613914673E+02  0.15992941332E+02  0.44052989132E+02  0.00000000000E+00 0.  1.
</event>
<event>
 7    1  0.3634976E-015  0.9000780E+02  0.7816164E-02  0.1186339E+00
        -11   -1    0    0    0    0  0.00000000000E+00  0.00000000000E+00  0.45593999997E+02  0.45594000000E+02  0.51100000000E-03 0. -1.
         11   -1    0    0    0    0 -0.00000000000E+00 -0.00000000000E+00 -0.45593999997E+02  0.45594000000E+02  0.51100000000E-03 0.  1.
    9900012    2    1    2    0    0  0.91895233669E+00 -0.20664769243E+00  0.71111610850E+00  0.90007803921E+02  0.90000066132E+02 0.  0.
        -12    1    1    2    0    0 -0.91895233669E+00  0.20664769243E+00 -0.71111610850E+00  0.11801960793E+01  0.00000000000E+00 0.  1.
         11    1    3    3    0    0 -0.40431277581E+01  0.38728668813E+01  0.81706461139E+01  0.99048189346E+01  0.51100000000E-03 0. -1.
        -11    1    3    3    0    0 -0.22203359874E+02  0.64314243171E+01 -0.33721549898E+02  0.40883925157E+02  0.51100000000E-03 0.  1.
         12    1    3    3    0    0  0.27165439968E+02 -0.10510938891E+02  0.26262019893E+02  0.39219059829E+02  0.00000000000E+00 0. -1.
</event>
<event>
 7    1  0.2578619E-015  0.9000769E+02  0.7816164E-02  0.1186339E+00
        -11   -1    0    0    0    0  0.00000000000E+00  0.00000000000E+00  0.45593999997E+02  0.45594000000E+02  0.51100000000E-03 0. -1.
         11   -1    0    0    0    0 -0.00000000000E+00 -0.00000000000E+00 -0.45593999997E+02  0.45594000000E+02  0.51100000000E-03 0.  1.
    9900012    2    1    2    0    0  0.20734092657E+00 -0.77276563071E+00  0.86773612463E+00  0.90007693700E+02  0.89999954457E+02 0.  0.
        -12    1    1    2    0    0 -0.20734092657E+00  0.77276563071E+00 -0.86773612463E+00  0.11803063000E+01  0.00000000000E+00 0.  1.
         11    1    3    3    0    0  0.96333648488E+01 -0.58947883886E+01 -0.10373397309E+02  0.15334849867E+02  0.51100000000E-03 0. -1.
        -11    1    3    3    0    0  0.80472164590E+01 -0.12932551532E+02 -0.25772469304E+02  0.29937079954E+02  0.51100000000E-03 0.  1.
         12    1    3    3    0    0 -0.17473240381E+02  0.18054574290E+02  0.37013602738E+02  0.44735763879E+02  0.00000000000E+00 0. -1.
</event>
<event>
 7    1  0.2578619E-015  0.9000780E+02  0.7816164E-02  0.1186339E+00
        -11   -1    0    0    0    0  0.00000000000E+00  0.00000000000E+00  0.45593999997E+02  0.45594000000E+02  0.51100000000E-03 0.  1.
         11   -1    0    0    0    0 -0.00000000000E+00 -0.00000000000E+00 -0.45593999997E+02  0.45594000000E+02  0.51100000000E-03 0. -1.
    9900012    2    1    2    0    0  0.99053557163E+00  0.38530301837E+00  0.51308682383E+00  0.90007797804E+02  0.90000059935E+02 0.  0.
        -12    1    1    2    0    0 -0.99053557163E+00 -0.38530301837E+00 -0.51308682383E+00  0.11802021960E+01  0.00000000000E+00 0.  1.
         11    1    3    3    0    0 -0.25058240908E+01 -0.17398982489E+01 -0.12302301070E+02  0.12674896929E+02  0.51100000000E-03 0. -1.
        -11    1    3    3    0    0  0.93984718124E+01  0.35360146330E+02 -0.83001958618E+01  0.37517522206E+02  0.51100000000E-03 0.  1.
         12    1    3    3    0    0 -0.59021121500E+01 -0.33234945063E+02  0.21115583755E+02  0.39815378668E+02  0.00000000000E+00 0. -1.
</event>
<event>
 7    1  0.2578619E-015  0.9000778E+02  0.7816164E-02  0.1186339E+00
        -11   -1    0    0    0    0  0.00000000000E+00  0.00000000000E+00  0.45593999997E+02  0.45594000000E+02  0.51100000000E-03 0. -1.
         11   -1    0    0    0    0 -0.00000000000E+00 -0.00000000000E+00 -0.45593999997E+02  0.45594000000E+02  0.51100000000E-03 0.  1.
    9900012    2    1    2    0    0 -0.60751598225E+00  0.10014438765E+01 -0.14476816770E+00  0.90007778271E+02  0.90000040144E+02 0.  0.
        -12    1    1    2    0    0  0.60751598225E+00 -0.10014438765E+01  0.14476816770E+00  0.11802217287E+01  0.00000000000E+00 0.  1.
         11    1    3    3    0    0  0.11607084254E+02  0.36543534479E+02  0.17469110727E+02  0.42134595607E+02  0.51100000000E-03 0. -1.
        -11    1    3    3    0    0  0.91475337708E+00 -0.23431075041E+01 -0.11351969377E+02  0.11627301300E+02  0.51100000000E-03 0.  1.
        -12    1    3    3    0    0 -0.13129353613E+02 -0.33198983099E+02 -0.62619095174E+01  0.36245881365E+02  0.00000000000E+00 0.  1.
</event>
<event>
 7    1  0.2578619E-015  0.9000776E+02  0.7816164E-02  0.1186339E+00
        -11   -1    0    0    0    0  0.00000000000E+00  0.00000000000E+00  0.45593999997E+02  0.45594000000E+02  0.51100000000E-03 0.  1.
         11   -1    0    0    0    0 -0.00000000000E+00 -0.00000000000E+00 -0.45593999997E+02  0.45594000000E+02  0.51100000000E-03 0. -1.
    9900012    2    1    2    0    0  0.87563293978E+00 -0.62565245300E+00 -0.48454542627E+00  0.90007763453E+02  0.90000025130E+02 0.  0.
        -12    1    1    2    0    0 -0.87563293978E+00  0.62565245300E+00  0.48454542627E+00  0.11802365472E+01  0.00000000000E+00 0.  1.
         11    1    3    3    0    0  0.69005911619E+01 -0.32006886969E+01 -0.58641822164E+01  0.96047488174E+01  0.51100000000E-03 0. -1.
        -11    1    3    3    0    0 -0.27628394234E+01  0.38844799900E+01  0.42675987533E+02  0.42941383055E+02  0.51100000000E-03 0.  1.
         12    1    3    3    0    0 -0.32621187987E+01 -0.13094437462E+01 -0.37296350743E+02  0.37461631581E+02  0.00000000000E+00 0. -1.
</event>
<event>
 7    1  0.2578619E-015  0.9000772E+02  0.7816164E-02  0.1186339E+00
        -11   -1    0    0    0    0  0.00000000000E+00  0.00000000000E+00  0.45593999997E+02  0.45594000000E+02  0.51100000000E-03 0.  1.
         11   -1    0    0    0    0 -0.00000000000E+00 -0.00000000000E+00 -0.45593999997E+02  0.45594000000E+02  0.51100000000E-03 0. -1.
    9900012    2    1    2    0    0 -0.44055548174E+00  0.38800932762E+00 -0.10239201129E+01  0.90007723436E+02  0.89999984585E+02 0.  0.
        -12    1    1    2    0    0  0.44055548174E+00 -0.38800932762E+00  0.10239201129E+01  0.11802765644E+01  0.00000000000E+00 0.  1.
         11    1    3    3    0    0  0.77349124149E+01  0.47799216863E+01 -0.35458153646E+01  0.97595762334E+01  0.51100000000E-03 0. -1.
        -11    1    3    3    0    0  0.25064437566E+02  0.12757848959E+02  0.24125283922E+02  0.37054258394E+02  0.51100000000E-03 0.  1.
         12    1    3    3    0    0 -0.33239905462E+02 -0.17149761317E+02 -0.21603388670E+02  0.43193888809E+02  0.00000000000E+00 0. -1.
</event>
<event>
 7    1  0.2578619E-015  0.9000774E+02  0.7816164E-02  0.1186339E+00
        -11   -1    0    0    0    0  0.00000000000E+00  0.00000000000E+00  0.45593999997E+02  0.45594000000E+02  0.51100000000E-03 0.  1.
         11   -1    0    0    0    0 -0.00000000000E+00 -0.00000000000E+00 -0.45593999997E+02  0.45594000000E+02  0.51100000000E-03 0. -1.
    9900012    2    1    2    0    0  0.18102475755E+00 -0.10502873069E+01 -0.50709789656E+00  0.90007736611E+02  0.89999997935E+02 0.  0.
        -12    1    1    2    0    0 -0.18102475755E+00  0.10502873069E+01  0.50709789656E+00  0.11802633887E+01  0.00000000000E+00 0.  1.
         11    1    3    3    0    0  0.57140256451E+01  0.22968480544E+01  0.82969880981E+01  0.10332744641E+02  0.51100000000E-03 0. -1.
        -11    1    3    3    0    0  0.25158264376E+02 -0.64623787210E+01 -0.31900404828E+02  0.41138016890E+02  0.51100000000E-03 0.  1.
         12    1    3    3    0    0 -0.30691265264E+02  0.31152433596E+01  0.23096318834E+02  0.38536975080E+02  0.00000000000E+00 0. -1.
</event>
<event>
 7    1  0.2578619E-015  0.9000779E+02  0.7816164E-02  0.1186339E+00
        -11   -1    0    0    0    0  0.00000000000E+00  0.00000000000E+00  0.45593999997E+02  0.45594000000E+02  0.51100000000E-03 0.  1.
         11   -1    0    0    0    0 -0.00000000000E+00 -0.00000000000E+00 -0.45593999997E+02  0.45594000000E+02  0.51100000000E-03 0. -1.
    9900012    2    1    2    0    0  0.52182160184E+00  0.86039908246E+00 -0.61669986727E+00  0.90007786845E+02  0.90000048831E+02 0.  0.
        -12    1    1    2    0    0 -0.52182160184E+00 -0.86039908246E+00  0.61669986727E+00  0.11802131551E+01  0.00000000000E+00 0.  1.
         11    1    3    3    0    0 -0.15668054250E+02  0.33722838298E+02  0.38479267538E+01  0.37383476128E+02  0.51100000000E-03 0. -1.
        -11    1    3    3    0    0 -0.49586899728E+01  0.62169089671E+01 -0.14843356272E+01  0.80896116017E+01  0.51100000000E-03 0.  1.
        -12    1    3    3    0    0  0.21148565825E+02 -0.39079348183E+02 -0.29802909938E+01  0.44534699115E+02  0.00000000000E+00 0.  1.
</event>
<event>
 7    1  0.4052614E-015  0.9000776E+02  0.7816164E-02  0.1186339E+00
        -11   -1    0    0    0    0  0.00000000000E+00  0.00000000000E+00  0.45593999997E+02  0.45594000000E+02  0.51100000000E-03 0. -1.
         11   -1    0    0    0    0 -0.00000000000E+00 -0.00000000000E+00 -0.45593999997E+02  0.45594000000E+02  0.51100000000E-03 0.  1.
    9900012    2    1    2    0    0 -0.61570458494E+00 -0.22750390918E+00  0.98087574766E+00  0.90007759602E+02  0.90000021229E+02 0.  0.
        -12    1    1    2    0    0  0.61570458494E+00  0.22750390918E+00 -0.98087574766E+00  0.11802403980E+01  0.00000000000E+00 0.  1.
         11    1    3    3    0    0 -0.26986716536E+00  0.59043050621E+01  0.69463091899E+01  0.91205733469E+01  0.51100000000E-03 0. -1.
        -11    1    3    3    0    0 -0.16029501109E+02 -0.50395511955E+01 -0.40005972321E+02  0.43391471554E+02  0.51100000000E-03 0.  1.
         12    1    3    3    0    0  0.15683663689E+02 -0.10922577758E+01  0.34040538879E+02  0.37495714701E+02  0.00000000000E+00 0. -1.
</event>
<event>
 7    1  0.2578619E-015  0.9000778E+02  0.7816164E-02  0.1186339E+00
        -11   -1    0    0    0    0  0.00000000000E+00  0.00000000000E+00  0.45593999997E+02  0.45594000000E+02  0.51100000000E-03 0.  1.
         11   -1    0    0    0    0 -0.00000000000E+00 -0.00000000000E+00 -0.45593999997E+02  0.45594000000E+02  0.51100000000E-03 0. -1.
    9900012    2    1    2    0    0  0.81375206896E+00 -0.77261880049E+00  0.36576104059E+00  0.90007782486E+02  0.90000044415E+02 0.  0.
        -12    1    1    2    0    0 -0.81375206896E+00  0.77261880049E+00 -0.36576104059E+00  0.11802175136E+01  0.00000000000E+00 0.  1.
         11    1    3    3    0    0 -0.28949423995E+02 -0.16745225291E+02 -0.22097937249E+02  0.40084792012E+02  0.51100000000E-03 0. -1.
        -11    1    3    3    0    0  0.93958253347E-01  0.29626916041E+01 -0.60683299524E+01  0.67535915162E+01  0.51100000000E-03 0.  1.
        -12    1    3    3    0    0  0.29669217811E+02  0.13009914886E+02  0.28532028242E+02  0.43169398959E+02  0.00000000000E+00 0.  1.
</event>
<event>
 7    1  0.2578619E-015  0.9000781E+02  0.7816164E-02  0.1186339E+00
        -11   -1    0    0    0    0  0.00000000000E+00  0.00000000000E+00  0.45593999997E+02  0.45594000000E+02  0.51100000000E-03 0.  1.
         11   -1    0    0    0    0 -0.00000000000E+00 -0.00000000000E+00 -0.45593999997E+02  0.45594000000E+02  0.51100000000E-03 0. -1.
    9900012    2    1    2    0    0  0.92521732686E+00  0.73165040123E+00 -0.38696634388E-01  0.90007814912E+02  0.90000077269E+02 0.  0.
        -12    1    1    2    0    0 -0.92521732686E+00 -0.73165040123E+00  0.38696634388E-01  0.11801850876E+01  0.00000000000E+00 0.  1.
         11    1    3    3    0    0  0.20239230702E+01 -0.24723999002E+01  0.73506913628E+01  0.80150913677E+01  0.51100000000E-03 0. -1.
        -11    1    3    3    0    0  0.27310439486E+02 -0.34569913626E+01  0.25849804312E+02  0.37762723385E+02  0.51100000000E-03 0.  1.
         12    1    3    3    0    0 -0.28409145230E+02  0.66610416641E+01 -0.33239192309E+02  0.44230000160E+02  0.00000000000E+00 0. -1.
</event>
<event>
 7    1  0.2578619E-015  0.9000686E+02  0.7816164E-02  0.1186341E+00
        -11   -1    0    0    0    0  0.00000000000E+00  0.00000000000E+00  0.45593999997E+02  0.45594000000E+02  0.51100000000E-03 0.  1.
         11   -1    0    0    0    0 -0.00000000000E+00 -0.00000000000E+00 -0.45593999997E+02  0.45594000000E+02  0.51100000000E-03 0. -1.
    9900012    2    1    2    0    0 -0.37666873892E+00  0.71816239764E+00 -0.85874578163E+00  0.90006864578E+02  0.89999114386E+02 0.  0.
        -12    1    1    2    0    0  0.37666873892E+00 -0.71816239764E+00  0.85874578163E+00  0.11811354223E+01  0.00000000000E+00 0.  1.
         11    1    3    3    0    0 -0.93559310737E+01  0.36927188697E+02  0.18501709201E+02  0.42349308789E+02  0.51100000000E-03 0. -1.
        -11    1    3    3    0    0 -0.35591114159E+01 -0.44696961760E+00 -0.68800151986E+01  0.77589732119E+01  0.51100000000E-03 0.  1.
        -12    1    3    3    0    0  0.12538373751E+02 -0.35762056682E+02 -0.12480439784E+02  0.39898582577E+02  0.00000000000E+00 0.  1.
</event>
<event>
 7    1  0.2578619E-015  0.9000770E+02  0.7816164E-02  0.1186339E+00
        -11   -1    0    0    0    0  0.00000000000E+00  0.00000000000E+00  0.45593999997E+02  0.45594000000E+02  0.51100000000E-03 0. -1.
         11   -1    0    0    0    0 -0.00000000000E+00 -0.00000000000E+00 -0.45593999997E+02  0.45594000000E+02  0.51100000000E-03 0.  1.
    9900012    2    1    2    0    0  0.92766931954E-01 -0.32918763826E+00  0.11296663775E+01  0.90007696510E+02  0.89999957304E+02 0.  0.
        -12    1    1    2    0    0 -0.92766931954E-01  0.32918763826E+00 -0.11296663775E+01  0.11803034904E+01  0.00000000000E+00 0.  1.
         11    1    3    3    0    0 -0.27383605395E+02 -0.17169776631E+02  0.17270413751E+02  0.36646012954E+02  0.51100000000E-03 0. -1.
        -11    1    3    3    0    0 -0.32126385566E+01 -0.58441277541E+01  0.62291886029E+01  0.91256597906E+01  0.51100000000E-03 0.  1.
        -12    1    3    3    0    0  0.30689010884E+02  0.22684716747E+02 -0.22369935977E+02  0.44236023765E+02  0.00000000000E+00 0.  1.
</event>
<event>
 7    1  0.2578619E-015  0.9000773E+02  0.7816164E-02  0.1186339E+00
        -11   -1    0    0    0    0  0.00000000000E+00  0.00000000000E+00  0.45593999997E+02  0.45594000000E+02  0.51100000000E-03 0. -1.
         11   -1    0    0    0    0 -0.00000000000E+00 -0.00000000000E+00 -0.45593999997E+02  0.45594000000E+02  0.51100000000E-03 0.  1.
    9900012    2    1    2    0    0 -0.78957720936E+00 -0.40898722346E+00  0.77610461100E+00  0.90007728385E+02  0.89999989599E+02 0.  0.
        -12    1    1    2    0    0  0.78957720936E+00  0.40898722346E+00 -0.77610461100E+00  0.11802716152E+01  0.00000000000E+00 0.  1.
         11    1    3    3    0    0  0.24231177467E+02 -0.22738981974E+02  0.14636580758E+02  0.36310339563E+02  0.51100000000E-03 0. -1.
        -11    1    3    3    0    0  0.79993694617E+01 -0.46084308375E+01 -0.31859830983E+01  0.97661678837E+01  0.51100000000E-03 0.  1.
        -12    1    3    3    0    0 -0.33020124138E+02  0.26938425588E+02 -0.10674493048E+02  0.43931220938E+02  0.00000000000E+00 0.  1.
</event>
<event>
 7    1  0.2578619E-015  0.9000695E+02  0.7816164E-02  0.1186341E+00
        -11   -1    0    0    0    0  0.00000000000E+00  0.00000000000E+00  0.45593999997E+02  0.45594000000E+02  0.51100000000E-03 0.  1.
         11   -1    0    0    0    0 -0.00000000000E+00 -0.00000000000E+00 -0.45593999997E+02  0.45594000000E+02  0.51100000000E-03 0. -1.
    9900012    2    1    2    0    0  0.26767053123E+00  0.17944971221E+00 -0.11362394143E+01  0.90006945505E+02  0.89999196383E+02 0.  0.
        -12    1    1    2    0    0 -0.26767053123E+00 -0.17944971221E+00  0.11362394143E+01  0.11810544946E+01  0.00000000000E+00 0.  1.
         11    1    3    3    0    0  0.62374323746E+01 -0.10421709042E+02 -0.34330047342E+02  0.36415240391E+02  0.51100000000E-03 0. -1.
        -11    1    3    3    0    0  0.32014318083E+01  0.20060674532E+02  0.28533032045E+01  0.20513926190E+02  0.51100000000E-03 0.  1.
        -12    1    3    3    0    0 -0.91711936517E+01 -0.94595157777E+01  0.30340504723E+02  0.33077778924E+02  0.00000000000E+00 0.  1.
</event>
<event>
 7    1  0.2578619E-015  0.9000771E+02  0.7816164E-02  0.1186339E+00
        -11   -1    0    0    0    0  0.00000000000E+00  0.00000000000E+00  0.45593999997E+02  0.45594000000E+02  0.51100000000E-03 0.  1.
         11   -1    0    0    0    0 -0.00000000000E+00 -0.00000000000E+00 -0.45593999997E+02  0.45594000000E+02  0.51100000000E-03 0. -1.
    9900012    2    1    2    0    0 -0.41198743927E+00 -0.10052452379E+01 -0.46133998631E+00  0.90007709264E+02  0.89999970226E+02 0.  0.
        -12    1    1    2    0    0  0.41198743927E+00  0.10052452379E+01  0.46133998631E+00  0.11802907359E+01  0.00000000000E+00 0.  1.
         11    1    3    3    0    0  0.80425382604E+01  0.31713215219E+02 -0.19510623903E+02  0.38092976866E+02  0.51100000000E-03 0. -1.
        -11    1    3    3    0    0 -0.24766282028E+01 -0.11700844391E+01 -0.89203692823E+01  0.93314400412E+01  0.51100000000E-03 0.  1.
        -12    1    3    3    0    0 -0.59778974969E+01 -0.31548376018E+02  0.27969653199E+02  0.42583292356E+02  0.00000000000E+00 0.  1.
</event>
<event>
 7    1  0.2578619E-015  0.9000778E+02  0.7816164E-02  0.1186339E+00
        -11   -1    0    0    0    0  0.00000000000E+00  0.00000000000E+00  0.45593999997E+02  0.45594000000E+02  0.51100000000E-03 0.  1.
         11   -1    0    0    0    0 -0.00000000000E+00 -0.00000000000E+00 -0.45593999997E+02  0.45594000000E+02  0.51100000000E-03 0. -1.
    9900012    2    1    2    0    0 -0.38322509205E+00 -0.11162228431E+01  0.10720530378E-01  0.90007775514E+02  0.90000037351E+02 0.  0.
        -12    1    1    2    0    0  0.38322509205E+00  0.11162228431E+01 -0.10720530378E-01  0.11802244856E+01  0.00000000000E+00 0.  1.
         11    1    3    3    0    0 -0.59845014248E+01 -0.35754064576E+02 -0.29725590188E+01  0.36373115049E+02  0.51100000000E-03 0. -1.
        -11    1    3    3    0    0 -0.46534443822E+01 -0.78344360259E+01 -0.28655980317E+01  0.95522031386E+01  0.51100000000E-03 0.  1.
        -12    1    3    3    0    0  0.10254720715E+02  0.42472277759E+02  0.58488775809E+01  0.44082457326E+02  0.00000000000E+00 0.  1.
</event>
<event>
 7    1  0.2578619E-015  0.9000776E+02  0.7816164E-02  0.1186339E+00
        -11   -1    0    0    0    0  0.00000000000E+00  0.00000000000E+00  0.45593999997E+02  0.45594000000E+02  0.51100000000E-03 0.  1.
         11   -1    0    0    0    0 -0.00000000000E+00 -0.00000000000E+00 -0.45593999997E+02  0.45594000000E+02  0.51100000000E-03 0. -1.
    9900012    2    1    2    0    0 -0.30255309041E+00  0.10416652932E+01 -0.46515913246E+00  0.90007755121E+02  0.90000016689E+02 0.  0.
        -12    1    1    2    0    0  0.30255309041E+00 -0.10416652932E+01  0.46515913246E+00  0.11802448789E+01  0.00000000000E+00 0.  1.
         11    1    3    3    0    0 -0.27802184466E+02  0.27026617534E+02 -0.86792360633E+00  0.38783408927E+02  0.51100000000E-03 0. -1.
        -11    1    3    3    0    0 -0.65842455807E+01 -0.22166828917E+01 -0.60017675496E+01  0.91808053509E+01  0.51100000000E-03 0.  1.
        -12    1    3    3    0    0  0.34083876956E+02 -0.23768269349E+02  0.64045320235E+01  0.42043540843E+02  0.00000000000E+00 0.  1.
</event>
<event>
 7    1  0.2578619E-015  0.9000772E+02  0.7816164E-02  0.1186339E+00
        -11   -1    0    0    0    0  0.00000000000E+00  0.00000000000E+00  0.45593999997E+02  0.45594000000E+02  0.51100000000E-03 0. -1.
         11   -1    0    0    0    0 -0.00000000000E+00 -0.00000000000E+00 -0.45593999997E+02  0.45594000000E+02  0.51100000000E-03 0.  1.
    9900012    2    1    2    0    0 -0.28454597073E+00  0.54799853654E+00 -0.10058825883E+01  0.90007716734E+02  0.89999977795E+02 0.  0.
        -12    1    1    2    0    0  0.28454597073E+00 -0.54799853654E+00  0.10058825883E+01  0.11802832656E+01  0.00000000000E+00 0.  1.
         11    1    3    3    0    0  0.13209638902E+02  0.35194316851E+02  0.16398957246E+00  0.37592038936E+02  0.51100000000E-03 0. -1.
        -11    1    3    3    0    0  0.25302006587E+01  0.51899995731E+01  0.66115076685E+01  0.87778154944E+01  0.51100000000E-03 0.  1.
        -12    1    3    3    0    0 -0.16024385531E+02 -0.39836317887E+02 -0.77813798293E+01  0.43637862304E+02  0.00000000000E+00 0.  1.
</event>
<event>
 7    1  0.2578619E-015  0.9000790E+02  0.7816164E-02  0.1186339E+00
        -11   -1    0    0    0    0  0.00000000000E+00  0.00000000000E+00  0.45593999997E+02  0.45594000000E+02  0.51100000000E-03 0. -1.
         11   -1    0    0    0    0 -0.00000000000E+00 -0.00000000000E+00 -0.45593999997E+02  0.45594000000E+02  0.51100000000E-03 0.  1.
    9900012    2    1    2    0    0  0.66001822180E+00 -0.96309052865E+00 -0.17163942145E+00  0.90007903601E+02  0.90000167129E+02 0.  0.
        -12    1    1    2    0    0 -0.66001822180E+00  0.96309052865E+00  0.17163942145E+00  0.11800963988E+01  0.00000000000E+00 0.  1.
         11    1    3    3    0    0  0.14291567240E+02 -0.12447500228E+02  0.31568112928E+02  0.36820305677E+02  0.51100000000E-03 0. -1.
        -11    1    3    3    0    0  0.14559754562E+01 -0.10367177329E+02  0.15729312600E+01  0.10586422592E+02  0.51100000000E-03 0.  1.
        -12    1    3    3    0    0 -0.15087524475E+02  0.21851587028E+02 -0.33312683609E+02  0.42601175332E+02  0.00000000000E+00 0.  1.
</event>
<event>
 7    1  0.2578619E-015  0.9000770E+02  0.7816164E-02  0.1186339E+00
        -11   -1    0    0    0    0  0.00000000000E+00  0.00000000000E+00  0.45593999997E+02  0.45594000000E+02  0.51100000000E-03 0. -1.
         11   -1    0    0    0    0 -0.00000000000E+00 -0.00000000000E+00 -0.45593999997E+02  0.45594000000E+02  0.51100000000E-03 0.  1.
    9900012    2    1    2    0    0  0.10164278694E+01  0.24477542287E+00  0.54777477581E+00  0.90007704348E+02  0.89999965245E+02 0.  0.
        -12    1    1    2    0    0 -0.10164278694E+01 -0.24477542287E+00 -0.54777477581E+00  0.11802956521E+01  0.00000000000E+00 0.  1.
         11    1    3    3    0    0 -0.48222303843E+01 -0.16093197780E+02  0.34206960640E+02  0.38109855381E+02  0.51100000000E-03 0. -1.
        -11    1    3    3    0    0  0.11649203611E+02  0.13930688808E+01  0.28058400399E+01  0.12063056175E+02  0.51100000000E-03 0.  1.
        -12    1    3    3    0    0 -0.58105453577E+01  0.14944904323E+02 -0.36465025904E+02  0.39834792792E+02  0.00000000000E+00 0.  1.
</event>
<event>
 7    1  0.2578619E-015  0.9000781E+02  0.7816164E-02  0.1186339E+00
        -11   -1    0    0    0    0  0.00000000000E+00  0.00000000000E+00  0.45593999997E+02  0.45594000000E+02  0.51100000000E-03 0.  1.
         11   -1    0    0    0    0 -0.00000000000E+00 -0.00000000000E+00 -0.45593999997E+02  0.45594000000E+02  0.51100000000E-03 0. -1.
    9900012    2    1    2    0    0 -0.80057360840E+00 -0.86299019323E+00 -0.84676488634E-01  0.90007813454E+02  0.90000075791E+02 0.  0.
        -12    1    1    2    0    0  0.80057360840E+00  0.86299019323E+00  0.84676488634E-01  0.11801865462E+01  0.00000000000E+00 0.  1.
         11    1    3    3    0    0  0.18645659745E+02 -0.21460055819E+02 -0.21874456248E+02  0.35870412034E+02  0.51100000000E-03 0. -1.
        -11    1    3    3    0    0  0.77391997782E+01 -0.24230207406E+01 -0.50339325180E+01  0.95449840007E+01  0.51100000000E-03 0.  1.
        -12    1    3    3    0    0 -0.27185433132E+02  0.23020086367E+02  0.26823712278E+02  0.44592417419E+02  0.00000000000E+00 0.  1.
</event>
<event>
 7    1  0.2578619E-015  0.9000776E+02  0.7816164E-02  0.1186339E+00
        -11   -1    0    0    0    0  0.00000000000E+00  0.00000000000E+00  0.45593999997E+02  0.45594000000E+02  0.51100000000E-03 0.  1.
         11   -1    0    0    0    0 -0.00000000000E+00 -0.00000000000E+00 -0.45593999997E+02  0.45594000000E+02  0.51100000000E-03 0. -1.
    9900012    2    1    2    0    0  0.21508435878E+00 -0.59900532360E-01 -0.11589282124E+01  0.90007761059E+02  0.90000022705E+02 0.  0.
        -12    1    1    2    0    0 -0.21508435878E+00  0.59900532360E-01  0.11589282124E+01  0.11802389405E+01  0.00000000000E+00 0.  1.
         11    1    3    3    0    0  0.21089283276E+01 -0.85011766803E+01  0.29071283893E+01  0.92287041005E+01  0.51100000000E-03 0. -1.
        -11    1    3    3    0    0  0.22786979070E+02 -0.12907654804E+02  0.25639624799E+02  0.36650297786E+02  0.51100000000E-03 0.  1.
         12    1    3    3    0    0 -0.24680823039E+02  0.21348930952E+02 -0.29705681401E+02  0.44128759173E+02  0.00000000000E+00 0. -1.
</event>
<event>
 7    1  0.2578619E-015  0.9000779E+02  0.7816164E-02  0.1186339E+00
        -11   -1    0    0    0    0  0.00000000000E+00  0.00000000000E+00  0.45593999997E+02  0.45594000000E+02  0.51100000000E-03 0. -1.
         11   -1    0    0    0    0 -0.00000000000E+00 -0.00000000000E+00 -0.45593999997E+02  0.45594000000E+02  0.51100000000E-03 0.  1.
    9900012    2    1    2    0    0 -0.54948724826E+00  0.92221006135E+00  0.49039393843E+00  0.90007790761E+02  0.90000052799E+02 0.  0.
        -12    1    1    2    0    0  0.54948724826E+00 -0.92221006135E+00 -0.49039393843E+00  0.11802092391E+01  0.00000000000E+00 0.  1.
         11    1    3    3    0    0  0.12895228524E+02 -0.33133199388E+02  0.62962135115E+01  0.36107314013E+02  0.51100000000E-03 0. -1.
        -11    1    3    3    0    0  0.22353958807E+01 -0.78186439904E+01  0.23159555094E+01  0.84552846655E+01  0.51100000000E-03 0.  1.
        -12    1    3    3    0    0 -0.15680111653E+02  0.41874053440E+02 -0.81217750824E+01  0.45445192083E+02  0.00000000000E+00 0.  1.
</event>
<event>
 7    1  0.2578619E-015  0.9000771E+02  0.7816164E-02  0.1186339E+00
        -11   -1    0    0    0    0  0.00000000000E+00  0.00000000000E+00  0.45593999997E+02  0.45594000000E+02  0.51100000000E-03 0.  1.
         11   -1    0    0    0    0 -0.00000000000E+00 -0.00000000000E+00 -0.45593999997E+02  0.45594000000E+02  0.51100000000E-03 0. -1.
    9900012    2    1    2    0    0  0.10770249865E+01 -0.25417848340E+00 -0.41049146120E+00  0.90007706493E+02  0.89999967419E+02 0.  0.
        -12    1    1    2    0    0 -0.10770249865E+01  0.25417848340E+00  0.41049146120E+00  0.11802935070E+01  0.00000000000E+00 0.  1.
         11    1    3    3    0    0  0.35450729639E+01  0.20386266627E+01  0.67976690201E+01  0.79329594325E+01  0.51100000000E-03 0. -1.
        -11    1    3    3    0    0 -0.19026900963E+01 -0.41613374479E+02 -0.93447091443E+01  0.42692115834E+02  0.51100000000E-03 0.  1.
         12    1    3    3    0    0 -0.56535788107E+00  0.39320569332E+02  0.21365486630E+01  0.39382631227E+02  0.00000000000E+00 0. -1.
</event>
<event>
 7    1  0.2578619E-015  0.9000773E+02  0.7816164E-02  0.1186339E+00
        -11   -1    0    0    0    0  0.00000000000E+00  0.00000000000E+00  0.45593999997E+02  0.45594000000E+02  0.51100000000E-03 0. -1.
         11   -1    0    0    0    0 -0.00000000000E+00 -0.00000000000E+00 -0.45593999997E+02  0.45594000000E+02  0.51100000000E-03 0.  1.
    9900012    2    1    2    0    0 -0.90961353115E+00  0.44631821678E-01  0.75077158194E+00  0.90007725988E+02  0.89999987171E+02 0.  0.
        -12    1    1    2    0    0  0.90961353115E+00 -0.44631821678E-01 -0.75077158194E+00  0.11802740122E+01  0.00000000000E+00 0.  1.
         11    1    3    3    0    0 -0.12937442058E+02  0.35519962826E+02 -0.17802682276E+02  0.41784933441E+02  0.51100000000E-03 0. -1.
        -11    1    3    3    0    0 -0.68216390085E+01 -0.55716948930E+01  0.62262246019E+01  0.10786306866E+02  0.51100000000E-03 0.  1.
        -12    1    3    3    0    0  0.18849467535E+02 -0.29903636112E+02  0.12327229256E+02  0.37436485681E+02  0.00000000000E+00 0.  1.
</event>
<event>
 7    1  0.2578619E-015  0.9000767E+02  0.7816164E-02  0.1186339E+00
        -11   -1    0    0    0    0  0.00000000000E+00  0.00000000000E+00  0.45593999997E+02  0.45594000000E+02  0.51100000000E-03 0. -1.
         11   -1    0    0    0    0 -0.00000000000E+00 -0.00000000000E+00 -0.45593999997E+02  0.45594000000E+02  0.51100000000E-03 0.  1.
    9900012    2    1    2    0    0  0.56325281256E+00 -0.92922422558E+00  0.46094327618E+00  0.90007669497E+02  0.89999929934E+02 0.  0.
        -12    1    1    2    0    0 -0.56325281256E+00  0.92922422558E+00 -0.46094327618E+00  0.11803305029E+01  0.00000000000E+00 0.  1.
         11    1    3    3    0    0 -0.33546636390E+02 -0.13417525650E+01 -0.23302212965E+02  0.40867716383E+02  0.51100000000E-03 0. -1.
        -11    1    3    3    0    0  0.92988312410E+01 -0.27064551911E+01 -0.51045065894E+01  0.10947563653E+02  0.51100000000E-03 0.  1.
        -12    1    3    3    0    0  0.24811057962E+02  0.31189835306E+01  0.28867662831E+02  0.38192389461E+02  0.00000000000E+00 0.  1.
</event>
<event>
 7    1  0.2578619E-015  0.9000775E+02  0.7816164E-02  0.1186339E+00
        -11   -1    0    0    0    0  0.00000000000E+00  0.00000000000E+00  0.45593999997E+02  0.45594000000E+02  0.51100000000E-03 0.  1.
         11   -1    0    0    0    0 -0.00000000000E+00 -0.00000000000E+00 -0.45593999997E+02  0.45594000000E+02  0.51100000000E-03 0. -1.
    9900012    2    1    2    0    0 -0.44386832397E-01 -0.93111269416E+00 -0.72390981464E+00  0.90007751526E+02  0.90000013046E+02 0.  0.
        -12    1    1    2    0    0  0.44386832397E-01  0.93111269416E+00  0.72390981464E+00  0.11802484738E+01  0.00000000000E+00 0.  1.
         11    1    3    3    0    0 -0.20960056120E+02 -0.15118687083E+02 -0.30083909400E+02  0.39660310850E+02  0.51100000000E-03 0. -1.
        -11    1    3    3    0    0  0.22378455479E+01  0.69496676220E+01 -0.61705379467E+01  0.95593604162E+01  0.51100000000E-03 0.  1.
        -12    1    3    3    0    0  0.18677823739E+02  0.72379067663E+01  0.35530537532E+02  0.40788080260E+02  0.00000000000E+00 0.  1.
</event>
<event>
 7    1  0.2578619E-015  0.9000745E+02  0.7816164E-02  0.1186340E+00
        -11   -1    0    0    0    0  0.00000000000E+00  0.00000000000E+00  0.45593999997E+02  0.45594000000E+02  0.51100000000E-03 0.  1.
         11   -1    0    0    0    0 -0.00000000000E+00 -0.00000000000E+00 -0.45593999997E+02  0.45594000000E+02  0.51100000000E-03 0. -1.
    9900012    2    1    2    0    0  0.85958275206E+00 -0.80338418712E+00  0.96847074979E-01  0.90007454357E+02  0.89999711954E+02 0.  0.
        -12    1    1    2    0    0 -0.85958275206E+00  0.80338418712E+00 -0.96847074979E-01  0.11805456432E+01  0.00000000000E+00 0.  1.
         11    1    3    3    0    0 -0.86951780173E+01  0.44856403455E+01  0.27802715388E+01  0.10171381428E+02  0.51100000000E-03 0. -1.
        -11    1    3    3    0    0 -0.16373089738E+02  0.10264863607E+01  0.32067927386E+02  0.36020601173E+02  0.51100000000E-03 0.  1.
         12    1    3    3    0    0  0.25927850507E+02 -0.63155108933E+01 -0.34751351850E+02  0.43815471755E+02  0.00000000000E+00 0. -1.
</event>
<event>
 7    1  0.2578619E-015  0.9000777E+02  0.7816164E-02  0.1186339E+00
        -11   -1    0    0    0    0  0.00000000000E+00  0.00000000000E+00  0.45593999997E+02  0.45594000000E+02  0.51100000000E-03 0.  1.
         11   -1    0    0    0    0 -0.00000000000E+00 -0.00000000000E+00 -0.45593999997E+02  0.45594000000E+02  0.51100000000E-03 0. -1.
    9900012    2    1    2    0    0  0.69477468446E+00  0.46727846028E+00 -0.83179598502E+00  0.90007768844E+02  0.90000030592E+02 0.  0.
        -12    1    1    2    0    0 -0.69477468446E+00 -0.46727846028E+00  0.83179598502E+00  0.11802311563E+01  0.00000000000E+00 0.  1.
         11    1    3    3    0    0  0.33929271946E+02  0.26047311096E+01 -0.25263767708E+02  0.42382049007E+02  0.51100000000E-03 0. -1.
        -11    1    3    3    0    0 -0.75883260097E+01 -0.47481207997E+01 -0.35042883727E+01  0.96128757414E+01  0.51100000000E-03 0.  1.
        -12    1    3    3    0    0 -0.25646171252E+02  0.26106681504E+01  0.27936260096E+02  0.38012844095E+02  0.00000000000E+00 0.  1.
</event>
<event>
 7    1  0.2578619E-015  0.9000760E+02  0.7816164E-02  0.1186339E+00
        -11   -1    0    0    0    0  0.00000000000E+00  0.00000000000E+00  0.45593999997E+02  0.45594000000E+02  0.51100000000E-03 0.  1.
         11   -1    0    0    0    0 -0.00000000000E+00 -0.00000000000E+00 -0.45593999997E+02  0.45594000000E+02  0.51100000000E-03 0. -1.
    9900012    2    1    2    0    0 -0.64228131972E+00 -0.64677033996E+00  0.74999867845E+00  0.90007603802E+02  0.89999863372E+02 0.  0.
        -12    1    1    2    0    0  0.64228131972E+00  0.64677033996E+00 -0.74999867845E+00  0.11803961979E+01  0.00000000000E+00 0.  1.
         11    1    3    3    0    0  0.68991045603E+01  0.30609569469E+00  0.78901926376E+01  0.10485536630E+02  0.51100000000E-03 0. -1.
        -11    1    3    3    0    0 -0.23781568873E+02  0.50611625064E+01  0.29956592831E+02  0.38582066279E+02  0.51100000000E-03 0.  1.
         12    1    3    3    0    0  0.16240182994E+02 -0.60140285411E+01 -0.37096786790E+02  0.40940000893E+02  0.00000000000E+00 0. -1.
</event>
<event>
 7    1  0.2578619E-015  0.9000769E+02  0.7816164E-02  0.1186339E+00
        -11   -1    0    0    0    0  0.00000000000E+00  0.00000000000E+00  0.45593999997E+02  0.45594000000E+02  0.51100000000E-03 0.  1.
         11   -1    0    0    0    0 -0.00000000000E+00 -0.00000000000E+00 -0.45593999997E+02  0.45594000000E+02  0.51100000000E-03 0. -1.
    9900012    2    1    2    0    0  0.17930607279E+00 -0.11195993153E+01  0.32782754128E+00  0.90007693179E+02  0.89999953929E+02 0.  0.
        -12    1    1    2    0    0 -0.17930607279E+00  0.11195993153E+01 -0.32782754128E+00  0.11803068209E+01  0.00000000000E+00 0.  1.
         11    1    3    3    0    0  0.36045444295E+02 -0.21511754872E+02 -0.84706118526E+01  0.42822668267E+02  0.51100000000E-03 0. -1.
        -11    1    3    3    0    0 -0.62593228344E+01  0.35046371817E+01 -0.66327834909E+01  0.97701290277E+01  0.51100000000E-03 0.  1.
        -12    1    3    3    0    0 -0.29606815388E+02  0.16887518375E+02  0.15431222885E+02  0.37414895884E+02  0.00000000000E+00 0.  1.
</event>
<event>
 7    1  0.2578619E-015  0.9000776E+02  0.7816164E-02  0.1186339E+00
        -11   -1    0    0    0    0  0.00000000000E+00  0.00000000000E+00  0.45593999997E+02  0.45594000000E+02  0.51100000000E-03 0. -1.
         11   -1    0    0    0    0 -0.00000000000E+00 -0.00000000000E+00 -0.45593999997E+02  0.45594000000E+02  0.51100000000E-03 0.  1.
    9900012    2    1    2    0    0 -0.18572627601E+00  0.11638110114E+01  0.63304833961E-01  0.90007763659E+02  0.90000025339E+02 0.  0.
        -12    1    1    2    0    0  0.18572627601E+00 -0.11638110114E+01 -0.63304833961E-01  0.11802363415E+01  0.00000000000E+00 0.  1.
         11    1    3    3    0    0  0.27006093449E+02  0.27332195824E+01  0.29932118585E+02  0.40407069875E+02  0.51100000000E-03 0. -1.
        -11    1    3    3    0    0 -0.65921501434E+01  0.55789600688E+01  0.38424499265E+01  0.94522833570E+01  0.51100000000E-03 0.  1.
        -12    1    3    3    0    0 -0.20599669581E+02 -0.71483686398E+01 -0.33711263677E+02  0.40148410427E+02  0.00000000000E+00 0.  1.
</event>
<event>
 7    1  0.2578619E-015  0.9000780E+02  0.7816164E-02  0.1186339E+00
        -11   -1    0    0    0    0  0.00000000000E+00  0.00000000000E+00  0.45593999997E+02  0.45594000000E+02  0.51100000000E-03 0.  1.
         11   -1    0    0    0    0 -0.00000000000E+00 -0.00000000000E+00 -0.45593999997E+02  0.45594000000E+02  0.51100000000E-03 0. -1.
    9900012    2    1    2    0    0  0.10906406020E+01 -0.36373903548E+00 -0.26658947229E+00  0.90007799612E+02  0.90000061767E+02 0.  0.
        -12    1    1    2    0    0 -0.10906406020E+01  0.36373903548E+00  0.26658947229E+00  0.11802003878E+01  0.00000000000E+00 0.  1.
         11    1    3    3    0    0  0.15981337925E+01 -0.10293182588E+02  0.72229478908E+00  0.10441520456E+02  0.51100000000E-03 0. -1.
        -11    1    3    3    0    0 -0.10638744065E+02  0.10707243086E+01  0.37393849711E+02  0.38892535560E+02  0.51100000000E-03 0.  1.
         12    1    3    3    0    0  0.10131250875E+02  0.88587192437E+01 -0.38382733973E+02  0.40673743596E+02  0.00000000000E+00 0. -1.
</event>
<event>
 7    1  0.2578619E-015  0.9000806E+02  0.7816164E-02  0.1186338E+00
        -11   -1    0    0    0    0  0.00000000000E+00  0.00000000000E+00  0.45593999997E+02  0.45594000000E+02  0.51100000000E-03 0.  1.
         11   -1    0    0    0    0 -0.00000000000E+00 -0.00000000000E+00 -0.45593999997E+02  0.45594000000E+02  0.51100000000E-03 0. -1.
    9900012    2    1    2    0    0  0.22506641860E+00  0.10939605911E+01 -0.38060525914E+00  0.90008057192E+02  0.90000322746E+02 0.  0.
        -12    1    1    2    0    0 -0.22506641860E+00 -0.10939605911E+01  0.38060525914E+00  0.11799428084E+01  0.00000000000E+00 0.  1.
         11    1    3    3    0    0  0.35125804672E+02  0.46985921464E+01  0.89118376510E+01  0.36542027483E+02  0.51100000000E-03 0. -1.
        -11    1    3    3    0    0  0.83925198954E+01  0.18927771044E+01 -0.40580336902E+01  0.95123410922E+01  0.51100000000E-03 0.  1.
        -12    1    3    3    0    0 -0.43293258149E+02 -0.54974086597E+01 -0.52344092200E+01  0.43953688616E+02  0.00000000000E+00 0.  1.
</event>
<event>
 7    1  0.2578619E-015  0.9000759E+02  0.7816164E-02  0.1186339E+00
        -11   -1    0    0    0    0  0.00000000000E+00  0.00000000000E+00  0.45593999997E+02  0.45594000000E+02  0.51100000000E-03 0. -1.
         11   -1    0    0    0    0 -0.00000000000E+00 -0.00000000000E+00 -0.45593999997E+02  0.45594000000E+02  0.51100000000E-03 0.  1.
    9900012    2    1    2    0    0 -0.10403575814E+00  0.11119393707E+01  0.38227734040E+00  0.90007589661E+02  0.89999849045E+02 0.  0.
        -12    1    1    2    0    0  0.10403575814E+00 -0.11119393707E+01 -0.38227734040E+00  0.11804103388E+01  0.00000000000E+00 0.  1.
         11    1    3    3    0    0 -0.34450279835E+02 -0.16811983386E+01  0.19603531584E+02  0.39672996602E+02  0.51100000000E-03 0. -1.
        -11    1    3    3    0    0 -0.21365926824E+01  0.84045282998E+01  0.98471679981E-01  0.86724172619E+01  0.51100000000E-03 0.  1.
        -12    1    3    3    0    0  0.36482836760E+02 -0.56113905905E+01 -0.19319725923E+02  0.41662175797E+02  0.00000000000E+00 0.  1.
</event>
<event>
 7    1  0.2578619E-015  0.9000772E+02  0.7816164E-02  0.1186339E+00
        -11   -1    0    0    0    0  0.00000000000E+00  0.00000000000E+00  0.45593999997E+02  0.45594000000E+02  0.51100000000E-03 0.  1.
         11   -1    0    0    0    0 -0.00000000000E+00 -0.00000000000E+00 -0.45593999997E+02  0.45594000000E+02  0.51100000000E-03 0. -1.
    9900012    2    1    2    0    0 -0.20085903808E+00  0.11171076962E+01 -0.32370699647E+00  0.90007720297E+02  0.89999981405E+02 0.  0.
        -12    1    1    2    0    0  0.20085903808E+00 -0.11171076962E+01  0.32370699647E+00  0.11802797032E+01  0.00000000000E+00 0.  1.
         11    1    3    3    0    0  0.71151171685E+00  0.24601264775E+02 -0.29934842258E+02  0.38753364483E+02  0.51100000000E-03 0. -1.
        -11    1    3    3    0    0 -0.10630624521E+02  0.49889076929E+01  0.87158605893E+01  0.14624144548E+02  0.51100000000E-03 0.  1.
        -12    1    3    3    0    0  0.97182537661E+01 -0.28473064772E+02  0.20895274672E+02  0.36630211266E+02  0.00000000000E+00 0.  1.
</event>
<event>
 7    1  0.2578619E-015  0.9000771E+02  0.7816164E-02  0.1186339E+00
        -11   -1    0    0    0    0  0.00000000000E+00  0.00000000000E+00  0.45593999997E+02  0.45594000000E+02  0.51100000000E-03 0. -1.
         11   -1    0    0    0    0 -0.00000000000E+00 -0.00000000000E+00 -0.45593999997E+02  0.45594000000E+02  0.51100000000E-03 0.  1.
    9900012    2    1    2    0    0  0.46955169859E+00 -0.79996859195E-01  0.10799081110E+01  0.90007711974E+02  0.89999972972E+02 0.  0.
        -12    1    1    2    0    0 -0.46955169859E+00  0.79996859195E-01 -0.10799081110E+01  0.11802880256E+01  0.00000000000E+00 0.  1.
         11    1    3    3    0    0  0.12808568438E+01  0.48874316708E+01 -0.67332460120E+01  0.84180867606E+01  0.51100000000E-03 0. -1.
        -11    1    3    3    0    0 -0.12526466318E+02  0.27311671309E+02 -0.21086329544E+02  0.36707942492E+02  0.51100000000E-03 0.  1.
         12    1    3    3    0    0  0.11715161173E+02 -0.32279099839E+02  0.28899483667E+02  0.44881682722E+02  0.00000000000E+00 0. -1.
</event>
<event>
 7    1  0.2578619E-015  0.9000777E+02  0.7816164E-02  0.1186339E+00
        -11   -1    0    0    0    0  0.00000000000E+00  0.00000000000E+00  0.45593999997E+02  0.45594000000E+02  0.51100000000E-03 0.  1.
         11   -1    0    0    0    0 -0.00000000000E+00 -0.00000000000E+00 -0.45593999997E+02  0.45594000000E+02  0.51100000000E-03 0. -1.
    9900012    2    1    2    0    0 -0.10860100013E+01 -0.42216201838E+00 -0.18792194719E+00  0.90007765637E+02  0.90000027344E+02 0.  0.
        -12    1    1    2    0    0  0.10860100013E+01  0.42216201838E+00  0.18792194719E+00  0.11802343627E+01  0.00000000000E+00 0.  1.
         11    1    3    3    0    0  0.16920111439E+01  0.44322708951E+01 -0.83327778845E+01  0.95886972281E+01  0.51100000000E-03 0. -1.
        -11    1    3    3    0    0 -0.46406860289E+01  0.18147384528E+02  0.38188734154E+02  0.42535196585E+02  0.51100000000E-03 0.  1.
         12    1    3    3    0    0  0.18626648837E+01 -0.23001817441E+02 -0.30043878217E+02  0.37883871824E+02  0.00000000000E+00 0. -1.
</event>
<event>
 7    1  0.2578619E-015  0.9000783E+02  0.7816164E-02  0.1186339E+00
        -11   -1    0    0    0    0  0.00000000000E+00  0.00000000000E+00  0.45593999997E+02  0.45594000000E+02  0.51100000000E-03 0. -1.
         11   -1    0    0    0    0 -0.00000000000E+00 -0.00000000000E+00 -0.45593999997E+02  0.45594000000E+02  0.51100000000E-03 0.  1.
    9900012    2    1    2    0    0 -0.67135214289E+00 -0.79782537774E+00  0.55277303641E+00  0.90007831765E+02  0.90000094344E+02 0.  0.
        -12    1    1    2    0    0  0.67135214289E+00  0.79782537774E+00 -0.55277303641E+00  0.11801682350E+01  0.00000000000E+00 0.  1.
         11    1    3    3    0    0  0.98062414902E+01  0.19810212830E+01 -0.34974724197E+01  0.10598072045E+02  0.51100000000E-03 0. -1.
        -11    1    3    3    0    0 -0.36065504915E+02  0.19361322140E+02 -0.10986067781E+02  0.42382486068E+02  0.51100000000E-03 0.  1.
         12    1    3    3    0    0  0.25587911282E+02 -0.22140168801E+02  0.15036313237E+02  0.37027273651E+02  0.00000000000E+00 0. -1.
</event>
<event>
 7    1  0.2578619E-015  0.9000774E+02  0.7816164E-02  0.1186339E+00
        -11   -1    0    0    0    0  0.00000000000E+00  0.00000000000E+00  0.45593999997E+02  0.45594000000E+02  0.51100000000E-03 0. -1.
         11   -1    0    0    0    0 -0.00000000000E+00 -0.00000000000E+00 -0.45593999997E+02  0.45594000000E+02  0.51100000000E-03 0.  1.
    9900012    2    1    2    0    0 -0.75829343661E+00 -0.76330082836E+00  0.48516079465E+00  0.90007738128E+02  0.89999999471E+02 0.  0.
        -12    1    1    2    0    0  0.75829343661E+00  0.76330082836E+00 -0.48516079465E+00  0.11802618723E+01  0.00000000000E+00 0.  1.
         11    1    3    3    0    0 -0.82551097401E+01  0.35712048964E+02 -0.66234008524E+01  0.37247371949E+02  0.51100000000E-03 0. -1.
        -11    1    3    3    0    0  0.97023063001E+01  0.30845629936E+01 -0.49832298954E+01  0.11334983761E+02  0.51100000000E-03 0.  1.
        -12    1    3    3    0    0 -0.22054899966E+01 -0.39559912786E+02  0.12091791542E+02  0.41425382418E+02  0.00000000000E+00 0.  1.
</event>
<event>
 7    1  0.2578619E-015  0.9000780E+02  0.7816164E-02  0.1186339E+00
        -11   -1    0    0    0    0  0.00000000000E+00  0.00000000000E+00  0.45593999997E+02  0.45594000000E+02  0.51100000000E-03 0. -1.
         11   -1    0    0    0    0 -0.00000000000E+00 -0.00000000000E+00 -0.45593999997E+02  0.45594000000E+02  0.51100000000E-03 0.  1.
    9900012    2    1    2    0    0  0.35874883153E+00 -0.73964505305E+00  0.84681983219E+00  0.90007796900E+02  0.90000059019E+02 0.  0.
        -12    1    1    2    0    0 -0.35874883153E+00  0.73964505305E+00 -0.84681983219E+00  0.11802030998E+01  0.00000000000E+00 0.  1.
         11    1    3    3    0    0  0.38628867987E+02  0.70407714379E+01  0.83071102207E+01  0.40134399023E+02  0.51100000000E-03 0. -1.
        -11    1    3    3    0    0 -0.33237099057E+01  0.32834877119E+01  0.86517665142E+01  0.98326701953E+01  0.51100000000E-03 0.  1.
        -12    1    3    3    0    0 -0.34946409250E+02 -0.11063904203E+02 -0.16112056903E+02  0.40040727682E+02  0.00000000000E+00 0.  1.
</event>
<event>
 7    1  0.2578619E-015  0.9000774E+02  0.7816164E-02  0.1186339E+00
        -11   -1    0    0    0    0  0.00000000000E+00  0.00000000000E+00  0.45593999997E+02  0.45594000000E+02  0.51100000000E-03 0. -1.
         11   -1    0    0    0    0 -0.00000000000E+00 -0.00000000000E+00 -0.45593999997E+02  0.45594000000E+02  0.51100000000E-03 0.  1.
    9900012    2    1    2    0    0  0.11057378255E+01  0.37390137763E+00 -0.17480776275E+00  0.90007738956E+02  0.90000000310E+02 0.  0.
        -12    1    1    2    0    0 -0.11057378255E+01 -0.37390137763E+00  0.17480776275E+00  0.11802610444E+01  0.00000000000E+00 0.  1.
         11    1    3    3    0    0  0.10350263359E+02 -0.65181020145E+01  0.13738715324E+01  0.12308579476E+02  0.51100000000E-03 0. -1.
        -11    1    3    3    0    0  0.44956929105E+01  0.37455875601E+02 -0.16287682704E+02  0.41090661712E+02  0.51100000000E-03 0.  1.
         12    1    3    3    0    0 -0.13740218444E+02 -0.30563872209E+02  0.14739003409E+02  0.36608497767E+02  0.00000000000E+00 0. -1.
</event>
<event>
 7    1  0.2578619E-015  0.9000752E+02  0.7816164E-02  0.1186339E+00
        -11   -1    0    0    0    0  0.00000000000E+00  0.00000000000E+00  0.45593999997E+02  0.45594000000E+02  0.51100000000E-03 0.  1.
         11   -1    0    0    0    0 -0.00000000000E+00 -0.00000000000E+00 -0.45593999997E+02  0.45594000000E+02  0.51100000000E-03 0. -1.
    9900012    2    1    2    0    0 -0.64150173694E-01 -0.29548680228E+00  0.11411023676E+01  0.90007516070E+02  0.89999774482E+02 0.  0.
        -12    1    1    2    0    0  0.64150173694E-01  0.29548680228E+00 -0.11411023676E+01  0.11804839297E+01  0.00000000000E+00 0.  1.
         11    1    3    3    0    0  0.32501714087E+01 -0.39355447454E+01  0.80912046627E+01  0.95665939489E+01  0.51100000000E-03 0. -1.
        -11    1    3    3    0    0 -0.44485928970E+01 -0.35414979333E+02  0.11130851174E+02  0.37388589009E+02  0.51100000000E-03 0.  1.
         12    1    3    3    0    0  0.11342713146E+01  0.39055037277E+02 -0.18080953469E+02  0.43052333113E+02  0.00000000000E+00 0. -1.
</event>
<event>
 7    1  0.2578619E-015  0.9000768E+02  0.7816164E-02  0.1186339E+00
        -11   -1    0    0    0    0  0.00000000000E+00  0.00000000000E+00  0.45593999997E+02  0.45594000000E+02  0.51100000000E-03 0.  1.
         11   -1    0    0    0    0 -0.00000000000E+00 -0.00000000000E+00 -0.45593999997E+02  0.45594000000E+02  0.51100000000E-03 0. -1.
    9900012    2    1    2    0    0  0.62726256373E+00 -0.23513299638E+00 -0.97181070948E+00  0.90007677203E+02  0.89999937742E+02 0.  0.
        -12    1    1    2    0    0 -0.62726256373E+00  0.23513299638E+00  0.97181070948E+00  0.11803227969E+01  0.00000000000E+00 0.  1.
         11    1    3    3    0    0 -0.27472537539E+00  0.12308252630E+02 -0.14243862159E+01  0.12393443153E+02  0.51100000000E-03 0. -1.
        -11    1    3    3    0    0 -0.27438945476E+02  0.19754414182E+02  0.58320613679E+01  0.34309554771E+02  0.51100000000E-03 0.  1.
         12    1    3    3    0    0  0.28340933415E+02 -0.32297799809E+02 -0.53794858615E+01  0.43304679279E+02  0.00000000000E+00 0. -1.
</event>
<event>
 7    1  0.2578619E-015  0.9000776E+02  0.7816164E-02  0.1186339E+00
        -11   -1    0    0    0    0  0.00000000000E+00  0.00000000000E+00  0.45593999997E+02  0.45594000000E+02  0.51100000000E-03 0.  1.
         11   -1    0    0    0    0 -0.00000000000E+00 -0.00000000000E+00 -0.45593999997E+02  0.45594000000E+02  0.51100000000E-03 0. -1.
    9900012    2    1    2    0    0  0.25763100504E+00  0.10828285168E+01 -0.39253064770E+00  0.90007757804E+02  0.90000019407E+02 0.  0.
        -12    1    1    2    0    0 -0.25763100504E+00 -0.10828285168E+01  0.39253064770E+00  0.11802421959E+01  0.00000000000E+00 0.  1.
         11    1    3    3    0    0 -0.42116823243E+01  0.32668770606E-01  0.10387267547E+02  0.11208686926E+02  0.51100000000E-03 0. -1.
        -11    1    3    3    0    0  0.29083927983E+02 -0.17007843901E+01  0.22855203024E+02  0.37028743430E+02  0.51100000000E-03 0.  1.
         12    1    3    3    0    0 -0.24614614653E+02  0.27509441363E+01 -0.33635001219E+02  0.41770327449E+02  0.00000000000E+00 0. -1.
</event>
<event>
 7    1  0.2578619E-015  0.9000775E+02  0.7816164E-02  0.1186339E+00
        -11   -1    0    0    0    0  0.00000000000E+00  0.00000000000E+00  0.45593999997E+02  0.45594000000E+02  0.51100000000E-03 0.  1.
         11   -1    0    0    0    0 -0.00000000000E+00 -0.00000000000E+00 -0.45593999997E+02  0.45594000000E+02  0.51100000000E-03 0. -1.
    9900012    2    1    2    0    0 -0.16441802801E+00  0.88115301376E+00 -0.76780773110E+00  0.90007748911E+02  0.90000010396E+02 0.  0.
        -12    1    1    2    0    0  0.16441802801E+00 -0.88115301376E+00  0.76780773110E+00  0.11802510892E+01  0.00000000000E+00 0.  1.
         11    1    3    3    0    0 -0.39895847597E+01 -0.77445723127E+01  0.10168147275E+02  0.13389787382E+02  0.51100000000E-03 0. -1.
        -11    1    3    3    0    0  0.39393741909E+01  0.42134025159E+02 -0.55786455667E+01  0.42683908346E+02  0.51100000000E-03 0.  1.
         12    1    3    3    0    0 -0.11420745921E+00 -0.33508299832E+02 -0.53573094393E+01  0.33934053183E+02  0.00000000000E+00 0. -1.
</event>
<event>
 7    1  0.3031627E-015  0.9000773E+02  0.7816164E-02  0.1186339E+00
        -11   -1    0    0    0    0  0.00000000000E+00  0.00000000000E+00  0.45593999997E+02  0.45594000000E+02  0.51100000000E-03 0.  1.
         11   -1    0    0    0    0 -0.00000000000E+00 -0.00000000000E+00 -0.45593999997E+02  0.45594000000E+02  0.51100000000E-03 0. -1.
    9900012    2    1    2    0    0  0.25532743004E+00  0.76173448439E+00 -0.86464592851E+00  0.90007727107E+02  0.89999988304E+02 0.  0.
        -12    1    1    2    0    0 -0.25532743004E+00 -0.76173448439E+00  0.86464592851E+00  0.11802728934E+01  0.00000000000E+00 0.  1.
         11    1    3    3    0    0 -0.67386400205E+01 -0.63568583505E+01 -0.31654237372E+00  0.92692565371E+01  0.51100000000E-03 0. -1.
        -11    1    3    3    0    0 -0.16407496528E+02  0.34294793725E+00  0.34413145562E+02  0.38125951048E+02  0.51100000000E-03 0.  1.
         12    1    3    3    0    0  0.23401463979E+02  0.67756448976E+01 -0.34961249117E+02  0.42612519521E+02  0.00000000000E+00 0. -1.
</event>
<event>
 7    1  0.2578619E-015  0.9000779E+02  0.7816164E-02  0.1186339E+00
        -11   -1    0    0    0    0  0.00000000000E+00  0.00000000000E+00  0.45593999997E+02  0.45594000000E+02  0.51100000000E-03 0. -1.
         11   -1    0    0    0    0 -0.00000000000E+00 -0.00000000000E+00 -0.45593999997E+02  0.45594000000E+02  0.51100000000E-03 0.  1.
    9900012    2    1    2    0    0  0.43884831191E+00 -0.20839786287E+00 -0.10755872661E+01  0.90007785834E+02  0.90000047807E+02 0.  0.
        -12    1    1    2    0    0 -0.43884831191E+00  0.20839786287E+00  0.10755872661E+01  0.11802141658E+01  0.00000000000E+00 0.  1.
         11    1    3    3    0    0  0.29108915423E+02 -0.13815458605E+02  0.17255805410E+02  0.36550768449E+02  0.51100000000E-03 0. -1.
        -11    1    3    3    0    0  0.78297928105E+01 -0.36659229345E+01  0.97152321479E+00  0.86999140246E+01  0.51100000000E-03 0.  1.
        -12    1    3    3    0    0 -0.36499859922E+02  0.17272983676E+02 -0.19302915891E+02  0.44757103361E+02  0.00000000000E+00 0.  1.
</event>
<event>
 7    1  0.2578619E-015  0.9000779E+02  0.7816164E-02  0.1186339E+00
        -11   -1    0    0    0    0  0.00000000000E+00  0.00000000000E+00  0.45593999997E+02  0.45594000000E+02  0.51100000000E-03 0.  1.
         11   -1    0    0    0    0 -0.00000000000E+00 -0.00000000000E+00 -0.45593999997E+02  0.45594000000E+02  0.51100000000E-03 0. -1.
    9900012    2    1    2    0    0 -0.52068412443E+00 -0.75808420335E+00 -0.73965429716E+00  0.90007791503E+02  0.90000053551E+02 0.  0.
        -12    1    1    2    0    0  0.52068412443E+00  0.75808420335E+00  0.73965429716E+00  0.11802084969E+01  0.00000000000E+00 0.  1.
         11    1    3    3    0    0  0.16859938276E+02  0.41556730852E+01 -0.30752422414E+02  0.35316265687E+02  0.51100000000E-03 0. -1.
        -11    1    3    3    0    0  0.19500239695E+01  0.13425133637E+01 -0.97527846066E+01  0.10036022293E+02  0.51100000000E-03 0.  1.
        -12    1    3    3    0    0 -0.19330646370E+02 -0.62562706522E+01  0.39765552723E+02  0.44655503524E+02  0.00000000000E+00 0.  1.
</event>
<event>
 7    1  0.2578619E-015  0.9000780E+02  0.7816164E-02  0.1186339E+00
        -11   -1    0    0    0    0  0.00000000000E+00  0.00000000000E+00  0.45593999997E+02  0.45594000000E+02  0.51100000000E-03 0.  1.
         11   -1    0    0    0    0 -0.00000000000E+00 -0.00000000000E+00 -0.45593999997E+02  0.45594000000E+02  0.51100000000E-03 0. -1.
    9900012    2    1    2    0    0 -0.18599685619E+00 -0.10414955501E+01 -0.52303749002E+00  0.90007798311E+02  0.90000060448E+02 0.  0.
        -12    1    1    2    0    0  0.18599685619E+00  0.10414955501E+01  0.52303749002E+00  0.11802016893E+01  0.00000000000E+00 0.  1.
         11    1    3    3    0    0  0.42872769584E+01  0.42026345522E-01 -0.62078174941E+01  0.75445018545E+01  0.51100000000E-03 0. -1.
        -11    1    3    3    0    0  0.16738728711E+02  0.13937357783E+02  0.36281030807E+02  0.42317232631E+02  0.51100000000E-03 0.  1.
         12    1    3    3    0    0 -0.21212002525E+02 -0.15020879679E+02 -0.30596250803E+02  0.40146063825E+02  0.00000000000E+00 0. -1.
</event>
<event>
 7    1  0.2578619E-015  0.9000776E+02  0.7816164E-02  0.1186339E+00
        -11   -1    0    0    0    0  0.00000000000E+00  0.00000000000E+00  0.45593999997E+02  0.45594000000E+02  0.51100000000E-03 0.  1.
         11   -1    0    0    0    0 -0.00000000000E+00 -0.00000000000E+00 -0.45593999997E+02  0.45594000000E+02  0.51100000000E-03 0. -1.
    9900012    2    1    2    0    0  0.13453968176E-01 -0.43470308196E+00 -0.10971906108E+01  0.90007756375E+02  0.90000017959E+02 0.  0.
        -12    1    1    2    0    0 -0.13453968176E-01  0.43470308196E+00  0.10971906108E+01  0.11802436253E+01  0.00000000000E+00 0.  1.
         11    1    3    3    0    0 -0.18695491664E+02  0.35694289641E+02 -0.10169232536E+02  0.41557394193E+02  0.51100000000E-03 0. -1.
        -11    1    3    3    0    0 -0.59908179979E+01 -0.49165887296E+01  0.74734110830E+00  0.77859658369E+01  0.51100000000E-03 0.  1.
        -12    1    3    3    0    0  0.24699763630E+02 -0.31212403993E+02  0.83247008171E+01  0.40664396345E+02  0.00000000000E+00 0.  1.
</event>
<event>
 7    1  0.2578619E-015  0.9000777E+02  0.7816164E-02  0.1186339E+00
        -11   -1    0    0    0    0  0.00000000000E+00  0.00000000000E+00  0.45593999997E+02  0.45594000000E+02  0.51100000000E-03 0. -1.
         11   -1    0    0    0    0 -0.00000000000E+00 -0.00000000000E+00 -0.45593999997E+02  0.45594000000E+02  0.51100000000E-03 0.  1.
    9900012    2    1    2    0    0  0.31816667585E+00 -0.48797543656E+00  0.10264513450E+01  0.90007765945E+02  0.90000027656E+02 0.  0.
        -12    1    1    2    0    0 -0.31816667585E+00  0.48797543656E+00 -0.10264513450E+01  0.11802340547E+01  0.00000000000E+00 0.  1.
         11    1    3    3    0    0  0.21399593118E+02 -0.78365301491E+01  0.30803459380E+02  0.38317188054E+02  0.51100000000E-03 0. -1.
        -11    1    3    3    0    0  0.94124883282E+01 -0.32248010051E+01 -0.62338711673E+01  0.11741185121E+02  0.51100000000E-03 0.  1.
        -12    1    3    3    0    0 -0.30493914770E+02  0.10573355718E+02 -0.23543136868E+02  0.39949392770E+02  0.00000000000E+00 0.  1.
</event>
<event>
 7    1  0.2578619E-015  0.9000787E+02  0.7816164E-02  0.1186339E+00
        -11   -1    0    0    0    0  0.00000000000E+00  0.00000000000E+00  0.45593999997E+02  0.45594000000E+02  0.51100000000E-03 0. -1.
         11   -1    0    0    0    0 -0.00000000000E+00 -0.00000000000E+00 -0.45593999997E+02  0.45594000000E+02  0.51100000000E-03 0.  1.
    9900012    2    1    2    0    0  0.27825434588E+00 -0.41271405678E+00  0.10700229805E+01  0.90007869688E+02  0.90000132768E+02 0.  0.
        -12    1    1    2    0    0 -0.27825434588E+00  0.41271405678E+00 -0.10700229805E+01  0.11801303117E+01  0.00000000000E+00 0.  1.
         11    1    3    3    0    0  0.13339359636E+02 -0.27876768587E+02 -0.16212615794E+02  0.34898447723E+02  0.51100000000E-03 0. -1.
        -11    1    3    3    0    0  0.10515426344E+02 -0.53005961500E+01  0.58915291723E+01  0.13167407755E+02  0.51100000000E-03 0.  1.
         12    1    3    3    0    0 -0.23576531634E+02  0.32764650680E+02  0.11391109602E+02  0.41942014210E+02  0.00000000000E+00 0. -1.
</event>
<event>
 7    1  0.2578619E-015  0.9000774E+02  0.7816164E-02  0.1186339E+00
        -11   -1    0    0    0    0  0.00000000000E+00  0.00000000000E+00  0.45593999997E+02  0.45594000000E+02  0.51100000000E-03 0.  1.
         11   -1    0    0    0    0 -0.00000000000E+00 -0.00000000000E+00 -0.45593999997E+02  0.45594000000E+02  0.51100000000E-03 0. -1.
    9900012    2    1    2    0    0  0.58794431373E+00 -0.90253829885E+00 -0.48245881211E+00  0.90007737147E+02  0.89999998477E+02 0.  0.
        -12    1    1    2    0    0 -0.58794431373E+00  0.90253829885E+00  0.48245881211E+00  0.11802628531E+01  0.00000000000E+00 0.  1.
         11    1    3    3    0    0  0.91821076970E+01 -0.26992022029E+01  0.13210281475E+01  0.96613617011E+01  0.51100000000E-03 0. -1.
        -11    1    3    3    0    0 -0.99557621273E+01 -0.33806350628E+02  0.18011709368E+02  0.39577875346E+02  0.51100000000E-03 0.  1.
         12    1    3    3    0    0  0.13615987440E+01  0.35603014532E+02 -0.19815196328E+02  0.40768500100E+02  0.00000000000E+00 0. -1.
</event>
<event>
 7    1  0.2578619E-015  0.9000787E+02  0.7816164E-02  0.1186339E+00
        -11   -1    0    0    0    0  0.00000000000E+00  0.00000000000E+00  0.45593999997E+02  0.45594000000E+02  0.51100000000E-03 0. -1.
         11   -1    0    0    0    0 -0.00000000000E+00 -0.00000000000E+00 -0.45593999997E+02  0.45594000000E+02  0.51100000000E-03 0.  1.
    9900012    2    1    2    0    0 -0.28825656296E+00 -0.53841375534E-01  0.11431158713E+01  0.90007870924E+02  0.90000134020E+02 0.  0.
        -12    1    1    2    0    0  0.28825656296E+00  0.53841375534E-01 -0.11431158713E+01  0.11801290756E+01  0.00000000000E+00 0.  1.
         11    1    3    3    0    0  0.32197492698E+01  0.81330571157E+01  0.22365693456E+01  0.90286015588E+01  0.51100000000E-03 0. -1.
        -11    1    3    3    0    0 -0.38766102804E+02 -0.13443403654E+02  0.12399183023E+02  0.42863452594E+02  0.51100000000E-03 0.  1.
         12    1    3    3    0    0  0.35258096971E+02  0.52565051628E+01 -0.13492636497E+02  0.38115816772E+02  0.00000000000E+00 0. -1.
</event>
<event>
 7    1  0.2578619E-015  0.9000779E+02  0.7816164E-02  0.1186339E+00
        -11   -1    0    0    0    0  0.00000000000E+00  0.00000000000E+00  0.45593999997E+02  0.45594000000E+02  0.51100000000E-03 0. -1.
         11   -1    0    0    0    0 -0.00000000000E+00 -0.00000000000E+00 -0.45593999997E+02  0.45594000000E+02  0.51100000000E-03 0.  1.
    9900012    2    1    2    0    0  0.11309976695E+01  0.20760944465E+00 -0.26577304115E+00  0.90007791239E+02  0.90000053283E+02 0.  0.
        -12    1    1    2    0    0 -0.11309976695E+01 -0.20760944465E+00  0.26577304115E+00  0.11802087609E+01  0.00000000000E+00 0.  1.
         11    1    3    3    0    0  0.35009850819E+02 -0.59991451169E+01  0.19402624613E+02  0.40473957536E+02  0.51100000000E-03 0. -1.
        -11    1    3    3    0    0 -0.48658199958E+01  0.32260829163E+01  0.76154475354E+01  0.95957728526E+01  0.51100000000E-03 0.  1.
        -12    1    3    3    0    0 -0.29013033153E+02  0.29806716453E+01 -0.27283845189E+02  0.39938060851E+02  0.00000000000E+00 0.  1.
</event>
<event>
 7    1  0.2578619E-015  0.9000773E+02  0.7816164E-02  0.1186339E+00
        -11   -1    0    0    0    0  0.00000000000E+00  0.00000000000E+00  0.45593999997E+02  0.45594000000E+02  0.51100000000E-03 0. -1.
         11   -1    0    0    0    0 -0.00000000000E+00 -0.00000000000E+00 -0.45593999997E+02  0.45594000000E+02  0.51100000000E-03 0.  1.
    9900012    2    1    2    0    0  0.99713838854E+00 -0.14575263605E+00 -0.61442139692E+00  0.90007727807E+02  0.89999989014E+02 0.  0.
        -12    1    1    2    0    0 -0.99713838854E+00  0.14575263605E+00  0.61442139692E+00  0.11802721931E+01  0.00000000000E+00 0.  1.
         11    1    3    3    0    0 -0.54209595895E+01 -0.20392682330E+01 -0.52030106148E+01  0.77856751484E+01  0.51100000000E-03 0. -1.
        -11    1    3    3    0    0 -0.18417887829E+02  0.34436735954E+02 -0.70017549908E+01  0.39675331738E+02  0.51100000000E-03 0.  1.
         12    1    3    3    0    0  0.24835985807E+02 -0.32543220357E+02  0.11590344209E+02  0.42546720921E+02  0.00000000000E+00 0. -1.
</event>
<event>
 8    1  0.2578619E-015  0.9000774E+02  0.7816164E-02  0.1186339E+00
        -11   -1    0    0    0    0  0.00000000000E+00  0.00000000000E+00  0.45593999997E+02  0.45594000000E+02  0.51100000000E-03 0.  1.
         11   -1    0    0    0    0 -0.00000000000E+00 -0.00000000000E+00 -0.45593999997E+02  0.45594000000E+02  0.51100000000E-03 0. -1.
    9900012    2    1    2    0    0  0.24593548420E-01 -0.19360813835E+00 -0.11640154639E+01  0.90007736913E+02  0.89999998240E+02 0.  0.
         23    2    3    3    0    0 -0.80671236715E+01 -0.85795051347E+01 -0.21029748278E+02  0.66976312810E+02  0.62489117231E+02 0.  0.
        -12    1    1    2    0    0 -0.24593548420E-01  0.19360813835E+00  0.11640154639E+01  0.11802630868E+01  0.00000000000E+00 0.  1.
         11    1    4    4    0    0 -0.22689921031E+02 -0.28371426471E+02 -0.29647253375E+01  0.36449416360E+02  0.51100000000E-03 0. -1.
        -11    1    4    4    0    0  0.14622797360E+02  0.19791921336E+02 -0.18065022940E+02  0.30526896450E+02  0.51100000000E-03 0.  1.
        -12    1    3    3    0    0  0.80917172199E+01  0.83858969964E+01  0.19865732814E+02  0.23031424103E+02  0.00000000000E+00 0.  1.
</event>
<event>
 7    1  0.2578619E-015  0.9000777E+02  0.7816164E-02  0.1186339E+00
        -11   -1    0    0    0    0  0.00000000000E+00  0.00000000000E+00  0.45593999997E+02  0.45594000000E+02  0.51100000000E-03 0.  1.
         11   -1    0    0    0    0 -0.00000000000E+00 -0.00000000000E+00 -0.45593999997E+02  0.45594000000E+02  0.51100000000E-03 0. -1.
    9900012    2    1    2    0    0 -0.74535167585E+00 -0.66737851060E+00 -0.62610124902E+00  0.90007768679E+02  0.90000030426E+02 0.  0.
        -12    1    1    2    0    0  0.74535167585E+00  0.66737851060E+00  0.62610124902E+00  0.11802313210E+01  0.00000000000E+00 0.  1.
         11    1    3    3    0    0  0.98444792229E+01  0.27140421528E+01  0.12317395816E+01  0.10285765826E+02  0.51100000000E-03 0. -1.
        -11    1    3    3    0    0 -0.27238177206E+01 -0.40879478989E+02 -0.50249152910E+01  0.41277121500E+02  0.51100000000E-03 0.  1.
         12    1    3    3    0    0 -0.78660131782E+01  0.37498058326E+02  0.31670744604E+01  0.38444881352E+02  0.00000000000E+00 0. -1.
</event>
<event>
 7    1  0.2578619E-015  0.9000759E+02  0.7816164E-02  0.1186339E+00
        -11   -1    0    0    0    0  0.00000000000E+00  0.00000000000E+00  0.45593999997E+02  0.45594000000E+02  0.51100000000E-03 0. -1.
         11   -1    0    0    0    0 -0.00000000000E+00 -0.00000000000E+00 -0.45593999997E+02  0.45594000000E+02  0.51100000000E-03 0.  1.
    9900012    2    1    2    0    0  0.85157171624E+00 -0.52872886149E+00 -0.62341175572E+00  0.90007588710E+02  0.89999848081E+02 0.  0.
        -12    1    1    2    0    0 -0.85157171624E+00  0.52872886149E+00  0.62341175572E+00  0.11804112902E+01  0.00000000000E+00 0.  1.
         11    1    3    3    0    0 -0.31678912854E+01 -0.33905078472E+02  0.16970162892E+02  0.38047027613E+02  0.51100000000E-03 0. -1.
        -11    1    3    3    0    0 -0.30479894818E+01 -0.43682187086E+01  0.50843674412E+01  0.73635838493E+01  0.51100000000E-03 0.  1.
        -12    1    3    3    0    0  0.70674524834E+01  0.37744568319E+02 -0.22677942089E+02  0.44596977247E+02  0.00000000000E+00 0.  1.
</event>
<event>
 7    1  0.2578619E-015  0.9000776E+02  0.7816164E-02  0.1186339E+00
        -11   -1    0    0    0    0  0.00000000000E+00  0.00000000000E+00  0.45593999997E+02  0.45594000000E+02  0.51100000000E-03 0.  1.
         11   -1    0    0    0    0 -0.00000000000E+00 -0.00000000000E+00 -0.45593999997E+02  0.45594000000E+02  0.51100000000E-03 0. -1.
    9900012    2    1    2    0    0 -0.36778494329E+00 -0.80728433433E+00 -0.77845503291E+00  0.90007760194E+02  0.90000021829E+02 0.  0.
        -12    1    1    2    0    0  0.36778494329E+00  0.80728433433E+00  0.77845503291E+00  0.11802398058E+01  0.00000000000E+00 0.  1.
         11    1    3    3    0    0 -0.59696136337E+01 -0.12833819316E+02  0.71608914623E+00  0.14172367096E+02  0.51100000000E-03 0. -1.
        -11    1    3    3    0    0  0.19093937525E+02 -0.24722200033E+02  0.13346973384E+02  0.33969211405E+02  0.51100000000E-03 0.  1.
         12    1    3    3    0    0 -0.13492108835E+02  0.36748735015E+02 -0.14841517563E+02  0.41866181693E+02  0.00000000000E+00 0. -1.
</event>
<event>
 7    1  0.2578619E-015  0.9000766E+02  0.7816164E-02  0.1186339E+00
        -11   -1    0    0    0    0  0.00000000000E+00  0.00000000000E+00  0.45593999997E+02  0.45594000000E+02  0.51100000000E-03 0.  1.
         11   -1    0    0    0    0 -0.00000000000E+00 -0.00000000000E+00 -0.45593999997E+02  0.45594000000E+02  0.51100000000E-03 0. -1.
    9900012    2    1    2    0    0 -0.61303811085E+00  0.99674918565E+00 -0.15454976205E+00  0.90007656705E+02  0.89999916974E+02 0.  0.
        -12    1    1    2    0    0  0.61303811085E+00 -0.99674918565E+00  0.15454976205E+00  0.11803432947E+01  0.00000000000E+00 0.  1.
         11    1    3    3    0    0  0.22117210672E+02 -0.30163094506E+02  0.11538628028E+00  0.37403162866E+02  0.51100000000E-03 0. -1.
        -11    1    3    3    0    0 -0.31357175397E+01 -0.79418771416E+01 -0.22269218431E+01  0.88241327153E+01  0.51100000000E-03 0.  1.
        -12    1    3    3    0    0 -0.19594531243E+02  0.39101720833E+02  0.19569858007E+01  0.43780361124E+02  0.00000000000E+00 0.  1.
</event>
<event>
 7    1  0.2578619E-015  0.9000771E+02  0.7816164E-02  0.1186339E+00
        -11   -1    0    0    0    0  0.00000000000E+00  0.00000000000E+00  0.45593999997E+02  0.45594000000E+02  0.51100000000E-03 0. -1.
         11   -1    0    0    0    0 -0.00000000000E+00 -0.00000000000E+00 -0.45593999997E+02  0.45594000000E+02  0.51100000000E-03 0.  1.
    9900012    2    1    2    0    0  0.87275609542E+00 -0.54481128543E+00 -0.57840793125E+00  0.90007712631E+02  0.89999973638E+02 0.  0.
        -12    1    1    2    0    0 -0.87275609542E+00  0.54481128543E+00  0.57840793125E+00  0.11802873691E+01  0.00000000000E+00 0.  1.
         11    1    3    3    0    0  0.10191081650E+02 -0.14870963756E+02  0.31733221824E+02  0.36496589920E+02  0.51100000000E-03 0. -1.
        -11    1    3    3    0    0 -0.62504938730E+01 -0.39881312352E+01  0.68977226641E+01  0.10126817991E+02  0.51100000000E-03 0.  1.
        -12    1    3    3    0    0 -0.30678316814E+01  0.18314283706E+02 -0.39209352419E+02  0.43384304720E+02  0.00000000000E+00 0.  1.
</event>
<event>
 7    1  0.2578619E-015  0.9000772E+02  0.7816164E-02  0.1186339E+00
        -11   -1    0    0    0    0  0.00000000000E+00  0.00000000000E+00  0.45593999997E+02  0.45594000000E+02  0.51100000000E-03 0.  1.
         11   -1    0    0    0    0 -0.00000000000E+00 -0.00000000000E+00 -0.45593999997E+02  0.45594000000E+02  0.51100000000E-03 0. -1.
    9900012    2    1    2    0    0 -0.56939669155E-01 -0.10849438051E+01 -0.46120643605E+00  0.90007721828E+02  0.89999982956E+02 0.  0.
        -12    1    1    2    0    0  0.56939669155E-01  0.10849438051E+01  0.46120643605E+00  0.11802781718E+01  0.00000000000E+00 0.  1.
         11    1    3    3    0    0  0.24824267985E+02  0.30766039801E+02 -0.67775047156E+01  0.40108952323E+02  0.51100000000E-03 0. -1.
        -11    1    3    3    0    0 -0.80984565304E+01  0.36991629214E+01 -0.31824416247E+01  0.94549848995E+01  0.51100000000E-03 0.  1.
        -12    1    3    3    0    0 -0.16782751124E+02 -0.35550146528E+02  0.94987399043E+01  0.40443784605E+02  0.00000000000E+00 0.  1.
</event>
<event>
 7    1  0.2578619E-015  0.9000765E+02  0.7816164E-02  0.1186339E+00
        -11   -1    0    0    0    0  0.00000000000E+00  0.00000000000E+00  0.45593999997E+02  0.45594000000E+02  0.51100000000E-03 0. -1.
         11   -1    0    0    0    0 -0.00000000000E+00 -0.00000000000E+00 -0.45593999997E+02  0.45594000000E+02  0.51100000000E-03 0.  1.
    9900012    2    1    2    0    0 -0.51884895380E+00  0.85192149856E+00  0.63107301647E+00  0.90007649362E+02  0.89999909534E+02 0.  0.
        -12    1    1    2    0    0  0.51884895380E+00 -0.85192149856E+00 -0.63107301647E+00  0.11803506380E+01  0.00000000000E+00 0.  1.
         11    1    3    3    0    0 -0.19268115536E+02  0.30536612566E+02  0.74845248676E+01  0.36874965709E+02  0.51100000000E-03 0. -1.
        -11    1    3    3    0    0 -0.32732441228E+01  0.62303482768E+01  0.58262973746E+01  0.91365807661E+01  0.51100000000E-03 0.  1.
        -12    1    3    3    0    0  0.22022510705E+02 -0.35915039344E+02 -0.12679749226E+02  0.43996102887E+02  0.00000000000E+00 0.  1.
</event>
<event>
 7    1  0.2578619E-015  0.9000772E+02  0.7816164E-02  0.1186339E+00
        -11   -1    0    0    0    0  0.00000000000E+00  0.00000000000E+00  0.45593999997E+02  0.45594000000E+02  0.51100000000E-03 0. -1.
         11   -1    0    0    0    0 -0.00000000000E+00 -0.00000000000E+00 -0.45593999997E+02  0.45594000000E+02  0.51100000000E-03 0.  1.
    9900012    2    1    2    0    0 -0.87864632621E+00 -0.28071491484E+00  0.73636277353E+00  0.90007724454E+02  0.89999985617E+02 0.  0.
        -12    1    1    2    0    0  0.87864632621E+00  0.28071491484E+00 -0.73636277353E+00  0.11802755459E+01  0.00000000000E+00 0.  1.
         11    1    3    3    0    0  0.20745226738E+02  0.92458326411E+01  0.29238906433E+02  0.37023823456E+02  0.51100000000E-03 0. -1.
        -11    1    3    3    0    0  0.38673509858E+00  0.86040433765E+01  0.42102756450E+01  0.95867381173E+01  0.51100000000E-03 0.  1.
        -12    1    3    3    0    0 -0.22010608162E+02 -0.18130590932E+02 -0.32712819305E+02  0.43397162881E+02  0.00000000000E+00 0.  1.
</event>
<event>
 7    1  0.2578619E-015  0.9000758E+02  0.7816164E-02  0.1186339E+00
        -11   -1    0    0    0    0  0.00000000000E+00  0.00000000000E+00  0.45593999997E+02  0.45594000000E+02  0.51100000000E-03 0.  1.
         11   -1    0    0    0    0 -0.00000000000E+00 -0.00000000000E+00 -0.45593999997E+02  0.45594000000E+02  0.51100000000E-03 0. -1.
    9900012    2    1    2    0    0  0.27964477021E-01 -0.74262926588E+00 -0.91711723260E+00  0.90007583016E+02  0.89999842311E+02 0.  0.
        -12    1    1    2    0    0 -0.27964477021E-01  0.74262926588E+00  0.91711723260E+00  0.11804169843E+01  0.00000000000E+00 0.  1.
         11    1    3    3    0    0  0.34990753269E+02  0.49812112686E+01 -0.16485199154E+02  0.38999065007E+02  0.51100000000E-03 0. -1.
        -11    1    3    3    0    0 -0.24534093525E+01  0.34290556804E+01 -0.85328122611E+01  0.95176953962E+01  0.51100000000E-03 0.  1.
        -12    1    3    3    0    0 -0.32509379439E+02 -0.91528962148E+01  0.24100894183E+02  0.41490822612E+02  0.00000000000E+00 0.  1.
</event>
<event>
 7    1  0.2578619E-015  0.9000767E+02  0.7816164E-02  0.1186339E+00
        -11   -1    0    0    0    0  0.00000000000E+00  0.00000000000E+00  0.45593999997E+02  0.45594000000E+02  0.51100000000E-03 0.  1.
         11   -1    0    0    0    0 -0.00000000000E+00 -0.00000000000E+00 -0.45593999997E+02  0.45594000000E+02  0.51100000000E-03 0. -1.
    9900012    2    1    2    0    0 -0.13343643714E+00  0.90288146168E+00 -0.74844680286E+00  0.90007672574E+02  0.89999933052E+02 0.  0.
        -12    1    1    2    0    0  0.13343643714E+00 -0.90288146168E+00  0.74844680286E+00  0.11803274263E+01  0.00000000000E+00 0.  1.
         11    1    3    3    0    0 -0.28945605330E+02  0.21807813630E+02  0.48240166065E+01  0.36560907260E+02  0.51100000000E-03 0. -1.
        -11    1    3    3    0    0 -0.43129040203E+01  0.63382363448E+01  0.51527201461E+01  0.92371481647E+01  0.51100000000E-03 0.  1.
        -12    1    3    3    0    0  0.33125072913E+02 -0.27243168513E+02 -0.10725183555E+02  0.44209617149E+02  0.00000000000E+00 0.  1.
</event>
<event>
 7    1  0.2578619E-015  0.9000759E+02  0.7816164E-02  0.1186339E+00
        -11   -1    0    0    0    0  0.00000000000E+00  0.00000000000E+00  0.45593999997E+02  0.45594000000E+02  0.51100000000E-03 0.  1.
         11   -1    0    0    0    0 -0.00000000000E+00 -0.00000000000E+00 -0.45593999997E+02  0.45594000000E+02  0.51100000000E-03 0. -1.
    9900012    2    1    2    0    0  0.11147232751E+01 -0.16543229951E+00  0.35127805080E+00  0.90007588167E+02  0.89999847531E+02 0.  0.
        -12    1    1    2    0    0 -0.11147232751E+01  0.16543229951E+00 -0.35127805080E+00  0.11804118326E+01  0.00000000000E+00 0.  1.
         11    1    3    3    0    0  0.12535979883E+02 -0.22289138059E+02 -0.23965369448E+02  0.35047045526E+02  0.51100000000E-03 0. -1.
        -11    1    3    3    0    0 -0.23689169248E+02  0.84509506719E+00  0.63835101150E+01  0.24548729641E+02  0.51100000000E-03 0.  1.
        -12    1    3    3    0    0  0.12267912640E+02  0.21278610692E+02  0.17933137384E+02  0.30411813000E+02  0.00000000000E+00 0.  1.
</event>
<event>
 7    1  0.2578619E-015  0.9000777E+02  0.7816164E-02  0.1186339E+00
        -11   -1    0    0    0    0  0.00000000000E+00  0.00000000000E+00  0.45593999997E+02  0.45594000000E+02  0.51100000000E-03 0.  1.
         11   -1    0    0    0    0 -0.00000000000E+00 -0.00000000000E+00 -0.45593999997E+02  0.45594000000E+02  0.51100000000E-03 0. -1.
    9900012    2    1    2    0    0 -0.66877976529E-01 -0.12082861230E+00 -0.11721214426E+01  0.90007770830E+02  0.90000032605E+02 0.  0.
        -12    1    1    2    0    0  0.66877976529E-01  0.12082861230E+00  0.11721214426E+01  0.11802291699E+01  0.00000000000E+00 0.  1.
         11    1    3    3    0    0  0.69993120575E+01 -0.95120738277E+00 -0.27265711731E+01  0.75716151108E+01  0.51100000000E-03 0. -1.
        -11    1    3    3    0    0  0.35785606268E+02 -0.11870599465E+02  0.17027064010E+01  0.37741488537E+02  0.51100000000E-03 0.  1.
         12    1    3    3    0    0 -0.42851796302E+02  0.12700978236E+02 -0.14825667048E+00  0.44694667182E+02  0.00000000000E+00 0. -1.
</event>
<event>
 7    1  0.2578619E-015  0.9000790E+02  0.7816164E-02  0.1186339E+00
        -11   -1    0    0    0    0  0.00000000000E+00  0.00000000000E+00  0.45593999997E+02  0.45594000000E+02  0.51100000000E-03 0.  1.
         11   -1    0    0    0    0 -0.00000000000E+00 -0.00000000000E+00 -0.45593999997E+02  0.45594000000E+02  0.51100000000E-03 0. -1.
    9900012    2    1    2    0    0 -0.84229610243E+00 -0.51875161236E+00 -0.64348614877E+00  0.90007898147E+02  0.90000161603E+02 0.  0.
        -12    1    1    2    0    0  0.84229610243E+00  0.51875161236E+00  0.64348614877E+00  0.11801018529E+01  0.00000000000E+00 0.  1.
         11    1    3    3    0    0 -0.39395950591E+01  0.36931563409E+01  0.75139449680E+01  0.92530633971E+01  0.51100000000E-03 0. -1.
        -11    1    3    3    0    0  0.41217161432E+02 -0.79912371948E+01 -0.28378992263E+01  0.42080493589E+02  0.51100000000E-03 0.  1.
         12    1    3    3    0    0 -0.38119862476E+02  0.37793292415E+01 -0.53195318905E+01  0.38674341161E+02  0.00000000000E+00 0. -1.
</event>
<event>
 7    1  0.2578619E-015  0.9000782E+02  0.7816164E-02  0.1186339E+00
        -11   -1    0    0    0    0  0.00000000000E+00  0.00000000000E+00  0.45593999997E+02  0.45594000000E+02  0.51100000000E-03 0. -1.
         11   -1    0    0    0    0 -0.00000000000E+00 -0.00000000000E+00 -0.45593999997E+02  0.45594000000E+02  0.51100000000E-03 0.  1.
    9900012    2    1    2    0    0  0.54676511731E+00  0.31538322662E+00  0.99720013998E+00  0.90007819170E+02  0.90000081583E+02 0.  0.
        -12    1    1    2    0    0 -0.54676511731E+00 -0.31538322662E+00 -0.99720013998E+00  0.11801808304E+01  0.00000000000E+00 0.  1.
         11    1    3    3    0    0  0.23157634059E+02 -0.14786879314E+02 -0.21519336539E+02  0.34899995135E+02  0.51100000000E-03 0. -1.
        -11    1    3    3    0    0  0.12326267291E+02  0.16720109020E+01  0.88292955105E+01  0.15254145183E+02  0.51100000000E-03 0.  1.
        -12    1    3    3    0    0 -0.34937136233E+02  0.13430251639E+02  0.13687241169E+02  0.39853678852E+02  0.00000000000E+00 0.  1.
</event>
<event>
 7    1  0.2578619E-015  0.9000676E+02  0.7816164E-02  0.1186341E+00
        -11   -1    0    0    0    0  0.00000000000E+00  0.00000000000E+00  0.45593999997E+02  0.45594000000E+02  0.51100000000E-03 0.  1.
         11   -1    0    0    0    0 -0.00000000000E+00 -0.00000000000E+00 -0.45593999997E+02  0.45594000000E+02  0.51100000000E-03 0. -1.
    9900012    2    1    2    0    0 -0.10882468860E+01 -0.26029218845E+00 -0.37852926017E+00  0.90006764330E+02  0.89999012813E+02 0.  0.
        -12    1    1    2    0    0  0.10882468860E+01  0.26029218845E+00  0.37852926017E+00  0.11812356704E+01  0.00000000000E+00 0.  1.
         11    1    3    3    0    0 -0.72439254225E+01 -0.17257650972E+01  0.15991833516E+01  0.76164367227E+01  0.51100000000E-03 0. -1.
        -11    1    3    3    0    0 -0.23171323762E+02 -0.14072123516E+02  0.27051244154E+02  0.38297581068E+02  0.51100000000E-03 0.  1.
         12    1    3    3    0    0  0.29327002298E+02  0.15537596425E+02 -0.29028956765E+02  0.44092746539E+02  0.00000000000E+00 0. -1.
</event>
<event>
 7    1  0.2578619E-015  0.9000781E+02  0.7816164E-02  0.1186339E+00
        -11   -1    0    0    0    0  0.00000000000E+00  0.00000000000E+00  0.45593999997E+02  0.45594000000E+02  0.51100000000E-03 0.  1.
         11   -1    0    0    0    0 -0.00000000000E+00 -0.00000000000E+00 -0.45593999997E+02  0.45594000000E+02  0.51100000000E-03 0. -1.
    9900012    2    1    2    0    0 -0.47061667813E+00 -0.96968903226E+00 -0.48069668545E+00  0.90007810956E+02  0.90000073260E+02 0.  0.
        -12    1    1    2    0    0  0.47061667813E+00  0.96968903226E+00  0.48069668545E+00  0.11801890444E+01  0.00000000000E+00 0.  1.
         11    1    3    3    0    0 -0.28272740720E+02 -0.87531678892E+01 -0.24213975020E+02  0.38239801287E+02  0.51100000000E-03 0. -1.
        -11    1    3    3    0    0 -0.86875359752E+01  0.30430393512E+01  0.44223040474E+01  0.10212254558E+02  0.51100000000E-03 0.  1.
        -12    1    3    3    0    0  0.36489660017E+02  0.47404395058E+01  0.19310974287E+02  0.41555755111E+02  0.00000000000E+00 0.  1.
</event>
<event>
 7    1  0.2578619E-015  0.9000772E+02  0.7816164E-02  0.1186339E+00
        -11   -1    0    0    0    0  0.00000000000E+00  0.00000000000E+00  0.45593999997E+02  0.45594000000E+02  0.51100000000E-03 0.  1.
         11   -1    0    0    0    0 -0.00000000000E+00 -0.00000000000E+00 -0.45593999997E+02  0.45594000000E+02  0.51100000000E-03 0. -1.
    9900012    2    1    2    0    0 -0.10744972498E+01 -0.43990575188E+00  0.21210306023E+00  0.90007724982E+02  0.89999986152E+02 0.  0.
        -12    1    1    2    0    0  0.10744972498E+01  0.43990575188E+00 -0.21210306023E+00  0.11802750181E+01  0.00000000000E+00 0.  1.
         11    1    3    3    0    0 -0.60086484575E+01  0.93242021537E+01 -0.62013125819E+01  0.12708299654E+02  0.51100000000E-03 0. -1.
        -11    1    3    3    0    0 -0.35498733045E+02 -0.15235930053E+01  0.59925030578E+01  0.36033199644E+02  0.51100000000E-03 0.  1.
         12    1    3    3    0    0  0.40432884253E+02 -0.82405149003E+01  0.42091258434E+00  0.41266225684E+02  0.00000000000E+00 0. -1.
</event>
<event>
 7    1  0.2578619E-015  0.9000774E+02  0.7816164E-02  0.1186339E+00
        -11   -1    0    0    0    0  0.00000000000E+00  0.00000000000E+00  0.45593999997E+02  0.45594000000E+02  0.51100000000E-03 0.  1.
         11   -1    0    0    0    0 -0.00000000000E+00 -0.00000000000E+00 -0.45593999997E+02  0.45594000000E+02  0.51100000000E-03 0. -1.
    9900012    2    1    2    0    0 -0.10440014293E+01  0.25611899696E+00  0.48731555267E+00  0.90007740548E+02  0.90000001924E+02 0.  0.
        -12    1    1    2    0    0  0.10440014293E+01 -0.25611899696E+00 -0.48731555267E+00  0.11802594515E+01  0.00000000000E+00 0.  1.
         11    1    3    3    0    0 -0.77001735089E+01 -0.69423899188E+01 -0.91705669787E+01  0.13841558757E+02  0.51100000000E-03 0. -1.
        -11    1    3    3    0    0 -0.86597623616E+00 -0.30376132197E+02  0.20117547043E+02  0.36444135624E+02  0.51100000000E-03 0.  1.
         12    1    3    3    0    0  0.75221483157E+01  0.37574641113E+02 -0.10459664512E+02  0.39722046167E+02  0.00000000000E+00 0. -1.
</event>
<event>
 7    1  0.2578619E-015  0.9000772E+02  0.7816164E-02  0.1186339E+00
        -11   -1    0    0    0    0  0.00000000000E+00  0.00000000000E+00  0.45593999997E+02  0.45594000000E+02  0.51100000000E-03 0. -1.
         11   -1    0    0    0    0 -0.00000000000E+00 -0.00000000000E+00 -0.45593999997E+02  0.45594000000E+02  0.51100000000E-03 0.  1.
    9900012    2    1    2    0    0  0.72148543127E-01 -0.10563620606E+01  0.52148446301E+00  0.90007723651E+02  0.89999984803E+02 0.  0.
        -12    1    1    2    0    0 -0.72148543127E-01  0.10563620606E+01 -0.52148446301E+00  0.11802763492E+01  0.00000000000E+00 0.  1.
         11    1    3    3    0    0 -0.10421365199E+02  0.41226094671E+01  0.34855968754E+02  0.36613376237E+02  0.51100000000E-03 0. -1.
        -11    1    3    3    0    0  0.16274359376E+01 -0.36543094782E+01  0.86226043104E+01  0.95053580074E+01  0.51100000000E-03 0.  1.
        -12    1    3    3    0    0  0.88660778048E+01 -0.15246620494E+01 -0.42957088601E+02  0.43888989406E+02  0.00000000000E+00 0.  1.
</event>
<event>
 7    1  0.2578619E-015  0.9000764E+02  0.7816164E-02  0.1186339E+00
        -11   -1    0    0    0    0  0.00000000000E+00  0.00000000000E+00  0.45593999997E+02  0.45594000000E+02  0.51100000000E-03 0.  1.
         11   -1    0    0    0    0 -0.00000000000E+00 -0.00000000000E+00 -0.45593999997E+02  0.45594000000E+02  0.51100000000E-03 0. -1.
    9900012    2    1    2    0    0  0.11100518660E+01 -0.36451120180E+00  0.16780230377E+00  0.90007643624E+02  0.89999903720E+02 0.  0.
        -12    1    1    2    0    0 -0.11100518660E+01  0.36451120180E+00 -0.16780230377E+00  0.11803563761E+01  0.00000000000E+00 0.  1.
         11    1    3    3    0    0 -0.24892140544E+01 -0.82998083563E+01 -0.11921064800E+02  0.14737530037E+02  0.51100000000E-03 0. -1.
        -11    1    3    3    0    0  0.27155734740E+02 -0.21103453911E+02  0.15499435370E+02  0.37722966391E+02  0.51100000000E-03 0.  1.
         12    1    3    3    0    0 -0.23556468820E+02  0.29038751066E+02 -0.34105682669E+01  0.37547147197E+02  0.00000000000E+00 0. -1.
</event>
<event>
 7    1  0.2578619E-015  0.9000770E+02  0.7816164E-02  0.1186339E+00
        -11   -1    0    0    0    0  0.00000000000E+00  0.00000000000E+00  0.45593999997E+02  0.45594000000E+02  0.51100000000E-03 0.  1.
         11   -1    0    0    0    0 -0.00000000000E+00 -0.00000000000E+00 -0.45593999997E+02  0.45594000000E+02  0.51100000000E-03 0. -1.
    9900012    2    1    2    0    0  0.45079984711E+00 -0.58288129705E+00 -0.92202706921E+00  0.90007701298E+02  0.89999962156E+02 0.  0.
        -12    1    1    2    0    0 -0.45079984711E+00  0.58288129705E+00  0.92202706921E+00  0.11802987016E+01  0.00000000000E+00 0.  1.
         11    1    3    3    0    0  0.56185355261E+01  0.36513709793E+02  0.87948717398E+01  0.37975896481E+02  0.51100000000E-03 0. -1.
        -11    1    3    3    0    0  0.26573111073E+01  0.50897973390E+01  0.39872874676E+01  0.69904077767E+01  0.51100000000E-03 0.  1.
        -12    1    3    3    0    0 -0.78250467864E+01 -0.42186388429E+02 -0.13704186277E+02  0.45041397041E+02  0.00000000000E+00 0.  1.
</event>
<event>
 7    1  0.2578619E-015  0.9000753E+02  0.7816164E-02  0.1186339E+00
        -11   -1    0    0    0    0  0.00000000000E+00  0.00000000000E+00  0.45593999997E+02  0.45594000000E+02  0.51100000000E-03 0.  1.
         11   -1    0    0    0    0 -0.00000000000E+00 -0.00000000000E+00 -0.45593999997E+02  0.45594000000E+02  0.51100000000E-03 0. -1.
    9900012    2    1    2    0    0  0.10129008817E+01  0.82656724856E-01 -0.60059383568E+00  0.90007528363E+02  0.89999786937E+02 0.  0.
        -12    1    1    2    0    0 -0.10129008817E+01 -0.82656724856E-01  0.60059383568E+00  0.11804716370E+01  0.00000000000E+00 0.  1.
         11    1    3    3    0    0 -0.41093685648E+01 -0.66150708845E+01  0.33135941466E+01  0.84632132928E+01  0.51100000000E-03 0. -1.
        -11    1    3    3    0    0 -0.29730894213E+02  0.74007367790E+01  0.22327855480E+02  0.37910817799E+02  0.51100000000E-03 0.  1.
         12    1    3    3    0    0  0.34853163660E+02 -0.70300916959E+00 -0.26242043463E+02  0.43633497271E+02  0.00000000000E+00 0. -1.
</event>
<event>
 7    1  0.2578619E-015  0.9000773E+02  0.7816164E-02  0.1186339E+00
        -11   -1    0    0    0    0  0.00000000000E+00  0.00000000000E+00  0.45593999997E+02  0.45594000000E+02  0.51100000000E-03 0.  1.
         11   -1    0    0    0    0 -0.00000000000E+00 -0.00000000000E+00 -0.45593999997E+02  0.45594000000E+02  0.51100000000E-03 0. -1.
    9900012    2    1    2    0    0  0.62213392780E+00  0.90288714787E+00 -0.43679529965E+00  0.90007726320E+02  0.89999987507E+02 0.  0.
        -12    1    1    2    0    0 -0.62213392780E+00 -0.90288714787E+00  0.43679529965E+00  0.11802736800E+01  0.00000000000E+00 0.  1.
         11    1    3    3    0    0  0.10217210001E+02 -0.16594687033E+01  0.49565948843E+00  0.10362957839E+02  0.51100000000E-03 0. -1.
        -11    1    3    3    0    0  0.34860576548E+02 -0.99477058682E+00 -0.29662155176E+01  0.35000682858E+02  0.51100000000E-03 0.  1.
         12    1    3    3    0    0 -0.44455652621E+02  0.35571264380E+01  0.20337607295E+01  0.44644085623E+02  0.00000000000E+00 0. -1.
</event>
<event>
 7    1  0.2578619E-015  0.9000760E+02  0.7816164E-02  0.1186339E+00
        -11   -1    0    0    0    0  0.00000000000E+00  0.00000000000E+00  0.45593999997E+02  0.45594000000E+02  0.51100000000E-03 0. -1.
         11   -1    0    0    0    0 -0.00000000000E+00 -0.00000000000E+00 -0.45593999997E+02  0.45594000000E+02  0.51100000000E-03 0.  1.
    9900012    2    1    2    0    0  0.10218105098E+01  0.38930460820E-01 -0.58969658520E+00  0.90007595679E+02  0.89999855142E+02 0.  0.
        -12    1    1    2    0    0 -0.10218105098E+01 -0.38930460820E-01  0.58969658520E+00  0.11804043211E+01  0.00000000000E+00 0.  1.
         11    1    3    3    0    0  0.37573138678E+02  0.29698768889E+01  0.16797836690E+02  0.41264127721E+02  0.51100000000E-03 0. -1.
        -11    1    3    3    0    0 -0.46547441880E+01 -0.10379990451E+02  0.56788837698E+00  0.11390054551E+02  0.51100000000E-03 0.  1.
        -12    1    3    3    0    0 -0.31896583980E+02  0.74490440227E+01 -0.17955421652E+02  0.37353413407E+02  0.00000000000E+00 0.  1.
</event>
<event>
 7    1  0.2578619E-015  0.9000774E+02  0.7816164E-02  0.1186339E+00
        -11   -1    0    0    0    0  0.00000000000E+00  0.00000000000E+00  0.45593999997E+02  0.45594000000E+02  0.51100000000E-03 0.  1.
         11   -1    0    0    0    0 -0.00000000000E+00 -0.00000000000E+00 -0.45593999997E+02  0.45594000000E+02  0.51100000000E-03 0. -1.
    9900012    2    1    2    0    0 -0.84700803009E+00  0.18942842627E+00 -0.79981420439E+00  0.90007742192E+02  0.90000003589E+02 0.  0.
        -12    1    1    2    0    0  0.84700803009E+00 -0.18942842627E+00  0.79981420439E+00  0.11802578080E+01  0.00000000000E+00 0.  1.
         11    1    3    3    0    0  0.58986318709E+01 -0.23204652728E+01 -0.60797458873E+01  0.87830363398E+01  0.51100000000E-03 0. -1.
        -11    1    3    3    0    0 -0.23830415512E+02 -0.25780928569E+02  0.24668596561E+02  0.42907862192E+02  0.51100000000E-03 0.  1.
         12    1    3    3    0    0  0.17084775611E+02  0.28290822268E+02 -0.19388664878E+02  0.38316843660E+02  0.00000000000E+00 0. -1.
</event>
<event>
 7    1  0.2578619E-015  0.9000799E+02  0.7816164E-02  0.1186339E+00
        -11   -1    0    0    0    0  0.00000000000E+00  0.00000000000E+00  0.45593999997E+02  0.45594000000E+02  0.51100000000E-03 0. -1.
         11   -1    0    0    0    0 -0.00000000000E+00 -0.00000000000E+00 -0.45593999997E+02  0.45594000000E+02  0.51100000000E-03 0.  1.
    9900012    2    1    2    0    0  0.70110840012E+00 -0.94359293583E+00  0.10242708577E+00  0.90007994947E+02  0.90000259680E+02 0.  0.
        -12    1    1    2    0    0 -0.70110840012E+00  0.94359293583E+00 -0.10242708577E+00  0.11800050530E+01  0.00000000000E+00 0.  1.
         11    1    3    3    0    0  0.28508427111E+02 -0.21118265568E+02  0.22643213782E+02  0.42088320085E+02  0.51100000000E-03 0. -1.
        -11    1    3    3    0    0 -0.82533629647E+01  0.12427026291E+01  0.45601093852E+01  0.95108836560E+01  0.51100000000E-03 0.  1.
        -12    1    3    3    0    0 -0.19553955746E+02  0.18931970003E+02 -0.27100896081E+02  0.38408791206E+02  0.00000000000E+00 0.  1.
</event>
<event>
 7    1  0.4103211E-015  0.9000774E+02  0.7816164E-02  0.1186339E+00
        -11   -1    0    0    0    0  0.00000000000E+00  0.00000000000E+00  0.45593999997E+02  0.45594000000E+02  0.51100000000E-03 0. -1.
         11   -1    0    0    0    0 -0.00000000000E+00 -0.00000000000E+00 -0.45593999997E+02  0.45594000000E+02  0.51100000000E-03 0.  1.
    9900012    2    1    2    0    0  0.94341555445E+00 -0.51422086444E+00  0.48843540826E+00  0.90007735134E+02  0.89999996438E+02 0.  0.
        -12    1    1    2    0    0 -0.94341555445E+00  0.51422086444E+00 -0.48843540826E+00  0.11802648660E+01  0.00000000000E+00 0.  1.
         11    1    3    3    0    0  0.72321844402E+01 -0.61690460914E+01 -0.47005053857E+00  0.95174875479E+01  0.51100000000E-03 0. -1.
        -11    1    3    3    0    0  0.12794094286E+02  0.21614683978E+01 -0.36264081357E+02  0.38515508451E+02  0.51100000000E-03 0.  1.
         12    1    3    3    0    0 -0.19082863172E+02  0.34933568291E+01  0.37222567304E+02  0.41974739136E+02  0.00000000000E+00 0. -1.
</event>
<event>
 7    1  0.2578619E-015  0.9000782E+02  0.7816164E-02  0.1186339E+00
        -11   -1    0    0    0    0  0.00000000000E+00  0.00000000000E+00  0.45593999997E+02  0.45594000000E+02  0.51100000000E-03 0. -1.
         11   -1    0    0    0    0 -0.00000000000E+00 -0.00000000000E+00 -0.45593999997E+02  0.45594000000E+02  0.51100000000E-03 0.  1.
    9900012    2    1    2    0    0  0.11212860927E+01  0.36422883277E+00 -0.53647851890E-01  0.90007820676E+02  0.90000083109E+02 0.  0.
        -12    1    1    2    0    0 -0.11212860927E+01 -0.36422883277E+00  0.53647851890E-01  0.11801793238E+01  0.00000000000E+00 0.  1.
         11    1    3    3    0    0 -0.95573788662E+01  0.18873598478E+02  0.35128139571E+02  0.41006614104E+02  0.51100000000E-03 0. -1.
        -11    1    3    3    0    0 -0.49919047877E+01  0.37562375426E+01 -0.32657706107E+01  0.70493752793E+01  0.51100000000E-03 0.  1.
        -12    1    3    3    0    0  0.15670569747E+02 -0.22265607188E+02 -0.31916016812E+02  0.41951831293E+02  0.00000000000E+00 0.  1.
</event>
<event>
 7    1  0.2578619E-015  0.9000774E+02  0.7816164E-02  0.1186339E+00
        -11   -1    0    0    0    0  0.00000000000E+00  0.00000000000E+00  0.45593999997E+02  0.45594000000E+02  0.51100000000E-03 0.  1.
         11   -1    0    0    0    0 -0.00000000000E+00 -0.00000000000E+00 -0.45593999997E+02  0.45594000000E+02  0.51100000000E-03 0. -1.
    9900012    2    1    2    0    0 -0.40918747517E+00  0.55632490586E-02 -0.11070486600E+01  0.90007736438E+02  0.89999997759E+02 0.  0.
        -12    1    1    2    0    0  0.40918747517E+00 -0.55632490586E-02  0.11070486600E+01  0.11802635617E+01  0.00000000000E+00 0.  1.
         11    1    3    3    0    0 -0.52792841331E+01 -0.50962927285E+01 -0.42841348717E+02  0.43465206783E+02  0.51100000000E-03 0. -1.
        -11    1    3    3    0    0  0.64027606805E+01 -0.62664603985E+01  0.15364421371E+02  0.17785649119E+02  0.51100000000E-03 0.  1.
        -12    1    3    3    0    0 -0.15326640226E+01  0.11368316376E+02  0.26369878686E+02  0.28756880536E+02  0.00000000000E+00 0.  1.
</event>
<event>
 7    1  0.2578619E-015  0.9000777E+02  0.7816164E-02  0.1186339E+00
        -11   -1    0    0    0    0  0.00000000000E+00  0.00000000000E+00  0.45593999997E+02  0.45594000000E+02  0.51100000000E-03 0.  1.
         11   -1    0    0    0    0 -0.00000000000E+00 -0.00000000000E+00 -0.45593999997E+02  0.45594000000E+02  0.51100000000E-03 0. -1.
    9900012    2    1    2    0    0 -0.61219998435E-01  0.73053913178E+00 -0.92493448232E+00  0.90007771587E+02  0.90000033372E+02 0.  0.
        -12    1    1    2    0    0  0.61219998435E-01 -0.73053913178E+00  0.92493448232E+00  0.11802284134E+01  0.00000000000E+00 0.  1.
         11    1    3    3    0    0 -0.31682912368E+02  0.79033516225E+01 -0.20837883223E+02  0.38736123715E+02  0.51100000000E-03 0. -1.
        -11    1    3    3    0    0 -0.73214214839E+01 -0.29144913050E+01  0.51149176126E+01  0.93946716045E+01  0.51100000000E-03 0.  1.
        -12    1    3    3    0    0  0.38943113854E+02 -0.42583211857E+01  0.14798031128E+02  0.41876976267E+02  0.00000000000E+00 0.  1.
</event>
<event>
 7    1  0.2578619E-015  0.9000780E+02  0.7816164E-02  0.1186339E+00
        -11   -1    0    0    0    0  0.00000000000E+00  0.00000000000E+00  0.45593999997E+02  0.45594000000E+02  0.51100000000E-03 0. -1.
         11   -1    0    0    0    0 -0.00000000000E+00 -0.00000000000E+00 -0.45593999997E+02  0.45594000000E+02  0.51100000000E-03 0.  1.
    9900012    2    1    2    0    0 -0.23422580298E+00  0.61333465741E+00 -0.98073010992E+00  0.90007799730E+02  0.90000061886E+02 0.  0.
        -12    1    1    2    0    0  0.23422580298E+00 -0.61333465741E+00  0.98073010992E+00  0.11802002700E+01  0.00000000000E+00 0.  1.
         11    1    3    3    0    0 -0.10097910761E+02  0.44535159575E+00  0.48770821988E+01  0.11222837021E+02  0.51100000000E-03 0. -1.
        -11    1    3    3    0    0 -0.87199512963E+01 -0.31779178708E+02  0.15153406710E+02  0.36270917898E+02  0.51100000000E-03 0.  1.
         12    1    3    3    0    0  0.18583636254E+02  0.31947161770E+02 -0.21011219018E+02  0.42514044811E+02  0.00000000000E+00 0. -1.
</event>
<event>
 7    1  0.2578619E-015  0.9000772E+02  0.7816164E-02  0.1186339E+00
        -11   -1    0    0    0    0  0.00000000000E+00  0.00000000000E+00  0.45593999997E+02  0.45594000000E+02  0.51100000000E-03 0.  1.
         11   -1    0    0    0    0 -0.00000000000E+00 -0.00000000000E+00 -0.45593999997E+02  0.45594000000E+02  0.51100000000E-03 0. -1.
    9900012    2    1    2    0    0 -0.71627197022E+00 -0.19960738420E+00 -0.91660352174E+00  0.90007724329E+02  0.89999985490E+02 0.  0.
        -12    1    1    2    0    0  0.71627197022E+00  0.19960738420E+00  0.91660352174E+00  0.11802756709E+01  0.00000000000E+00 0.  1.
         11    1    3    3    0    0 -0.19885825787E+00 -0.24268843208E+02  0.33303109367E+02  0.41208171387E+02  0.51100000000E-03 0. -1.
        -11    1    3    3    0    0  0.15511248388E+00 -0.50959799426E+01 -0.84799352961E+01  0.98945628678E+01  0.51100000000E-03 0.  1.
        -12    1    3    3    0    0 -0.67252619622E+00  0.29165215766E+02 -0.25739777593E+02  0.38904990075E+02  0.00000000000E+00 0.  1.
</event>
<event>
 7    1  0.2578619E-015  0.9000771E+02  0.7816164E-02  0.1186339E+00
        -11   -1    0    0    0    0  0.00000000000E+00  0.00000000000E+00  0.45593999997E+02  0.45594000000E+02  0.51100000000E-03 0. -1.
         11   -1    0    0    0    0 -0.00000000000E+00 -0.00000000000E+00 -0.45593999997E+02  0.45594000000E+02  0.51100000000E-03 0.  1.
    9900012    2    1    2    0    0  0.80402370126E+00  0.84680848114E+00  0.17191743783E+00  0.90007705833E+02  0.89999966750E+02 0.  0.
        -12    1    1    2    0    0 -0.80402370126E+00 -0.84680848114E+00 -0.17191743783E+00  0.11802941673E+01  0.00000000000E+00 0.  1.
         11    1    3    3    0    0 -0.26531875403E+02 -0.15582831686E+02  0.16910700493E+02  0.35110352422E+02  0.51100000000E-03 0. -1.
        -11    1    3    3    0    0 -0.56276256802E+01 -0.41586396559E+01  0.65536457566E+01  0.95872168823E+01  0.51100000000E-03 0.  1.
        -12    1    3    3    0    0  0.32963524785E+02  0.20588279823E+02 -0.23292428812E+02  0.45310136529E+02  0.00000000000E+00 0.  1.
</event>
<event>
 7    1  0.2578619E-015  0.9000785E+02  0.7816164E-02  0.1186339E+00
        -11   -1    0    0    0    0  0.00000000000E+00  0.00000000000E+00  0.45593999997E+02  0.45594000000E+02  0.51100000000E-03 0. -1.
         11   -1    0    0    0    0 -0.00000000000E+00 -0.00000000000E+00 -0.45593999997E+02  0.45594000000E+02  0.51100000000E-03 0.  1.
    9900012    2    1    2    0    0 -0.51444286242E+00  0.59045482187E+00  0.88287018024E+00  0.90007852505E+02  0.90000115358E+02 0.  0.
        -12    1    1    2    0    0  0.51444286242E+00 -0.59045482187E+00 -0.88287018024E+00  0.11801474952E+01  0.00000000000E+00 0.  1.
         11    1    3    3    0    0  0.60177933562E+01 -0.47700991449E+00 -0.60086005851E+01  0.85173151045E+01  0.51100000000E-03 0. -1.
        -11    1    3    3    0    0 -0.22036738703E+02  0.17000950884E+02 -0.28410094439E+02  0.39771643791E+02  0.51100000000E-03 0.  1.
         12    1    3    3    0    0  0.15504502484E+02 -0.15933486147E+02  0.35301565204E+02  0.41718893609E+02  0.00000000000E+00 0. -1.
</event>
<event>
 7    1  0.2578619E-015  0.9000770E+02  0.7816164E-02  0.1186339E+00
        -11   -1    0    0    0    0  0.00000000000E+00  0.00000000000E+00  0.45593999997E+02  0.45594000000E+02  0.51100000000E-03 0. -1.
         11   -1    0    0    0    0 -0.00000000000E+00 -0.00000000000E+00 -0.45593999997E+02  0.45594000000E+02  0.51100000000E-03 0.  1.
    9900012    2    1    2    0    0  0.10551648594E+01  0.35100360212E+00 -0.39564817070E+00  0.90007697545E+02  0.89999958353E+02 0.  0.
        -12    1    1    2    0    0 -0.10551648594E+01 -0.35100360212E+00  0.39564817070E+00  0.11803024545E+01  0.00000000000E+00 0.  1.
         11    1    3    3    0    0  0.68337776878E+01 -0.29218666008E+02  0.20710530489E+02  0.36460348794E+02  0.51100000000E-03 0. -1.
        -11    1    3    3    0    0 -0.75401154444E+00 -0.12760584709E+01  0.96122236997E+01  0.97258266150E+01  0.51100000000E-03 0.  1.
        -12    1    3    3    0    0 -0.50246012840E+01  0.30845728081E+02 -0.30718402359E+02  0.43821522137E+02  0.00000000000E+00 0.  1.
</event>
<event>
 7    1  0.3000195E-015  0.9000776E+02  0.7816164E-02  0.1186339E+00
        -11   -1    0    0    0    0  0.00000000000E+00  0.00000000000E+00  0.45593999997E+02  0.45594000000E+02  0.51100000000E-03 0.  1.
         11   -1    0    0    0    0 -0.00000000000E+00 -0.00000000000E+00 -0.45593999997E+02  0.45594000000E+02  0.51100000000E-03 0. -1.
    9900012    2    1    2    0    0 -0.55187907319E+00 -0.65103802706E+00 -0.81519719760E+00  0.90007759560E+02  0.90000021187E+02 0.  0.
        -12    1    1    2    0    0  0.55187907319E+00  0.65103802706E+00  0.81519719760E+00  0.11802404395E+01  0.00000000000E+00 0.  1.
         11    1    3    3    0    0  0.16871931183E+01  0.96805648548E+01 -0.75674381503E+00  0.98555881605E+01  0.51100000000E-03 0. -1.
        -11    1    3    3    0    0 -0.16344373471E+02  0.43499600675E+01  0.35417799479E+02  0.39248964534E+02  0.51100000000E-03 0.  1.
         12    1    3    3    0    0  0.14105301280E+02 -0.14681562949E+02 -0.35476252862E+02  0.40903206866E+02  0.00000000000E+00 0. -1.
</event>
<event>
 7    1  0.2578619E-015  0.9000772E+02  0.7816164E-02  0.1186339E+00
        -11   -1    0    0    0    0  0.00000000000E+00  0.00000000000E+00  0.45593999997E+02  0.45594000000E+02  0.51100000000E-03 0. -1.
         11   -1    0    0    0    0 -0.00000000000E+00 -0.00000000000E+00 -0.45593999997E+02  0.45594000000E+02  0.51100000000E-03 0.  1.
    9900012    2    1    2    0    0  0.13583448994E+00 -0.85048821142E+00  0.80701909111E+00  0.90007719940E+02  0.89999981043E+02 0.  0.
        -12    1    1    2    0    0 -0.13583448994E+00  0.85048821142E+00 -0.80701909111E+00  0.11802800599E+01  0.00000000000E+00 0.  1.
         11    1    3    3    0    0 -0.57155169717E+01  0.34249795660E+02 -0.66608961362E+01  0.35356515306E+02  0.51100000000E-03 0. -1.
        -11    1    3    3    0    0 -0.47324920965E+01  0.68362773267E+01 -0.49193317829E+01  0.96607967882E+01  0.51100000000E-03 0.  1.
        -12    1    3    3    0    0  0.10583843558E+02 -0.41936561198E+02  0.12387247010E+02  0.44990407845E+02  0.00000000000E+00 0.  1.
</event>
<event>
 7    1  0.2578619E-015  0.9000784E+02  0.7816164E-02  0.1186339E+00
        -11   -1    0    0    0    0  0.00000000000E+00  0.00000000000E+00  0.45593999997E+02  0.45594000000E+02  0.51100000000E-03 0.  1.
         11   -1    0    0    0    0 -0.00000000000E+00 -0.00000000000E+00 -0.45593999997E+02  0.45594000000E+02  0.51100000000E-03 0. -1.
    9900012    2    1    2    0    0  0.83449935434E+00 -0.58533136379E+00  0.59479418578E+00  0.90007838104E+02  0.90000100767E+02 0.  0.
        -12    1    1    2    0    0 -0.83449935434E+00  0.58533136379E+00 -0.59479418578E+00  0.11801618962E+01  0.00000000000E+00 0.  1.
         11    1    3    3    0    0 -0.21326579564E+01  0.40943074852E+01  0.92545089023E+01  0.10342026834E+02  0.51100000000E-03 0. -1.
        -11    1    3    3    0    0 -0.20637702401E+02  0.19401051810E+02  0.20597277492E+02  0.35022327337E+02  0.51100000000E-03 0.  1.
         12    1    3    3    0    0  0.23604859712E+02 -0.24080690659E+02 -0.29256992209E+02  0.44643483934E+02  0.00000000000E+00 0. -1.
</event>
<event>
 7    1  0.2578619E-015  0.9000769E+02  0.7816164E-02  0.1186339E+00
        -11   -1    0    0    0    0  0.00000000000E+00  0.00000000000E+00  0.45593999997E+02  0.45594000000E+02  0.51100000000E-03 0.  1.
         11   -1    0    0    0    0 -0.00000000000E+00 -0.00000000000E+00 -0.45593999997E+02  0.45594000000E+02  0.51100000000E-03 0. -1.
    9900012    2    1    2    0    0  0.88808785035E+00 -0.66597467144E+00 -0.40112172097E+00  0.90007694562E+02  0.89999955330E+02 0.  0.
        -12    1    1    2    0    0 -0.88808785035E+00  0.66597467144E+00  0.40112172097E+00  0.11803054384E+01  0.00000000000E+00 0.  1.
         11    1    3    3    0    0 -0.18817627857E+02  0.24628078170E+02 -0.25631788130E+02  0.40219819934E+02  0.51100000000E-03 0. -1.
        -11    1    3    3    0    0  0.10262899516E+02  0.46262254675E+01  0.41946730413E+01  0.12013507012E+02  0.51100000000E-03 0.  1.
        -12    1    3    3    0    0  0.94428161913E+01 -0.29920278309E+02  0.21035993368E+02  0.37774367615E+02  0.00000000000E+00 0.  1.
</event>
<event>
 7    1  0.2578619E-015  0.9000774E+02  0.7816164E-02  0.1186339E+00
        -11   -1    0    0    0    0  0.00000000000E+00  0.00000000000E+00  0.45593999997E+02  0.45594000000E+02  0.51100000000E-03 0.  1.
         11   -1    0    0    0    0 -0.00000000000E+00 -0.00000000000E+00 -0.45593999997E+02  0.45594000000E+02  0.51100000000E-03 0. -1.
    9900012    2    1    2    0    0  0.14155263034E+00  0.65449474335E+00 -0.97191034103E+00  0.90007741457E+02  0.90000002845E+02 0.  0.
        -12    1    1    2    0    0 -0.14155263034E+00 -0.65449474335E+00  0.97191034103E+00  0.11802585425E+01  0.00000000000E+00 0.  1.
         11    1    3    3    0    0  0.10462231124E+02  0.30603720562E+02 -0.18448816009E+02  0.37234457223E+02  0.51100000000E-03 0. -1.
        -11    1    3    3    0    0  0.73201888586E+01  0.29457637573E+01  0.12961586838E+02  0.15174499091E+02  0.51100000000E-03 0.  1.
        -12    1    3    3    0    0 -0.17640867352E+02 -0.32894989576E+02  0.45153188305E+01  0.37598785143E+02  0.00000000000E+00 0.  1.
</event>
<event>
 7    1  0.2578619E-015  0.9000776E+02  0.7816164E-02  0.1186339E+00
        -11   -1    0    0    0    0  0.00000000000E+00  0.00000000000E+00  0.45593999997E+02  0.45594000000E+02  0.51100000000E-03 0.  1.
         11   -1    0    0    0    0 -0.00000000000E+00 -0.00000000000E+00 -0.45593999997E+02  0.45594000000E+02  0.51100000000E-03 0. -1.
    9900012    2    1    2    0    0 -0.57743401618E+00  0.85428114107E+00 -0.57423834045E+00  0.90007755965E+02  0.90000017544E+02 0.  0.
        -12    1    1    2    0    0  0.57743401618E+00 -0.85428114107E+00  0.57423834045E+00  0.11802440352E+01  0.00000000000E+00 0.  1.
         11    1    3    3    0    0 -0.16116288212E+02  0.22412608322E+02 -0.19960753436E+02  0.34065986490E+02  0.51100000000E-03 0. -1.
        -11    1    3    3    0    0 -0.58400385983E+01  0.95386237962E+01  0.13848049168E+02  0.17800557878E+02  0.51100000000E-03 0.  1.
        -12    1    3    3    0    0  0.21378892794E+02 -0.31096950978E+02  0.55384659279E+01  0.38141211596E+02  0.00000000000E+00 0.  1.
</event>
<event>
 7    1  0.2578619E-015  0.9000768E+02  0.7816164E-02  0.1186339E+00
        -11   -1    0    0    0    0  0.00000000000E+00  0.00000000000E+00  0.45593999997E+02  0.45594000000E+02  0.51100000000E-03 0.  1.
         11   -1    0    0    0    0 -0.00000000000E+00 -0.00000000000E+00 -0.45593999997E+02  0.45594000000E+02  0.51100000000E-03 0. -1.
    9900012    2    1    2    0    0  0.36115438072E+00  0.11029923030E+01 -0.21475996994E+00  0.90007683792E+02  0.89999944418E+02 0.  0.
        -12    1    1    2    0    0 -0.36115438072E+00 -0.11029923030E+01  0.21475996994E+00  0.11803162084E+01  0.00000000000E+00 0.  1.
         11    1    3    3    0    0  0.17868935788E+01 -0.43592179960E+01 -0.68888341633E+01  0.83457657880E+01  0.51100000000E-03 0. -1.
        -11    1    3    3    0    0  0.57056601006E+01 -0.22556974962E+02  0.34448547898E+02  0.41570111007E+02  0.51100000000E-03 0.  1.
         12    1    3    3    0    0 -0.71313992987E+01  0.28019185261E+02 -0.27774473704E+02  0.40091806996E+02  0.00000000000E+00 0. -1.
</event>
<event>
 7    1  0.2578619E-015  0.9000774E+02  0.7816164E-02  0.1186339E+00
        -11   -1    0    0    0    0  0.00000000000E+00  0.00000000000E+00  0.45593999997E+02  0.45594000000E+02  0.51100000000E-03 0.  1.
         11   -1    0    0    0    0 -0.00000000000E+00 -0.00000000000E+00 -0.45593999997E+02  0.45594000000E+02  0.51100000000E-03 0. -1.
    9900012    2    1    2    0    0  0.11690646494E+01 -0.50132615302E-03 -0.16215031062E+00  0.90007743617E+02  0.90000005033E+02 0.  0.
        -12    1    1    2    0    0 -0.11690646494E+01  0.50132615302E-03  0.16215031062E+00  0.11802563827E+01  0.00000000000E+00 0.  1.
         11    1    3    3    0    0 -0.14042911627E+01 -0.11957562765E+02 -0.13913835145E+01  0.12119871670E+02  0.51100000000E-03 0. -1.
        -11    1    3    3    0    0  0.10620180244E+02 -0.10606969802E+02  0.34074802099E+02  0.37234233914E+02  0.51100000000E-03 0.  1.
         12    1    3    3    0    0 -0.80468244322E+01  0.22564031241E+02 -0.32845568895E+02  0.40653638033E+02  0.00000000000E+00 0. -1.
</event>
<event>
 7    1  0.2578619E-015  0.9000782E+02  0.7816164E-02  0.1186339E+00
        -11   -1    0    0    0    0  0.00000000000E+00  0.00000000000E+00  0.45593999997E+02  0.45594000000E+02  0.51100000000E-03 0. -1.
         11   -1    0    0    0    0 -0.00000000000E+00 -0.00000000000E+00 -0.45593999997E+02  0.45594000000E+02  0.51100000000E-03 0.  1.
    9900012    2    1    2    0    0  0.66344240125E+00 -0.78386443382E+00 -0.58157718081E+00  0.90007817265E+02  0.90000079653E+02 0.  0.
        -12    1    1    2    0    0 -0.66344240125E+00  0.78386443382E+00  0.58157718081E+00  0.11801827348E+01  0.00000000000E+00 0.  1.
         11    1    3    3    0    0 -0.36524860227E+02 -0.26320960142E+01  0.50421582485E+01  0.36965074112E+02  0.51100000000E-03 0. -1.
        -11    1    3    3    0    0 -0.73448299815E+01  0.29152637697E+01  0.11475698717E+01  0.79851241178E+01  0.51100000000E-03 0.  1.
        -12    1    3    3    0    0  0.44533132609E+02 -0.10670321893E+01 -0.67713053010E+01  0.45057619036E+02  0.00000000000E+00 0.  1.
</event>
<event>
 7    1  0.2578619E-015  0.9000774E+02  0.7816164E-02  0.1186339E+00
        -11   -1    0    0    0    0  0.00000000000E+00  0.00000000000E+00  0.45593999997E+02  0.45594000000E+02  0.51100000000E-03 0. -1.
         11   -1    0    0    0    0 -0.00000000000E+00 -0.00000000000E+00 -0.45593999997E+02  0.45594000000E+02  0.51100000000E-03 0.  1.
    9900012    2    1    2    0    0  0.70301964391E+00 -0.78991347916E+00 -0.52423459186E+00  0.90007736541E+02  0.89999997864E+02 0.  0.
        -12    1    1    2    0    0 -0.70301964391E+00  0.78991347916E+00  0.52423459186E+00  0.11802634586E+01  0.00000000000E+00 0.  1.
         11    1    3    3    0    0 -0.21544137692E+02  0.25341051698E+01  0.16751892623E+02  0.27407981769E+02  0.51100000000E-03 0. -1.
        -11    1    3    3    0    0 -0.40150237973E+01 -0.21544565380E+02  0.63901550660E+01  0.22828114147E+02  0.51100000000E-03 0.  1.
        -12    1    3    3    0    0  0.26262181133E+02  0.18220546731E+02 -0.23666282281E+02  0.39771640626E+02  0.00000000000E+00 0.  1.
</event>
<event>
 7    1  0.2578619E-015  0.9000773E+02  0.7816164E-02  0.1186339E+00
        -11   -1    0    0    0    0  0.00000000000E+00  0.00000000000E+00  0.45593999997E+02  0.45594000000E+02  0.51100000000E-03 0.  1.
         11   -1    0    0    0    0 -0.00000000000E+00 -0.00000000000E+00 -0.45593999997E+02  0.45594000000E+02  0.51100000000E-03 0. -1.
    9900012    2    1    2    0    0 -0.31802407015E+00 -0.84416037870E+00 -0.76111353795E+00  0.90007728899E+02  0.89999990120E+02 0.  0.
        -12    1    1    2    0    0  0.31802407015E+00  0.84416037870E+00  0.76111353795E+00  0.11802711010E+01  0.00000000000E+00 0.  1.
         11    1    3    3    0    0  0.29652983729E+02  0.22442463033E+01  0.67833638667E+01  0.30501641121E+02  0.51100000000E-03 0. -1.
        -11    1    3    3    0    0 -0.46476887031E+01  0.10905165215E+02  0.17569217535E+02  0.21194363489E+02  0.51100000000E-03 0.  1.
        -12    1    3    3    0    0 -0.25323319096E+02 -0.13993571897E+02 -0.25113694940E+02  0.38311724289E+02  0.00000000000E+00 0.  1.
</event>
<event>
 7    1  0.2578619E-015  0.9000775E+02  0.7816164E-02  0.1186339E+00
        -11   -1    0    0    0    0  0.00000000000E+00  0.00000000000E+00  0.45593999997E+02  0.45594000000E+02  0.51100000000E-03 0. -1.
         11   -1    0    0    0    0 -0.00000000000E+00 -0.00000000000E+00 -0.45593999997E+02  0.45594000000E+02  0.51100000000E-03 0.  1.
    9900012    2    1    2    0    0 -0.65410782859E+00  0.93854353884E+00 -0.29028565397E+00  0.90007751388E+02  0.90000012906E+02 0.  0.
        -12    1    1    2    0    0  0.65410782859E+00 -0.93854353884E+00  0.29028565397E+00  0.11802486122E+01  0.00000000000E+00 0.  1.
         11    1    3    3    0    0 -0.34683506419E+02 -0.10595798867E+02 -0.41674514056E+01  0.36504578105E+02  0.51100000000E-03 0. -1.
        -11    1    3    3    0    0 -0.73757190744E+01 -0.23482213403E+01 -0.46190088224E+01  0.90139124740E+01  0.51100000000E-03 0.  1.
        -12    1    3    3    0    0  0.41405117664E+02  0.13882563746E+02  0.84961745741E+01  0.44489260809E+02  0.00000000000E+00 0.  1.
</event>
<event>
 7    1  0.2578619E-015  0.9000787E+02  0.7816164E-02  0.1186339E+00
        -11   -1    0    0    0    0  0.00000000000E+00  0.00000000000E+00  0.45593999997E+02  0.45594000000E+02  0.51100000000E-03 0. -1.
         11   -1    0    0    0    0 -0.00000000000E+00 -0.00000000000E+00 -0.45593999997E+02  0.45594000000E+02  0.51100000000E-03 0.  1.
    9900012    2    1    2    0    0 -0.69892476780E-01 -0.11685305098E+01  0.14956417982E+00  0.90007865281E+02  0.90000128303E+02 0.  0.
        -12    1    1    2    0    0  0.69892476780E-01  0.11685305098E+01 -0.14956417982E+00  0.11801347188E+01  0.00000000000E+00 0.  1.
         11    1    3    3    0    0  0.49420347580E+01 -0.17354752551E+02  0.15162774534E+02  0.23569490352E+02  0.51100000000E-03 0. -1.
        -11    1    3    3    0    0 -0.44106287702E+01 -0.17876928342E+02 -0.24896138367E+02  0.30965398737E+02  0.51100000000E-03 0.  1.
         12    1    3    3    0    0 -0.60129846453E+00  0.34063150383E+02  0.98829280129E+01  0.35472976192E+02  0.00000000000E+00 0. -1.
</event>
<event>
 7    1  0.2578619E-015  0.9000774E+02  0.7816164E-02  0.1186339E+00
        -11   -1    0    0    0    0  0.00000000000E+00  0.00000000000E+00  0.45593999997E+02  0.45594000000E+02  0.51100000000E-03 0.  1.
         11   -1    0    0    0    0 -0.00000000000E+00 -0.00000000000E+00 -0.45593999997E+02  0.45594000000E+02  0.51100000000E-03 0. -1.
    9900012    2    1    2    0    0 -0.48555144122E+00  0.10638435947E+01  0.15968457673E+00  0.90007736233E+02  0.89999997551E+02 0.  0.
        -12    1    1    2    0    0  0.48555144122E+00 -0.10638435947E+01 -0.15968457673E+00  0.11802637671E+01  0.00000000000E+00 0.  1.
         11    1    3    3    0    0 -0.77229357176E+01  0.53112689748E+01  0.28902940867E+01  0.98085225386E+01  0.51100000000E-03 0. -1.
        -11    1    3    3    0    0 -0.27957743027E+02 -0.87060331297E+01  0.22278732656E+02  0.36793645335E+02  0.51100000000E-03 0.  1.
         12    1    3    3    0    0  0.35195127304E+02  0.44586077495E+01 -0.25009342166E+02  0.43405568359E+02  0.00000000000E+00 0. -1.
</event>
<event>
 7    1  0.2578619E-015  0.9000747E+02  0.7816164E-02  0.1186340E+00
        -11   -1    0    0    0    0  0.00000000000E+00  0.00000000000E+00  0.45593999997E+02  0.45594000000E+02  0.51100000000E-03 0.  1.
         11   -1    0    0    0    0 -0.00000000000E+00 -0.00000000000E+00 -0.45593999997E+02  0.45594000000E+02  0.51100000000E-03 0. -1.
    9900012    2    1    2    0    0  0.87127666784E+00 -0.44442005203E+00 -0.66108257362E+00  0.90007465213E+02  0.89999722953E+02 0.  0.
        -12    1    1    2    0    0 -0.87127666784E+00  0.44442005203E+00  0.66108257362E+00  0.11805347872E+01  0.00000000000E+00 0.  1.
         11    1    3    3    0    0 -0.26190521894E+02 -0.77664058885E+00 -0.24866481106E+02  0.36123240311E+02  0.51100000000E-03 0. -1.
        -11    1    3    3    0    0 -0.78002325080E+01 -0.37839291030E+01 -0.33115943624E+01  0.92805389993E+01  0.51100000000E-03 0.  1.
        -12    1    3    3    0    0  0.34862031069E+02  0.41161496399E+01  0.27516992895E+02  0.44603685903E+02  0.00000000000E+00 0.  1.
</event>
<event>
 7    1  0.2578619E-015  0.9000860E+02  0.7816164E-02  0.1186337E+00
        -11   -1    0    0    0    0  0.00000000000E+00  0.00000000000E+00  0.45593999997E+02  0.45594000000E+02  0.51100000000E-03 0. -1.
         11   -1    0    0    0    0 -0.00000000000E+00 -0.00000000000E+00 -0.45593999997E+02  0.45594000000E+02  0.51100000000E-03 0.  1.
    9900012    2    1    2    0    0  0.19545360405E+00  0.98650319411E+00 -0.61611147255E+00  0.90008600148E+02  0.90000872866E+02 0.  0.
        -12    1    1    2    0    0 -0.19545360405E+00 -0.98650319411E+00  0.61611147255E+00  0.11793998516E+01  0.00000000000E+00 0.  1.
         11    1    3    3    0    0 -0.47821307883E+01 -0.60897396200E+01  0.71619506500E+00  0.77760297806E+01  0.51100000000E-03 0. -1.
        -11    1    3    3    0    0  0.15969382062E+02 -0.28780239189E+02 -0.21827948092E+02  0.39494083726E+02  0.51100000000E-03 0.  1.
         12    1    3    3    0    0 -0.10991797670E+02  0.35856482003E+02  0.20495641555E+02  0.42738486641E+02  0.00000000000E+00 0. -1.
</event>
<event>
 7    1  0.2578619E-015  0.9000783E+02  0.7816164E-02  0.1186339E+00
        -11   -1    0    0    0    0  0.00000000000E+00  0.00000000000E+00  0.45593999997E+02  0.45594000000E+02  0.51100000000E-03 0.  1.
         11   -1    0    0    0    0 -0.00000000000E+00 -0.00000000000E+00 -0.45593999997E+02  0.45594000000E+02  0.51100000000E-03 0. -1.
    9900012    2    1    2    0    0 -0.10705557427E+01 -0.43280691666E+00 -0.24367790052E+00  0.90007834611E+02  0.90000097228E+02 0.  0.
        -12    1    1    2    0    0  0.10705557427E+01  0.43280691666E+00  0.24367790052E+00  0.11801653886E+01  0.00000000000E+00 0.  1.
         11    1    3    3    0    0  0.29894262515E+01  0.75869019966E+01  0.42527582511E+01  0.91969399380E+01  0.51100000000E-03 0. -1.
        -11    1    3    3    0    0  0.58320003148E+01  0.21480420466E+02  0.28034276162E+02  0.35795828406E+02  0.51100000000E-03 0.  1.
         12    1    3    3    0    0 -0.98919823091E+01 -0.29500129379E+02 -0.32530712314E+02  0.45015066267E+02  0.00000000000E+00 0. -1.
</event>
<event>
 7    1  0.2578619E-015  0.9000777E+02  0.7816164E-02  0.1186339E+00
        -11   -1    0    0    0    0  0.00000000000E+00  0.00000000000E+00  0.45593999997E+02  0.45594000000E+02  0.51100000000E-03 0.  1.
         11   -1    0    0    0    0 -0.00000000000E+00 -0.00000000000E+00 -0.45593999997E+02  0.45594000000E+02  0.51100000000E-03 0. -1.
    9900012    2    1    2    0    0  0.56671262927E+00  0.43153485625E+00 -0.94103788938E+00  0.90007772121E+02  0.90000033913E+02 0.  0.
        -12    1    1    2    0    0 -0.56671262927E+00 -0.43153485625E+00  0.94103788938E+00  0.11802278787E+01  0.00000000000E+00 0.  1.
         11    1    3    3    0    0  0.75046687796E+01 -0.14540176231E+02 -0.52897142761E+01  0.17196448927E+02  0.51100000000E-03 0. -1.
        -11    1    3    3    0    0 -0.20242114115E+02 -0.24049713177E+02  0.27212752836E+01  0.31552135065E+02  0.51100000000E-03 0.  1.
         12    1    3    3    0    0  0.13304157965E+02  0.39021424264E+02  0.16274011031E+01  0.41259188129E+02  0.00000000000E+00 0. -1.
</event>
<event>
 7    1  0.2578619E-015  0.9000782E+02  0.7816164E-02  0.1186339E+00
        -11   -1    0    0    0    0  0.00000000000E+00  0.00000000000E+00  0.45593999997E+02  0.45594000000E+02  0.51100000000E-03 0.  1.
         11   -1    0    0    0    0 -0.00000000000E+00 -0.00000000000E+00 -0.45593999997E+02  0.45594000000E+02  0.51100000000E-03 0. -1.
    9900012    2    1    2    0    0 -0.65013439730E-02 -0.99383567453E+00 -0.63645427475E+00  0.90007819650E+02  0.90000082069E+02 0.  0.
        -12    1    1    2    0    0  0.65013439730E-02  0.99383567453E+00  0.63645427475E+00  0.11801803503E+01  0.00000000000E+00 0.  1.
         11    1    3    3    0    0 -0.16779204710E+01 -0.81039186756E+01  0.15462151641E+01  0.84190080534E+01  0.51100000000E-03 0. -1.
        -11    1    3    3    0    0  0.98788811814E+01 -0.24648031571E+02 -0.28926525994E+02  0.39266546322E+02  0.51100000000E-03 0.  1.
         12    1    3    3    0    0 -0.82074620543E+01  0.31758114572E+02  0.26743856555E+02  0.42322265274E+02  0.00000000000E+00 0. -1.
</event>
<event>
 7    1  0.2578619E-015  0.9000776E+02  0.7816164E-02  0.1186339E+00
        -11   -1    0    0    0    0  0.00000000000E+00  0.00000000000E+00  0.45593999997E+02  0.45594000000E+02  0.51100000000E-03 0.  1.
         11   -1    0    0    0    0 -0.00000000000E+00 -0.00000000000E+00 -0.45593999997E+02  0.45594000000E+02  0.51100000000E-03 0. -1.
    9900012    2    1    2    0    0 -0.11180062694E+01 -0.37299087961E+00 -0.62489781475E-01  0.90007760538E+02  0.90000022177E+02 0.  0.
        -12    1    1    2    0    0  0.11180062694E+01  0.37299087961E+00  0.62489781475E-01  0.11802394619E+01  0.00000000000E+00 0.  1.
         11    1    3    3    0    0 -0.39627912553E+01 -0.89033246702E+01  0.28302136359E+01  0.10148054700E+02  0.51100000000E-03 0. -1.
        -11    1    3    3    0    0 -0.12598651176E+02  0.69033936523E+01  0.35580212514E+02  0.38371009606E+02  0.51100000000E-03 0.  1.
         12    1    3    3    0    0  0.15443436162E+02  0.16269401382E+01 -0.38472915932E+02  0.41488696231E+02  0.00000000000E+00 0. -1.
</event>
<event>
 7    1  0.2607754E-015  0.9000773E+02  0.7816164E-02  0.1186339E+00
        -11   -1    0    0    0    0  0.00000000000E+00  0.00000000000E+00  0.45593999997E+02  0.45594000000E+02  0.51100000000E-03 0.  1.
         11   -1    0    0    0    0 -0.00000000000E+00 -0.00000000000E+00 -0.45593999997E+02  0.45594000000E+02  0.51100000000E-03 0. -1.
    9900012    2    1    2    0    0 -0.86525346335E+00 -0.80210016542E+00 -0.31886290121E-01  0.90007726741E+02  0.89999987934E+02 0.  0.
        -12    1    1    2    0    0  0.86525346335E+00  0.80210016542E+00  0.31886290121E-01  0.11802732593E+01  0.00000000000E+00 0.  1.
         11    1    3    3    0    0 -0.52342332596E+01 -0.57782679474E+01  0.52387245817E+01  0.93930726491E+01  0.51100000000E-03 0. -1.
        -11    1    3    3    0    0  0.23006654883E+02 -0.18920803456E+02  0.24172457400E+02  0.38361578035E+02  0.51100000000E-03 0.  1.
         12    1    3    3    0    0 -0.18637675087E+02  0.23896971238E+02 -0.29443068272E+02  0.42253076057E+02  0.00000000000E+00 0. -1.
</event>
<event>
 7    1  0.2578619E-015  0.9000737E+02  0.7816164E-02  0.1186340E+00
        -11   -1    0    0    0    0  0.00000000000E+00  0.00000000000E+00  0.45593999997E+02  0.45594000000E+02  0.51100000000E-03 0.  1.
         11   -1    0    0    0    0 -0.00000000000E+00 -0.00000000000E+00 -0.45593999997E+02  0.45594000000E+02  0.51100000000E-03 0. -1.
    9900012    2    1    2    0    0 -0.28983165498E+00 -0.79734673451E+00 -0.82104969735E+00  0.90007370164E+02  0.89999626650E+02 0.  0.
        -12    1    1    2    0    0  0.28983165498E+00  0.79734673451E+00  0.82104969735E+00  0.11806298356E+01  0.00000000000E+00 0.  1.
         11    1    3    3    0    0 -0.11990314962E+02 -0.69758922793E+01  0.38285802923E+01  0.14390578630E+02  0.51100000000E-03 0. -1.
        -11    1    3    3    0    0 -0.22682583686E+02  0.25018365792E+02  0.74574429296E+01  0.34583691025E+02  0.51100000000E-03 0.  1.
         12    1    3    3    0    0  0.34383066993E+02 -0.18839820248E+02 -0.12107072919E+02  0.41033100510E+02  0.00000000000E+00 0. -1.
</event>
<event>
 7    1  0.2578619E-015  0.9000785E+02  0.7816164E-02  0.1186339E+00
        -11   -1    0    0    0    0  0.00000000000E+00  0.00000000000E+00  0.45593999997E+02  0.45594000000E+02  0.51100000000E-03 0. -1.
         11   -1    0    0    0    0 -0.00000000000E+00 -0.00000000000E+00 -0.45593999997E+02  0.45594000000E+02  0.51100000000E-03 0.  1.
    9900012    2    1    2    0    0 -0.10969332292E+01 -0.34290323866E+00 -0.26817251804E+00  0.90007846773E+02  0.90000109550E+02 0.  0.
        -12    1    1    2    0    0  0.10969332292E+01  0.34290323866E+00  0.26817251804E+00  0.11801532273E+01  0.00000000000E+00 0.  1.
         11    1    3    3    0    0 -0.20445011401E+02  0.33793183536E+01 -0.16661845043E+02  0.26590136596E+02  0.51100000000E-03 0. -1.
        -11    1    3    3    0    0  0.32364572743E+01 -0.53565121109E+01 -0.21402264908E+02  0.22298516120E+02  0.51100000000E-03 0.  1.
        -12    1    3    3    0    0  0.16111620898E+02  0.16342905186E+01  0.37795937433E+02  0.41119194057E+02  0.00000000000E+00 0.  1.
</event>
<event>
 7    1  0.2578619E-015  0.9000754E+02  0.7816164E-02  0.1186339E+00
        -11   -1    0    0    0    0  0.00000000000E+00  0.00000000000E+00  0.45593999997E+02  0.45594000000E+02  0.51100000000E-03 0.  1.
         11   -1    0    0    0    0 -0.00000000000E+00 -0.00000000000E+00 -0.45593999997E+02  0.45594000000E+02  0.51100000000E-03 0. -1.
    9900012    2    1    2    0    0 -0.41769322835E+00  0.40023949074E+00 -0.10289938795E+01  0.90007539206E+02  0.89999797923E+02 0.  0.
        -12    1    1    2    0    0  0.41769322835E+00 -0.40023949074E+00  0.10289938795E+01  0.11804607944E+01  0.00000000000E+00 0.  1.
         11    1    3    3    0    0  0.22182228381E+01  0.27702197997E+02 -0.17676788512E+02  0.32936319449E+02  0.51100000000E-03 0. -1.
        -11    1    3    3    0    0 -0.10060393211E+02  0.11385444930E+02  0.43962998354E+01  0.15816678549E+02  0.51100000000E-03 0.  1.
        -12    1    3    3    0    0  0.74244771449E+01 -0.38687403436E+02  0.12251494797E+02  0.41254541208E+02  0.00000000000E+00 0.  1.
</event>
<event>
 7    1  0.2971633E-015  0.9000780E+02  0.7816164E-02  0.1186339E+00
        -11   -1    0    0    0    0  0.00000000000E+00  0.00000000000E+00  0.45593999997E+02  0.45594000000E+02  0.51100000000E-03 0.  1.
         11   -1    0    0    0    0 -0.00000000000E+00 -0.00000000000E+00 -0.45593999997E+02  0.45594000000E+02  0.51100000000E-03 0. -1.
    9900012    2    1    2    0    0 -0.99643222861E+00  0.12552681588E+00  0.61986789094E+00  0.90007800708E+02  0.90000062877E+02 0.  0.
        -12    1    1    2    0    0  0.99643222861E+00 -0.12552681588E+00 -0.61986789094E+00  0.11801992925E+01  0.00000000000E+00 0.  1.
         11    1    3    3    0    0  0.10346678741E+01  0.85533481836E+01 -0.39939097047E+01  0.94964002522E+01  0.51100000000E-03 0. -1.
        -11    1    3    3    0    0 -0.37117015042E+02  0.70780805811E+01 -0.10600802465E+02  0.39244732685E+02  0.51100000000E-03 0.  1.
         12    1    3    3    0    0  0.35085914940E+02 -0.15505901949E+02  0.15214580061E+02  0.41266667770E+02  0.00000000000E+00 0. -1.
</event>
<event>
 7    1  0.2578619E-015  0.9000770E+02  0.7816164E-02  0.1186339E+00
        -11   -1    0    0    0    0  0.00000000000E+00  0.00000000000E+00  0.45593999997E+02  0.45594000000E+02  0.51100000000E-03 0.  1.
         11   -1    0    0    0    0 -0.00000000000E+00 -0.00000000000E+00 -0.45593999997E+02  0.45594000000E+02  0.51100000000E-03 0. -1.
    9900012    2    1    2    0    0  0.11190434601E+01  0.28759101333E+00 -0.24111117147E+00  0.90007702811E+02  0.89999963688E+02 0.  0.
        -12    1    1    2    0    0 -0.11190434601E+01 -0.28759101333E+00  0.24111117147E+00  0.11802971886E+01  0.00000000000E+00 0.  1.
         11    1    3    3    0    0  0.75269805688E+01 -0.18691863592E+01 -0.76061584922E+01  0.10862915879E+02  0.51100000000E-03 0. -1.
        -11    1    3    3    0    0  0.23426996564E+02  0.76651485802E+00 -0.25567405336E+02  0.34685788573E+02  0.51100000000E-03 0.  1.
         12    1    3    3    0    0 -0.29834933673E+02  0.13902625145E+01  0.32932452657E+02  0.44458998359E+02  0.00000000000E+00 0. -1.
</event>
<event>
 7    1  0.2578619E-015  0.9000772E+02  0.7816164E-02  0.1186339E+00
        -11   -1    0    0    0    0  0.00000000000E+00  0.00000000000E+00  0.45593999997E+02  0.45594000000E+02  0.51100000000E-03 0.  1.
         11   -1    0    0    0    0 -0.00000000000E+00 -0.00000000000E+00 -0.45593999997E+02  0.45594000000E+02  0.51100000000E-03 0. -1.
    9900012    2    1    2    0    0  0.19590451612E-01 -0.11641799092E+01 -0.19328516408E+00  0.90007721303E+02  0.89999982425E+02 0.  0.
        -12    1    1    2    0    0 -0.19590451612E-01  0.11641799092E+01  0.19328516408E+00  0.11802786965E+01  0.00000000000E+00 0.  1.
         11    1    3    3    0    0 -0.25110389375E+02 -0.22289493087E+02 -0.11010852140E+02  0.35335421629E+02  0.51100000000E-03 0. -1.
        -11    1    3    3    0    0 -0.54658405549E+01 -0.81869316747E+01  0.71024503685E+01  0.12138618732E+02  0.51100000000E-03 0.  1.
        -12    1    3    3    0    0  0.30595820381E+02  0.29312244852E+02  0.37151166074E+01  0.42533680942E+02  0.00000000000E+00 0.  1.
</event>
<event>
 7    1  0.2578619E-015  0.9000771E+02  0.7816164E-02  0.1186339E+00
        -11   -1    0    0    0    0  0.00000000000E+00  0.00000000000E+00  0.45593999997E+02  0.45594000000E+02  0.51100000000E-03 0.  1.
         11   -1    0    0    0    0 -0.00000000000E+00 -0.00000000000E+00 -0.45593999997E+02  0.45594000000E+02  0.51100000000E-03 0. -1.
    9900012    2    1    2    0    0  0.53782516742E-01 -0.11683884929E+01 -0.15833021555E+00  0.90007706525E+02  0.89999967451E+02 0.  0.
        -12    1    1    2    0    0 -0.53782516742E-01  0.11683884929E+01  0.15833021555E+00  0.11802934748E+01  0.00000000000E+00 0.  1.
         11    1    3    3    0    0 -0.35279787501E+02 -0.18283129300E+02 -0.12575387933E+02  0.41678250984E+02  0.51100000000E-03 0. -1.
        -11    1    3    3    0    0  0.34322920278E+01  0.55846603988E+01 -0.67157993390E+01  0.93846162072E+01  0.51100000000E-03 0.  1.
        -12    1    3    3    0    0  0.31901277990E+02  0.11530080408E+02  0.19132857056E+02  0.38944839334E+02  0.00000000000E+00 0.  1.
</event>
<event>
 7    1  0.3458098E-015  0.9000752E+02  0.7816164E-02  0.1186339E+00
        -11   -1    0    0    0    0  0.00000000000E+00  0.00000000000E+00  0.45593999997E+02  0.45594000000E+02  0.51100000000E-03 0. -1.
         11   -1    0    0    0    0 -0.00000000000E+00 -0.00000000000E+00 -0.45593999997E+02  0.45594000000E+02  0.51100000000E-03 0.  1.
    9900012    2    1    2    0    0 -0.63040656522E+00  0.25798023681E+00  0.96413670092E+00  0.90007523055E+02  0.89999781559E+02 0.  0.
        -12    1    1    2    0    0  0.63040656522E+00 -0.25798023681E+00 -0.96413670092E+00  0.11804769452E+01  0.00000000000E+00 0.  1.
         11    1    3    3    0    0 -0.69534760553E+01 -0.98702005020E+00  0.67894536400E+01  0.97684041083E+01  0.51100000000E-03 0. -1.
        -11    1    3    3    0    0 -0.28409373449E+02  0.18072735321E+02 -0.19954953766E+02  0.39139704161E+02  0.51100000000E-03 0.  1.
         12    1    3    3    0    0  0.34732442939E+02 -0.16827735034E+02  0.14129636827E+02  0.41099414786E+02  0.00000000000E+00 0. -1.
</event>
<event>
 7    1  0.2578619E-015  0.9000782E+02  0.7816164E-02  0.1186339E+00
        -11   -1    0    0    0    0  0.00000000000E+00  0.00000000000E+00  0.45593999997E+02  0.45594000000E+02  0.51100000000E-03 0.  1.
         11   -1    0    0    0    0 -0.00000000000E+00 -0.00000000000E+00 -0.45593999997E+02  0.45594000000E+02  0.51100000000E-03 0. -1.
    9900012    2    1    2    0    0  0.11411753536E+01  0.23277577161E+00 -0.19067955359E+00  0.90007820166E+02  0.90000082593E+02 0.  0.
        -12    1    1    2    0    0 -0.11411753536E+01 -0.23277577161E+00  0.19067955359E+00  0.11801798336E+01  0.00000000000E+00 0.  1.
         11    1    3    3    0    0 -0.29438973440E+02  0.38062524723E+01  0.25712914487E+02  0.39272059874E+02  0.51100000000E-03 0. -1.
        -11    1    3    3    0    0 -0.11807408180E+01 -0.92921796037E+01 -0.20717071473E-01  0.93669194576E+01  0.51100000000E-03 0.  1.
        -12    1    3    3    0    0  0.31760889612E+02  0.57187029030E+01 -0.25882876969E+02  0.41368840835E+02  0.00000000000E+00 0.  1.
</event>
<event>
 7    1  0.2578619E-015  0.9000815E+02  0.7816164E-02  0.1186338E+00
        -11   -1    0    0    0    0  0.00000000000E+00  0.00000000000E+00  0.45593999997E+02  0.45594000000E+02  0.51100000000E-03 0. -1.
         11   -1    0    0    0    0 -0.00000000000E+00 -0.00000000000E+00 -0.45593999997E+02  0.45594000000E+02  0.51100000000E-03 0.  1.
    9900012    2    1    2    0    0 -0.10967530724E+01  0.43062179567E+00  0.61152489915E-01  0.90008151679E+02  0.90000418481E+02 0.  0.
        -12    1    1    2    0    0  0.10967530724E+01 -0.43062179567E+00 -0.61152489915E-01  0.11798483206E+01  0.00000000000E+00 0.  1.
         11    1    3    3    0    0 -0.52033130670E+01 -0.32673438275E+00 -0.49648936525E+01  0.71994021608E+01  0.51100000000E-03 0. -1.
        -11    1    3    3    0    0  0.28992173998E+01 -0.38802735851E+02 -0.10485846732E+02  0.40299016774E+02  0.51100000000E-03 0.  1.
         12    1    3    3    0    0  0.12073425949E+01  0.39560092029E+02  0.15511892874E+02  0.42509732745E+02  0.00000000000E+00 0. -1.
</event>
<event>
 7    1  0.2578619E-015  0.9000775E+02  0.7816164E-02  0.1186339E+00
        -11   -1    0    0    0    0  0.00000000000E+00  0.00000000000E+00  0.45593999997E+02  0.45594000000E+02  0.51100000000E-03 0. -1.
         11   -1    0    0    0    0 -0.00000000000E+00 -0.00000000000E+00 -0.45593999997E+02  0.45594000000E+02  0.51100000000E-03 0.  1.
    9900012    2    1    2    0    0 -0.10753964984E+01 -0.41215993366E+00  0.25812453424E+00  0.90007753536E+02  0.90000015083E+02 0.  0.
        -12    1    1    2    0    0  0.10753964984E+01  0.41215993366E+00 -0.25812453424E+00  0.11802464636E+01  0.00000000000E+00 0.  1.
         11    1    3    3    0    0 -0.96216588744E+01 -0.21401629592E+01  0.34907209841E+01  0.10456660568E+02  0.51100000000E-03 0. -1.
        -11    1    3    3    0    0 -0.12887051467E+02  0.24826706396E+02 -0.27919473744E+02  0.39521367136E+02  0.51100000000E-03 0.  1.
         12    1    3    3    0    0  0.21433313843E+02 -0.23098703370E+02  0.24686877294E+02  0.40029725832E+02  0.00000000000E+00 0. -1.
</event>
<event>
 7    1  0.2578619E-015  0.9000773E+02  0.7816164E-02  0.1186339E+00
        -11   -1    0    0    0    0  0.00000000000E+00  0.00000000000E+00  0.45593999997E+02  0.45594000000E+02  0.51100000000E-03 0.  1.
         11   -1    0    0    0    0 -0.00000000000E+00 -0.00000000000E+00 -0.45593999997E+02  0.45594000000E+02  0.51100000000E-03 0. -1.
    9900012    2    1    2    0    0 -0.24880137075E+00  0.66289193480E+00 -0.94430618204E+00  0.90007727995E+02  0.89999989205E+02 0.  0.
        -12    1    1    2    0    0  0.24880137075E+00 -0.66289193480E+00  0.94430618204E+00  0.11802720046E+01  0.00000000000E+00 0.  1.
         11    1    3    3    0    0 -0.10544784125E+02 -0.58427539017E+01  0.75808435892E+00  0.12079111621E+02  0.51100000000E-03 0. -1.
        -11    1    3    3    0    0  0.18992678008E+02 -0.30049341849E+02  0.12611745760E+02  0.37719237729E+02  0.51100000000E-03 0.  1.
         12    1    3    3    0    0 -0.86966952539E+01  0.36554987685E+02 -0.14314136301E+02  0.40209378645E+02  0.00000000000E+00 0. -1.
</event>
<event>
 7    1  0.2578619E-015  0.9000786E+02  0.7816164E-02  0.1186339E+00
        -11   -1    0    0    0    0  0.00000000000E+00  0.00000000000E+00  0.45593999997E+02  0.45594000000E+02  0.51100000000E-03 0.  1.
         11   -1    0    0    0    0 -0.00000000000E+00 -0.00000000000E+00 -0.45593999997E+02  0.45594000000E+02  0.51100000000E-03 0. -1.
    9900012    2    1    2    0    0 -0.17924887379E+00 -0.74835279045E+00  0.89475126121E+00  0.90007855146E+02  0.90000118034E+02 0.  0.
        -12    1    1    2    0    0  0.17924887379E+00  0.74835279045E+00 -0.89475126121E+00  0.11801448543E+01  0.00000000000E+00 0.  1.
         11    1    3    3    0    0 -0.24458677724E+02  0.34928858161E+02 -0.51454741901E+00  0.42644071192E+02  0.51100000000E-03 0. -1.
        -11    1    3    3    0    0 -0.54001451345E+00 -0.53459357232E+01 -0.53625904583E+01  0.75913122130E+01  0.51100000000E-03 0.  1.
        -12    1    3    3    0    0  0.24819443364E+02 -0.30331275229E+02  0.67718891385E+01  0.39772471741E+02  0.00000000000E+00 0.  1.
</event>
<event>
 8    1  0.2578619E-015  0.9000772E+02  0.7816164E-02  0.1186339E+00
        -11   -1    0    0    0    0  0.00000000000E+00  0.00000000000E+00  0.45593999997E+02  0.45594000000E+02  0.51100000000E-03 0. -1.
         11   -1    0    0    0    0 -0.00000000000E+00 -0.00000000000E+00 -0.45593999997E+02  0.45594000000E+02  0.51100000000E-03 0.  1.
    9900012    2    1    2    0    0 -0.27671837058E+00 -0.11103834464E+01  0.28902733017E+00  0.90007719842E+02  0.89999980944E+02 0.  0.
         23    2    3    3    0    0  0.11774728970E+02  0.60612909236E+01  0.25057585365E+02  0.61544554813E+02  0.54630267736E+02 0.  0.
        -12    1    1    2    0    0  0.27671837058E+00  0.11103834464E+01 -0.28902733017E+00  0.11802801583E+01  0.00000000000E+00 0.  1.
         11    1    4    4    0    0 -0.81389196301E+01  0.10278749354E+02  0.36085771267E+02  0.38393718096E+02  0.51100000000E-03 0. -1.
        -11    1    4    4    0    0  0.19913648600E+02 -0.42174584301E+01 -0.11028185902E+02  0.23150836718E+02  0.51100000000E-03 0.  1.
        -12    1    3    3    0    0 -0.12051447341E+02 -0.71716743700E+01 -0.24768558035E+02  0.28463165028E+02  0.00000000000E+00 0.  1.
</event>
<event>
 7    1  0.2578619E-015  0.9000765E+02  0.7816164E-02  0.1186339E+00
        -11   -1    0    0    0    0  0.00000000000E+00  0.00000000000E+00  0.45593999997E+02  0.45594000000E+02  0.51100000000E-03 0. -1.
         11   -1    0    0    0    0 -0.00000000000E+00 -0.00000000000E+00 -0.45593999997E+02  0.45594000000E+02  0.51100000000E-03 0.  1.
    9900012    2    1    2    0    0 -0.26860114442E+00 -0.10493999109E+01  0.46888218441E+00  0.90007645286E+02  0.89999905404E+02 0.  0.
        -12    1    1    2    0    0  0.26860114442E+00  0.10493999109E+01 -0.46888218441E+00  0.11803547139E+01  0.00000000000E+00 0.  1.
         11    1    3    3    0    0 -0.11910680596E+02  0.31420243676E+02  0.15277770049E+02  0.36912142756E+02  0.51100000000E-03 0. -1.
        -11    1    3    3    0    0 -0.16294327474E+01 -0.10921614145E+01  0.10482946111E+02  0.10664896955E+02  0.51100000000E-03 0.  1.
        -12    1    3    3    0    0  0.13271512199E+02 -0.31377482173E+02 -0.25291833976E+02  0.42430605574E+02  0.00000000000E+00 0.  1.
</event>
<event>
 7    1  0.2578619E-015  0.9000797E+02  0.7816164E-02  0.1186339E+00
        -11   -1    0    0    0    0  0.00000000000E+00  0.00000000000E+00  0.45593999997E+02  0.45594000000E+02  0.51100000000E-03 0. -1.
         11   -1    0    0    0    0 -0.00000000000E+00 -0.00000000000E+00 -0.45593999997E+02  0.45594000000E+02  0.51100000000E-03 0.  1.
    9900012    2    1    2    0    0 -0.52577921431E+00  0.10108398739E+01  0.30698360206E+00  0.90007966117E+02  0.90000230470E+02 0.  0.
        -12    1    1    2    0    0  0.52577921431E+00 -0.10108398739E+01 -0.30698360206E+00  0.11800338829E+01  0.00000000000E+00 0.  1.
         11    1    3    3    0    0  0.41569065007E+01 -0.30761202826E+01 -0.84807421424E+01  0.99330446085E+01  0.51100000000E-03 0. -1.
        -11    1    3    3    0    0  0.88839892815E+01 -0.61306916368E+01 -0.33131656095E+02  0.34845620691E+02  0.51100000000E-03 0.  1.
         12    1    3    3    0    0 -0.13566674996E+02  0.10217651793E+02  0.41919381839E+02  0.45229300817E+02  0.00000000000E+00 0. -1.
</event>
<event>
 8    1  0.2578619E-015  0.9000775E+02  0.7816164E-02  0.1186339E+00
        -11   -1    0    0    0    0  0.00000000000E+00  0.00000000000E+00  0.45593999997E+02  0.45594000000E+02  0.51100000000E-03 0. -1.
         11   -1    0    0    0    0 -0.00000000000E+00 -0.00000000000E+00 -0.45593999997E+02  0.45594000000E+02  0.51100000000E-03 0.  1.
    9900012    2    1    2    0    0 -0.56941294450E+00  0.75487511241E+00  0.70634639555E+00  0.90007748854E+02  0.90000010339E+02 0.  0.
         23    2    3    3    0    0  0.23515534994E+02  0.33030772343E+01  0.92943211462E+01  0.64310835391E+02  0.59039041640E+02 0.  0.
        -12    1    1    2    0    0  0.56941294450E+00 -0.75487511241E+00 -0.70634639555E+00  0.11802511458E+01  0.00000000000E+00 0.  1.
         11    1    4    4    0    0  0.16542203902E+02  0.86364732617E+01  0.33618730669E+02  0.38450646710E+02  0.51100000000E-03 0. -1.
        -11    1    4    4    0    0  0.69733310916E+01 -0.53333960274E+01 -0.24324409523E+02  0.25860188681E+02  0.51100000000E-03 0.  1.
         12    1    3    3    0    0 -0.24084947938E+02 -0.25482021219E+01 -0.85879747507E+01  0.25696913464E+02  0.00000000000E+00 0. -1.
</event>
<event>
 7    1  0.2578619E-015  0.9000731E+02  0.7816164E-02  0.1186340E+00
        -11   -1    0    0    0    0  0.00000000000E+00  0.00000000000E+00  0.45593999997E+02  0.45594000000E+02  0.51100000000E-03 0. -1.
         11   -1    0    0    0    0 -0.00000000000E+00 -0.00000000000E+00 -0.45593999997E+02  0.45594000000E+02  0.51100000000E-03 0.  1.
    9900012    2    1    2    0    0 -0.18943542206E+00 -0.81617762455E+00  0.83186801274E+00  0.90007306947E+02  0.89999562598E+02 0.  0.
        -12    1    1    2    0    0  0.18943542206E+00  0.81617762455E+00 -0.83186801274E+00  0.11806930526E+01  0.00000000000E+00 0.  1.
         11    1    3    3    0    0 -0.33903763615E+02 -0.79082960251E+01 -0.91677453623E+01  0.36000748444E+02  0.51100000000E-03 0. -1.
        -11    1    3    3    0    0 -0.87061405504E+01 -0.33837959123E+01  0.99440928847E+00  0.93933917279E+01  0.51100000000E-03 0.  1.
        -12    1    3    3    0    0  0.42420468743E+02  0.10475914313E+02  0.90052040866E+01  0.44613166775E+02  0.00000000000E+00 0.  1.
</event>
<event>
 7    1  0.2578619E-015  0.9000772E+02  0.7816164E-02  0.1186339E+00
        -11   -1    0    0    0    0  0.00000000000E+00  0.00000000000E+00  0.45593999997E+02  0.45594000000E+02  0.51100000000E-03 0.  1.
         11   -1    0    0    0    0 -0.00000000000E+00 -0.00000000000E+00 -0.45593999997E+02  0.45594000000E+02  0.51100000000E-03 0. -1.
    9900012    2    1    2    0    0  0.39853767720E+00  0.29948124285E+00 -0.10698284259E+01  0.90007722848E+02  0.89999983990E+02 0.  0.
        -12    1    1    2    0    0 -0.39853767720E+00 -0.29948124285E+00  0.10698284259E+01  0.11802771521E+01  0.00000000000E+00 0.  1.
         11    1    3    3    0    0 -0.15691925250E+02 -0.26757793336E+02 -0.52414737970E+01  0.31459324057E+02  0.51100000000E-03 0. -1.
        -11    1    3    3    0    0  0.30057208672E+01 -0.11592445327E+02 -0.97410607347E+01  0.15437208656E+02  0.51100000000E-03 0.  1.
        -12    1    3    3    0    0  0.13084742060E+02  0.38649719907E+02  0.13912706106E+02  0.43111190135E+02  0.00000000000E+00 0.  1.
</event>
<event>
 7    1  0.2578619E-015  0.9000773E+02  0.7816164E-02  0.1186339E+00
        -11   -1    0    0    0    0  0.00000000000E+00  0.00000000000E+00  0.45593999997E+02  0.45594000000E+02  0.51100000000E-03 0.  1.
         11   -1    0    0    0    0 -0.00000000000E+00 -0.00000000000E+00 -0.45593999997E+02  0.45594000000E+02  0.51100000000E-03 0. -1.
    9900012    2    1    2    0    0  0.81559156445E+00 -0.76026881432E+00 -0.38709649537E+00  0.90007728012E+02  0.89999989221E+02 0.  0.
        -12    1    1    2    0    0 -0.81559156445E+00  0.76026881432E+00  0.38709649537E+00  0.11802719885E+01  0.00000000000E+00 0.  1.
         11    1    3    3    0    0  0.33354969898E+02  0.15985942694E+02  0.13170595191E+02  0.39262819036E+02  0.51100000000E-03 0. -1.
        -11    1    3    3    0    0 -0.47944074017E+01  0.87390610091E+01  0.16767103669E+01  0.10107862661E+02  0.51100000000E-03 0.  1.
        -12    1    3    3    0    0 -0.27744970932E+02 -0.25485272517E+02 -0.15234402053E+02  0.40637046315E+02  0.00000000000E+00 0.  1.
</event>
<event>
 7    1  0.2578619E-015  0.9000772E+02  0.7816164E-02  0.1186339E+00
        -11   -1    0    0    0    0  0.00000000000E+00  0.00000000000E+00  0.45593999997E+02  0.45594000000E+02  0.51100000000E-03 0.  1.
         11   -1    0    0    0    0 -0.00000000000E+00 -0.00000000000E+00 -0.45593999997E+02  0.45594000000E+02  0.51100000000E-03 0. -1.
    9900012    2    1    2    0    0  0.61701689429E+00 -0.17883931713E+00 -0.99013516318E+00  0.90007719952E+02  0.89999981056E+02 0.  0.
        -12    1    1    2    0    0 -0.61701689429E+00  0.17883931713E+00  0.99013516318E+00  0.11802800475E+01  0.00000000000E+00 0.  1.
         11    1    3    3    0    0  0.66611613629E+01 -0.33920337165E+02  0.29415379287E+01  0.34693125973E+02  0.51100000000E-03 0. -1.
        -11    1    3    3    0    0  0.38362873974E+01 -0.97996704308E+01 -0.96654040744E+00  0.10568104947E+02  0.51100000000E-03 0.  1.
        -12    1    3    3    0    0 -0.98804318660E+01  0.43541168279E+02 -0.29651326844E+01  0.44746489033E+02  0.00000000000E+00 0.  1.
</event>
<event>
 7    1  0.2578619E-015  0.9000766E+02  0.7816164E-02  0.1186339E+00
        -11   -1    0    0    0    0  0.00000000000E+00  0.00000000000E+00  0.45593999997E+02  0.45594000000E+02  0.51100000000E-03 0.  1.
         11   -1    0    0    0    0 -0.00000000000E+00 -0.00000000000E+00 -0.45593999997E+02  0.45594000000E+02  0.51100000000E-03 0. -1.
    9900012    2    1    2    0    0 -0.11258596486E+01 -0.30965857985E+00 -0.17246371038E+00  0.90007664405E+02  0.89999924776E+02 0.  0.
        -12    1    1    2    0    0  0.11258596486E+01  0.30965857985E+00  0.17246371038E+00  0.11803355946E+01  0.00000000000E+00 0.  1.
         11    1    3    3    0    0 -0.76958419983E+00 -0.31186068745E+02 -0.17124267221E+01  0.31242527893E+02  0.51100000000E-03 0. -1.
        -11    1    3    3    0    0  0.12254152269E+02 -0.10008782972E+02  0.21995052815E+01  0.15974285842E+02  0.51100000000E-03 0.  1.
        -12    1    3    3    0    0 -0.12610427718E+02  0.40885193137E+02 -0.65954226975E+00  0.42790850671E+02  0.00000000000E+00 0.  1.
</event>
<event>
 7    1  0.2578619E-015  0.9000842E+02  0.7816164E-02  0.1186338E+00
        -11   -1    0    0    0    0  0.00000000000E+00  0.00000000000E+00  0.45593999997E+02  0.45594000000E+02  0.51100000000E-03 0.  1.
         11   -1    0    0    0    0 -0.00000000000E+00 -0.00000000000E+00 -0.45593999997E+02  0.45594000000E+02  0.51100000000E-03 0. -1.
    9900012    2    1    2    0    0  0.78514419630E+00  0.72884661379E+00  0.49370995788E+00  0.90008416040E+02  0.90000686329E+02 0.  0.
        -12    1    1    2    0    0 -0.78514419630E+00 -0.72884661379E+00 -0.49370995788E+00  0.11795839597E+01  0.00000000000E+00 0.  1.
         11    1    3    3    0    0 -0.80488252984E+01 -0.37901895367E+02  0.51883388091E+01  0.39092916506E+02  0.51100000000E-03 0. -1.
        -11    1    3    3    0    0 -0.72761859148E+01  0.61284390869E+00 -0.62271555222E+01  0.95966621948E+01  0.51100000000E-03 0.  1.
        -12    1    3    3    0    0  0.16110155410E+02  0.38017898072E+02  0.15325266709E+01  0.41318837340E+02  0.00000000000E+00 0.  1.
</event>
<event>
 7    1  0.2578619E-015  0.9000796E+02  0.7816164E-02  0.1186339E+00
        -11   -1    0    0    0    0  0.00000000000E+00  0.00000000000E+00  0.45593999997E+02  0.45594000000E+02  0.51100000000E-03 0. -1.
         11   -1    0    0    0    0 -0.00000000000E+00 -0.00000000000E+00 -0.45593999997E+02  0.45594000000E+02  0.51100000000E-03 0.  1.
    9900012    2    1    2    0    0  0.48163612405E+00  0.23939989066E+00  0.10503336635E+01  0.90007963361E+02  0.90000227678E+02 0.  0.
        -12    1    1    2    0    0 -0.48163612405E+00 -0.23939989066E+00 -0.10503336635E+01  0.11800366386E+01  0.00000000000E+00 0.  1.
         11    1    3    3    0    0 -0.30690426872E+02 -0.11310854486E+02  0.13024072449E+02  0.35206024971E+02  0.51100000000E-03 0. -1.
        -11    1    3    3    0    0 -0.85361944618E+01 -0.32379852587E+00  0.51316446625E+01  0.99652013817E+01  0.51100000000E-03 0.  1.
        -12    1    3    3    0    0  0.39708257458E+02  0.11874052903E+02 -0.17105383448E+02  0.44836737009E+02  0.00000000000E+00 0.  1.
</event>
<event>
 7    1  0.2578619E-015  0.9000779E+02  0.7816164E-02  0.1186339E+00
        -11   -1    0    0    0    0  0.00000000000E+00  0.00000000000E+00  0.45593999997E+02  0.45594000000E+02  0.51100000000E-03 0.  1.
         11   -1    0    0    0    0 -0.00000000000E+00 -0.00000000000E+00 -0.45593999997E+02  0.45594000000E+02  0.51100000000E-03 0. -1.
    9900012    2    1    2    0    0 -0.96426579255E+00 -0.52314092988E+00 -0.43522333907E+00  0.90007786330E+02  0.90000048310E+02 0.  0.
        -12    1    1    2    0    0  0.96426579255E+00  0.52314092988E+00  0.43522333907E+00  0.11802136697E+01  0.00000000000E+00 0.  1.
         11    1    3    3    0    0 -0.31984205689E+02 -0.11870169579E+02  0.17759869858E+02  0.38461712352E+02  0.51100000000E-03 0. -1.
        -11    1    3    3    0    0 -0.26420380468E+01  0.10268449439E+02  0.38647801507E+01  0.11285297728E+02  0.51100000000E-03 0.  1.
        -12    1    3    3    0    0  0.33661977944E+02  0.10785792100E+01 -0.22059873348E+02  0.40260776251E+02  0.00000000000E+00 0.  1.
</event>
<event>
 7    1  0.2578619E-015  0.9000772E+02  0.7816164E-02  0.1186339E+00
        -11   -1    0    0    0    0  0.00000000000E+00  0.00000000000E+00  0.45593999997E+02  0.45594000000E+02  0.51100000000E-03 0.  1.
         11   -1    0    0    0    0 -0.00000000000E+00 -0.00000000000E+00 -0.45593999997E+02  0.45594000000E+02  0.51100000000E-03 0. -1.
    9900012    2    1    2    0    0  0.47126673343E+00  0.19846518687E+00 -0.10637603938E+01  0.90007717432E+02  0.89999978502E+02 0.  0.
        -12    1    1    2    0    0 -0.47126673343E+00 -0.19846518687E+00  0.10637603938E+01  0.11802825678E+01  0.00000000000E+00 0.  1.
         11    1    3    3    0    0  0.98436744699E+01  0.58921154812E+01 -0.36150394134E+02  0.37927113629E+02  0.51100000000E-03 0. -1.
        -11    1    3    3    0    0  0.83681207569E+01 -0.23179995937E+01 -0.35896692253E+01  0.93959721437E+01  0.51100000000E-03 0.  1.
        -12    1    3    3    0    0 -0.17740528493E+02 -0.33756507006E+01  0.38676302965E+02  0.42684631660E+02  0.00000000000E+00 0.  1.
</event>
<event>
 7    1  0.2578619E-015  0.9000785E+02  0.7816164E-02  0.1186339E+00
        -11   -1    0    0    0    0  0.00000000000E+00  0.00000000000E+00  0.45593999997E+02  0.45594000000E+02  0.51100000000E-03 0. -1.
         11   -1    0    0    0    0 -0.00000000000E+00 -0.00000000000E+00 -0.45593999997E+02  0.45594000000E+02  0.51100000000E-03 0.  1.
    9900012    2    1    2    0    0 -0.43616672887E+00 -0.90377554043E+00  0.62105819309E+00  0.90007845382E+02  0.90000108141E+02 0.  0.
        -12    1    1    2    0    0  0.43616672887E+00  0.90377554043E+00 -0.62105819309E+00  0.11801546179E+01  0.00000000000E+00 0.  1.
         11    1    3    3    0    0 -0.20309349417E+01  0.22415792058E+02 -0.27600645082E+02  0.35614435830E+02  0.51100000000E-03 0. -1.
        -11    1    3    3    0    0  0.41409245423E+01  0.50991994418E+01 -0.66425952465E+01  0.93420106445E+01  0.51100000000E-03 0.  1.
        -12    1    3    3    0    0 -0.25461563294E+01 -0.28418767040E+02  0.34864298521E+02  0.45051398907E+02  0.00000000000E+00 0.  1.
</event>
<event>
 7    1  0.2578619E-015  0.9000779E+02  0.7816164E-02  0.1186339E+00
        -11   -1    0    0    0    0  0.00000000000E+00  0.00000000000E+00  0.45593999997E+02  0.45594000000E+02  0.51100000000E-03 0.  1.
         11   -1    0    0    0    0 -0.00000000000E+00 -0.00000000000E+00 -0.45593999997E+02  0.45594000000E+02  0.51100000000E-03 0. -1.
    9900012    2    1    2    0    0  0.11653270740E+01  0.14865407796E+00  0.11318447316E+00  0.90007789871E+02  0.90000051897E+02 0.  0.
        -12    1    1    2    0    0 -0.11653270740E+01 -0.14865407796E+00 -0.11318447316E+00  0.11802101293E+01  0.00000000000E+00 0.  1.
         11    1    3    3    0    0  0.91345243503E+01 -0.10712841977E+02 -0.35226942314E+02  0.37936024876E+02  0.51100000000E-03 0. -1.
        -11    1    3    3    0    0  0.13520146778E+01 -0.49846567427E+01 -0.53407995147E+01  0.74295952951E+01  0.51100000000E-03 0.  1.
        -12    1    3    3    0    0 -0.93212119541E+01  0.15846152798E+02  0.40680926301E+02  0.44642169700E+02  0.00000000000E+00 0.  1.
</event>
<event>
 7    1  0.2578619E-015  0.9000769E+02  0.7816164E-02  0.1186339E+00
        -11   -1    0    0    0    0  0.00000000000E+00  0.00000000000E+00  0.45593999997E+02  0.45594000000E+02  0.51100000000E-03 0. -1.
         11   -1    0    0    0    0 -0.00000000000E+00 -0.00000000000E+00 -0.45593999997E+02  0.45594000000E+02  0.51100000000E-03 0.  1.
    9900012    2    1    2    0    0  0.69661474471E+00 -0.73299437146E+00  0.60874235949E+00  0.90007694908E+02  0.89999955680E+02 0.  0.
        -12    1    1    2    0    0 -0.69661474471E+00  0.73299437146E+00 -0.60874235949E+00  0.11803050925E+01  0.00000000000E+00 0.  1.
         11    1    3    3    0    0  0.30244851574E+01 -0.95292815912E+01  0.33052365910E+01  0.10529924373E+02  0.51100000000E-03 0. -1.
        -11    1    3    3    0    0 -0.11834008847E+02 -0.57974827681E+00 -0.39019375023E+02  0.40778566685E+02  0.51100000000E-03 0.  1.
         12    1    3    3    0    0  0.95061384346E+01  0.93760354966E+01  0.36322880792E+02  0.38699203849E+02  0.00000000000E+00 0. -1.
</event>
<event>
 7    1  0.2578619E-015  0.9000794E+02  0.7816164E-02  0.1186339E+00
        -11   -1    0    0    0    0  0.00000000000E+00  0.00000000000E+00  0.45593999997E+02  0.45594000000E+02  0.51100000000E-03 0.  1.
         11   -1    0    0    0    0 -0.00000000000E+00 -0.00000000000E+00 -0.45593999997E+02  0.45594000000E+02  0.51100000000E-03 0. -1.
    9900012    2    1    2    0    0 -0.84980409583E+00 -0.55555579115E+00  0.60143736911E+00  0.90007942312E+02  0.90000206350E+02 0.  0.
        -12    1    1    2    0    0  0.84980409583E+00  0.55555579115E+00 -0.60143736911E+00  0.11800576881E+01  0.00000000000E+00 0.  1.
         11    1    3    3    0    0  0.73633965624E+01  0.24094771554E+01 -0.38030169596E+02  0.38811325523E+02  0.51100000000E-03 0. -1.
        -11    1    3    3    0    0  0.15186321457E+01 -0.10073139579E+02 -0.55171852626E+00  0.10201900713E+02  0.51100000000E-03 0.  1.
        -12    1    3    3    0    0 -0.97318328039E+01  0.71081066324E+01  0.39183325491E+02  0.40994716076E+02  0.00000000000E+00 0.  1.
</event>
<event>
 7    1  0.2578619E-015  0.9000864E+02  0.7816164E-02  0.1186337E+00
        -11   -1    0    0    0    0  0.00000000000E+00  0.00000000000E+00  0.45593999997E+02  0.45594000000E+02  0.51100000000E-03 0. -1.
         11   -1    0    0    0    0 -0.00000000000E+00 -0.00000000000E+00 -0.45593999997E+02  0.45594000000E+02  0.51100000000E-03 0.  1.
    9900012    2    1    2    0    0 -0.17179961105E+00 -0.22062540279E+00  0.11457306939E+01  0.90008640217E+02  0.90000913463E+02 0.  0.
        -12    1    1    2    0    0  0.17179961105E+00  0.22062540279E+00 -0.11457306939E+01  0.11793597830E+01  0.00000000000E+00 0.  1.
         11    1    3    3    0    0  0.16010459396E+02  0.34173041995E+02 -0.10910682180E+02  0.39283261004E+02  0.51100000000E-03 0. -1.
        -11    1    3    3    0    0 -0.81912704839E+01  0.39108255429E+01 -0.17265429577E+01  0.92397196610E+01  0.51100000000E-03 0.  1.
        -12    1    3    3    0    0 -0.79909885234E+01 -0.38304492940E+02  0.13782955831E+02  0.41485659552E+02  0.00000000000E+00 0.  1.
</event>
<event>
 7    1  0.2578619E-015  0.9000781E+02  0.7816164E-02  0.1186339E+00
        -11   -1    0    0    0    0  0.00000000000E+00  0.00000000000E+00  0.45593999997E+02  0.45594000000E+02  0.51100000000E-03 0.  1.
         11   -1    0    0    0    0 -0.00000000000E+00 -0.00000000000E+00 -0.45593999997E+02  0.45594000000E+02  0.51100000000E-03 0. -1.
    9900012    2    1    2    0    0  0.66965834270E+00  0.67250263236E+00 -0.70153270663E+00  0.90007809242E+02  0.90000071524E+02 0.  0.
        -12    1    1    2    0    0 -0.66965834270E+00 -0.67250263236E+00  0.70153270663E+00  0.11801907579E+01  0.00000000000E+00 0.  1.
         11    1    3    3    0    0  0.67471501615E+01  0.23827917223E+01 -0.52353671661E+01  0.88662732486E+01  0.51100000000E-03 0. -1.
        -11    1    3    3    0    0  0.29211698910E+02 -0.68216176559E+01 -0.21572350823E+02  0.36948939645E+02  0.51100000000E-03 0.  1.
         12    1    3    3    0    0 -0.35289190728E+02  0.51113285659E+01  0.26106185282E+02  0.44192596348E+02  0.00000000000E+00 0. -1.
</event>
<event>
 7    1  0.2578619E-015  0.9000769E+02  0.7816164E-02  0.1186339E+00
        -11   -1    0    0    0    0  0.00000000000E+00  0.00000000000E+00  0.45593999997E+02  0.45594000000E+02  0.51100000000E-03 0.  1.
         11   -1    0    0    0    0 -0.00000000000E+00 -0.00000000000E+00 -0.45593999997E+02  0.45594000000E+02  0.51100000000E-03 0. -1.
    9900012    2    1    2    0    0 -0.73004275615E+00 -0.23675167601E+00 -0.89672919223E+00  0.90007687742E+02  0.89999948420E+02 0.  0.
        -12    1    1    2    0    0  0.73004275615E+00  0.23675167601E+00  0.89672919223E+00  0.11803122579E+01  0.00000000000E+00 0.  1.
         11    1    3    3    0    0 -0.58526231895E+01  0.26711670439E+02 -0.29415494705E+02  0.40162642652E+02  0.51100000000E-03 0. -1.
        -11    1    3    3    0    0 -0.91848860910E+00  0.66646795710E+01  0.48293156012E+01  0.82815375714E+01  0.51100000000E-03 0.  1.
        -12    1    3    3    0    0  0.60410690424E+01 -0.33613101686E+02  0.23689449911E+02  0.41563507518E+02  0.00000000000E+00 0.  1.
</event>
<event>
 7    1  0.2578619E-015  0.9000778E+02  0.7816164E-02  0.1186339E+00
        -11   -1    0    0    0    0  0.00000000000E+00  0.00000000000E+00  0.45593999997E+02  0.45594000000E+02  0.51100000000E-03 0.  1.
         11   -1    0    0    0    0 -0.00000000000E+00 -0.00000000000E+00 -0.45593999997E+02  0.45594000000E+02  0.51100000000E-03 0. -1.
    9900012    2    1    2    0    0 -0.78997146459E-01 -0.36302984682E+00 -0.11202184918E+01  0.90007779390E+02  0.90000041278E+02 0.  0.
        -12    1    1    2    0    0  0.78997146459E-01  0.36302984682E+00  0.11202184918E+01  0.11802206100E+01  0.00000000000E+00 0.  1.
         11    1    3    3    0    0  0.23275909050E+02 -0.13992381196E+02  0.18513977397E+02  0.32868252660E+02  0.51100000000E-03 0. -1.
        -11    1    3    3    0    0  0.93146939155E+01 -0.79440830448E+01 -0.12212959784E+02  0.17292436644E+02  0.51100000000E-03 0.  1.
        -12    1    3    3    0    0 -0.32669600112E+02  0.21573434394E+02 -0.74212361050E+01  0.39847090086E+02  0.00000000000E+00 0.  1.
</event>
<event>
 7    1  0.2578619E-015  0.9000766E+02  0.7816164E-02  0.1186339E+00
        -11   -1    0    0    0    0  0.00000000000E+00  0.00000000000E+00  0.45593999997E+02  0.45594000000E+02  0.51100000000E-03 0.  1.
         11   -1    0    0    0    0 -0.00000000000E+00 -0.00000000000E+00 -0.45593999997E+02  0.45594000000E+02  0.51100000000E-03 0. -1.
    9900012    2    1    2    0    0 -0.55309242944E+00 -0.10397072839E+01 -0.79356854384E-01  0.90007661073E+02  0.89999921399E+02 0.  0.
        -12    1    1    2    0    0  0.55309242944E+00  0.10397072839E+01  0.79356854384E-01  0.11803389268E+01  0.00000000000E+00 0.  1.
         11    1    3    3    0    0 -0.20125249877E+01  0.10575409920E+01  0.96725140048E+01  0.99361047302E+01  0.51100000000E-03 0. -1.
        -11    1    3    3    0    0  0.25720922793E+02 -0.26709814243E+02  0.12309276512E+02  0.39070427880E+02  0.51100000000E-03 0.  1.
         12    1    3    3    0    0 -0.24261490235E+02  0.24612565967E+02 -0.22061147371E+02  0.41001128463E+02  0.00000000000E+00 0. -1.
</event>
<event>
 7    1  0.2578619E-015  0.9000762E+02  0.7816164E-02  0.1186339E+00
        -11   -1    0    0    0    0  0.00000000000E+00  0.00000000000E+00  0.45593999997E+02  0.45594000000E+02  0.51100000000E-03 0.  1.
         11   -1    0    0    0    0 -0.00000000000E+00 -0.00000000000E+00 -0.45593999997E+02  0.45594000000E+02  0.51100000000E-03 0. -1.
    9900012    2    1    2    0    0  0.26495222888E+00 -0.28410766899E+00 -0.11146200352E+01  0.90007620962E+02  0.89999880758E+02 0.  0.
        -12    1    1    2    0    0 -0.26495222888E+00  0.28410766899E+00  0.11146200352E+01  0.11803790383E+01  0.00000000000E+00 0.  1.
         11    1    3    3    0    0  0.13506924259E+02 -0.36527924110E+02 -0.62062434598E+00  0.38950114474E+02  0.51100000000E-03 0. -1.
        -11    1    3    3    0    0  0.93747653941E+01  0.13514226270E+01  0.94570512752E-01  0.94721440632E+01  0.51100000000E-03 0.  1.
        -12    1    3    3    0    0 -0.22616737424E+02  0.34892393814E+02 -0.58856620197E+00  0.41585362424E+02  0.00000000000E+00 0.  1.
</event>
<event>
 7    1  0.2578619E-015  0.9000773E+02  0.7816164E-02  0.1186339E+00
        -11   -1    0    0    0    0  0.00000000000E+00  0.00000000000E+00  0.45593999997E+02  0.45594000000E+02  0.51100000000E-03 0.  1.
         11   -1    0    0    0    0 -0.00000000000E+00 -0.00000000000E+00 -0.45593999997E+02  0.45594000000E+02  0.51100000000E-03 0. -1.
    9900012    2    1    2    0    0  0.18290195496E+00 -0.79644469820E+00  0.85162034674E+00  0.90007731176E+02  0.89999992427E+02 0.  0.
        -12    1    1    2    0    0 -0.18290195496E+00  0.79644469820E+00 -0.85162034674E+00  0.11802688242E+01  0.00000000000E+00 0.  1.
         11    1    3    3    0    0 -0.33669316346E+02 -0.86027614018E+01 -0.56662097540E+01  0.35209889238E+02  0.51100000000E-03 0. -1.
        -11    1    3    3    0    0 -0.72809948953E+01 -0.87614068817E+00 -0.74934286407E+01  0.10484845360E+02  0.51100000000E-03 0.  1.
        -12    1    3    3    0    0  0.41133213196E+02  0.86824573918E+01  0.14011258741E+02  0.44312996578E+02  0.00000000000E+00 0.  1.
</event>
<event>
 7    1  0.2578619E-015  0.9000739E+02  0.7816164E-02  0.1186340E+00
        -11   -1    0    0    0    0  0.00000000000E+00  0.00000000000E+00  0.45593999997E+02  0.45594000000E+02  0.51100000000E-03 0.  1.
         11   -1    0    0    0    0 -0.00000000000E+00 -0.00000000000E+00 -0.45593999997E+02  0.45594000000E+02  0.51100000000E-03 0. -1.
    9900012    2    1    2    0    0 -0.21216986969E+00 -0.93995960617E+00 -0.68212936261E+00  0.90007389742E+02  0.89999646486E+02 0.  0.
        -12    1    1    2    0    0  0.21216986969E+00  0.93995960617E+00  0.68212936261E+00  0.11806102584E+01  0.00000000000E+00 0.  1.
         11    1    3    3    0    0 -0.86215596633E+01 -0.34495010333E+01 -0.58268026541E+01  0.10962754117E+02  0.51100000000E-03 0. -1.
        -11    1    3    3    0    0  0.36777255005E+02 -0.20555324966E+02  0.62271100511E-01  0.42131837702E+02  0.51100000000E-03 0.  1.
         12    1    3    3    0    0 -0.28367865212E+02  0.23064866394E+02  0.50824021909E+01  0.36912797922E+02  0.00000000000E+00 0. -1.
</event>
<event>
 7    1  0.2578619E-015  0.9000753E+02  0.7816164E-02  0.1186339E+00
        -11   -1    0    0    0    0  0.00000000000E+00  0.00000000000E+00  0.45593999997E+02  0.45594000000E+02  0.51100000000E-03 0. -1.
         11   -1    0    0    0    0 -0.00000000000E+00 -0.00000000000E+00 -0.45593999997E+02  0.45594000000E+02  0.51100000000E-03 0.  1.
    9900012    2    1    2    0    0  0.62142030278E+00  0.91839530507E+00 -0.40485075390E+00  0.90007526679E+02  0.89999785231E+02 0.  0.
        -12    1    1    2    0    0 -0.62142030278E+00 -0.91839530507E+00  0.40485075390E+00  0.11804733212E+01  0.00000000000E+00 0.  1.
         11    1    3    3    0    0  0.27642996171E+02 -0.88787755569E+01  0.26916878957E+02  0.39591492341E+02  0.51100000000E-03 0. -1.
        -11    1    3    3    0    0  0.18569458673E+01  0.79425717274E+01  0.28211480766E+01  0.86308499194E+01  0.51100000000E-03 0.  1.
        -12    1    3    3    0    0 -0.28878521736E+02  0.18545991346E+01 -0.30142877788E+02  0.41785184419E+02  0.00000000000E+00 0.  1.
</event>
<event>
 7    1  0.2578619E-015  0.9000769E+02  0.7816164E-02  0.1186339E+00
        -11   -1    0    0    0    0  0.00000000000E+00  0.00000000000E+00  0.45593999997E+02  0.45594000000E+02  0.51100000000E-03 0.  1.
         11   -1    0    0    0    0 -0.00000000000E+00 -0.00000000000E+00 -0.45593999997E+02  0.45594000000E+02  0.51100000000E-03 0. -1.
    9900012    2    1    2    0    0 -0.74341070273E+00  0.88758439299E+00 -0.22947134073E+00  0.90007693843E+02  0.89999954602E+02 0.  0.
        -12    1    1    2    0    0  0.74341070273E+00 -0.88758439299E+00  0.22947134073E+00  0.11803061568E+01  0.00000000000E+00 0.  1.
         11    1    3    3    0    0  0.34781955867E+01 -0.29720552877E+02 -0.26829918768E+02  0.40190218327E+02  0.51100000000E-03 0. -1.
        -11    1    3    3    0    0 -0.27426028971E+01 -0.48220675283E+01  0.81083040668E+01  0.98243982512E+01  0.51100000000E-03 0.  1.
        -12    1    3    3    0    0 -0.14790033924E+01  0.35430204798E+02  0.18492143360E+02  0.39993077265E+02  0.00000000000E+00 0.  1.
</event>
<event>
 7    1  0.2578619E-015  0.9000773E+02  0.7816164E-02  0.1186339E+00
        -11   -1    0    0    0    0  0.00000000000E+00  0.00000000000E+00  0.45593999997E+02  0.45594000000E+02  0.51100000000E-03 0.  1.
         11   -1    0    0    0    0 -0.00000000000E+00 -0.00000000000E+00 -0.45593999997E+02  0.45594000000E+02  0.51100000000E-03 0. -1.
    9900012    2    1    2    0    0  0.43702550723E-01 -0.13268027772E+00 -0.11719746458E+01  0.90007729463E+02  0.89999990692E+02 0.  0.
        -12    1    1    2    0    0 -0.43702550723E-01  0.13268027772E+00  0.11719746458E+01  0.11802705365E+01  0.00000000000E+00 0.  1.
         11    1    3    3    0    0  0.11572433760E+02 -0.10679756116E+02 -0.31824616504E+02  0.35507529197E+02  0.51100000000E-03 0. -1.
        -11    1    3    3    0    0 -0.10553416311E+01 -0.94414844023E+00 -0.10455008290E+02  0.10550467328E+02  0.51100000000E-03 0.  1.
        -12    1    3    3    0    0 -0.10473389578E+02  0.11491224279E+02  0.41107650148E+02  0.43949732938E+02  0.00000000000E+00 0.  1.
</event>
<event>
 7    1  0.2578619E-015  0.9000777E+02  0.7816164E-02  0.1186339E+00
        -11   -1    0    0    0    0  0.00000000000E+00  0.00000000000E+00  0.45593999997E+02  0.45594000000E+02  0.51100000000E-03 0.  1.
         11   -1    0    0    0    0 -0.00000000000E+00 -0.00000000000E+00 -0.45593999997E+02  0.45594000000E+02  0.51100000000E-03 0. -1.
    9900012    2    1    2    0    0  0.47245244308E+00  0.19377282581E+00 -0.10640464490E+01  0.90007765250E+02  0.90000026952E+02 0.  0.
        -12    1    1    2    0    0 -0.47245244308E+00 -0.19377282581E+00  0.10640464490E+01  0.11802347498E+01  0.00000000000E+00 0.  1.
         11    1    3    3    0    0  0.43149687905E+01 -0.41347826629E+01  0.64764386214E+01  0.88124707551E+01  0.51100000000E-03 0. -1.
        -11    1    3    3    0    0  0.42849719766E+01 -0.26867029795E+02  0.23864394784E+02  0.36189882751E+02  0.51100000000E-03 0.  1.
         12    1    3    3    0    0 -0.81274883241E+01  0.31195585283E+02 -0.31404879854E+02  0.45005411745E+02  0.00000000000E+00 0. -1.
</event>
<event>
 7    1  0.2578619E-015  0.9000779E+02  0.7816164E-02  0.1186339E+00
        -11   -1    0    0    0    0  0.00000000000E+00  0.00000000000E+00  0.45593999997E+02  0.45594000000E+02  0.51100000000E-03 0. -1.
         11   -1    0    0    0    0 -0.00000000000E+00 -0.00000000000E+00 -0.45593999997E+02  0.45594000000E+02  0.51100000000E-03 0.  1.
    9900012    2    1    2    0    0 -0.40499708791E+00 -0.63661925137E+00  0.90751803678E+00  0.90007789977E+02  0.90000052004E+02 0.  0.
        -12    1    1    2    0    0  0.40499708791E+00  0.63661925137E+00 -0.90751803678E+00  0.11802100235E+01  0.00000000000E+00 0.  1.
         11    1    3    3    0    0  0.33759264600E+02 -0.17634410897E+02  0.13602455509E+02  0.40443629785E+02  0.51100000000E-03 0. -1.
        -11    1    3    3    0    0  0.35201512725E+01  0.60988509434E+01 -0.69910532608E+01  0.99228158185E+01  0.51100000000E-03 0.  1.
        -12    1    3    3    0    0 -0.37684412961E+02  0.10898940702E+02 -0.57038842110E+01  0.39641344373E+02  0.00000000000E+00 0.  1.
</event>
<event>
 7    1  0.2578619E-015  0.9000773E+02  0.7816164E-02  0.1186339E+00
        -11   -1    0    0    0    0  0.00000000000E+00  0.00000000000E+00  0.45593999997E+02  0.45594000000E+02  0.51100000000E-03 0.  1.
         11   -1    0    0    0    0 -0.00000000000E+00 -0.00000000000E+00 -0.45593999997E+02  0.45594000000E+02  0.51100000000E-03 0. -1.
    9900012    2    1    2    0    0 -0.36373822284E-01 -0.11190691949E+01 -0.37336065638E+00  0.90007730074E+02  0.89999991311E+02 0.  0.
        -12    1    1    2    0    0  0.36373822284E-01  0.11190691949E+01  0.37336065638E+00  0.11802699257E+01  0.00000000000E+00 0.  1.
         11    1    3    3    0    0 -0.20161626770E+01 -0.35435604365E+01  0.46514053245E+01  0.61852489248E+01  0.51100000000E-03 0. -1.
        -11    1    3    3    0    0  0.30152986611E+02 -0.15738007801E+02  0.22219018499E+02  0.40627235624E+02  0.51100000000E-03 0.  1.
         12    1    3    3    0    0 -0.28173197756E+02  0.18162499042E+02 -0.27243784480E+02  0.43195245526E+02  0.00000000000E+00 0. -1.
</event>
<event>
 7    1  0.2578619E-015  0.9000769E+02  0.7816164E-02  0.1186339E+00
        -11   -1    0    0    0    0  0.00000000000E+00  0.00000000000E+00  0.45593999997E+02  0.45594000000E+02  0.51100000000E-03 0.  1.
         11   -1    0    0    0    0 -0.00000000000E+00 -0.00000000000E+00 -0.45593999997E+02  0.45594000000E+02  0.51100000000E-03 0. -1.
    9900012    2    1    2    0    0 -0.10973581751E+01 -0.48899271869E-01 -0.43190358777E+00  0.90007692069E+02  0.89999952804E+02 0.  0.
        -12    1    1    2    0    0  0.10973581751E+01  0.48899271869E-01  0.43190358777E+00  0.11803079312E+01  0.00000000000E+00 0.  1.
         11    1    3    3    0    0 -0.33517795576E+02  0.78556780662E+01 -0.18871988113E+02  0.39259473172E+02  0.51100000000E-03 0. -1.
        -11    1    3    3    0    0  0.33165526723E+01  0.17274131175E+01 -0.89112662546E+01  0.96640645811E+01  0.51100000000E-03 0.  1.
        -12    1    3    3    0    0  0.29103884728E+02 -0.96319904555E+01  0.27351350779E+02  0.41084154316E+02  0.00000000000E+00 0.  1.
</event>
<event>
 7    1  0.2578619E-015  0.9000781E+02  0.7816164E-02  0.1186339E+00
        -11   -1    0    0    0    0  0.00000000000E+00  0.00000000000E+00  0.45593999997E+02  0.45594000000E+02  0.51100000000E-03 0.  1.
         11   -1    0    0    0    0 -0.00000000000E+00 -0.00000000000E+00 -0.45593999997E+02  0.45594000000E+02  0.51100000000E-03 0. -1.
    9900012    2    1    2    0    0  0.11428793873E+01  0.10356567534E+00  0.27558818493E+00  0.90007810189E+02  0.90000072483E+02 0.  0.
        -12    1    1    2    0    0 -0.11428793873E+01 -0.10356567534E+00 -0.27558818493E+00  0.11801898113E+01  0.00000000000E+00 0.  1.
         11    1    3    3    0    0  0.17754953699E+02  0.33083812425E+02  0.12443006286E+01  0.37567609849E+02  0.51100000000E-03 0. -1.
        -11    1    3    3    0    0  0.81590035376E+01 -0.33278715495E+01 -0.94096036881E+01  0.12891264857E+02  0.51100000000E-03 0.  1.
        -12    1    3    3    0    0 -0.24771077850E+02 -0.29652375200E+02  0.84408912445E+01  0.39548935483E+02  0.00000000000E+00 0.  1.
</event>
<event>
 7    1  0.2578619E-015  0.9000770E+02  0.7816164E-02  0.1186339E+00
        -11   -1    0    0    0    0  0.00000000000E+00  0.00000000000E+00  0.45593999997E+02  0.45594000000E+02  0.51100000000E-03 0.  1.
         11   -1    0    0    0    0 -0.00000000000E+00 -0.00000000000E+00 -0.45593999997E+02  0.45594000000E+02  0.51100000000E-03 0. -1.
    9900012    2    1    2    0    0  0.57516311732E+00  0.14945682309E+00 -0.10197832277E+01  0.90007700129E+02  0.89999960971E+02 0.  0.
        -12    1    1    2    0    0 -0.57516311732E+00 -0.14945682309E+00  0.10197832277E+01  0.11802998708E+01  0.00000000000E+00 0.  1.
         11    1    3    3    0    0  0.96331220330E+01  0.32275193558E+01 -0.40349516648E+01  0.10931365720E+02  0.51100000000E-03 0. -1.
        -11    1    3    3    0    0  0.84519098058E+01 -0.31679194855E+02  0.22988646211E+02  0.40043526579E+02  0.51100000000E-03 0.  1.
         12    1    3    3    0    0 -0.17509868721E+02  0.28601132322E+02 -0.19973477774E+02  0.39032807831E+02  0.00000000000E+00 0. -1.
</event>
<event>
 7    1  0.2578619E-015  0.9000776E+02  0.7816164E-02  0.1186339E+00
        -11   -1    0    0    0    0  0.00000000000E+00  0.00000000000E+00  0.45593999997E+02  0.45594000000E+02  0.51100000000E-03 0.  1.
         11   -1    0    0    0    0 -0.00000000000E+00 -0.00000000000E+00 -0.45593999997E+02  0.45594000000E+02  0.51100000000E-03 0. -1.
    9900012    2    1    2    0    0 -0.10594027480E+01 -0.46692717752E+00  0.22938613545E+00  0.90007757156E+02  0.90000018750E+02 0.  0.
        -12    1    1    2    0    0  0.10594027480E+01  0.46692717752E+00 -0.22938613545E+00  0.11802428440E+01  0.00000000000E+00 0.  1.
         11    1    3    3    0    0  0.74345015190E+01  0.64396397046E+00 -0.54962474306E+01  0.92679684133E+01  0.51100000000E-03 0. -1.
        -11    1    3    3    0    0  0.23840978959E+02  0.38581622631E+01  0.31072853095E+02  0.39354795051E+02  0.51100000000E-03 0.  1.
         12    1    3    3    0    0 -0.32334883226E+02 -0.49690534111E+01 -0.25347219529E+02  0.41384993692E+02  0.00000000000E+00 0. -1.
</event>
<event>
 7    1  0.2578619E-015  0.9000774E+02  0.7816164E-02  0.1186339E+00
        -11   -1    0    0    0    0  0.00000000000E+00  0.00000000000E+00  0.45593999997E+02  0.45594000000E+02  0.51100000000E-03 0.  1.
         11   -1    0    0    0    0 -0.00000000000E+00 -0.00000000000E+00 -0.45593999997E+02  0.45594000000E+02  0.51100000000E-03 0. -1.
    9900012    2    1    2    0    0  0.78065090648E+00  0.76065787360E+00  0.45275635164E+00  0.90007743862E+02  0.90000005281E+02 0.  0.
        -12    1    1    2    0    0 -0.78065090648E+00 -0.76065787360E+00 -0.45275635164E+00  0.11802561385E+01  0.00000000000E+00 0.  1.
         11    1    3    3    0    0  0.56751927316E+01 -0.35749208915E+02 -0.56277520348E+01  0.36631753218E+02  0.51100000000E-03 0. -1.
        -11    1    3    3    0    0  0.36716858838E+01 -0.33434597210E+01 -0.86983667129E+01  0.10016066287E+02  0.51100000000E-03 0.  1.
        -12    1    3    3    0    0 -0.85662277089E+01  0.39853326509E+02  0.14778875099E+02  0.43359924357E+02  0.00000000000E+00 0.  1.
</event>
<event>
 7    1  0.2578619E-015  0.9000774E+02  0.7816164E-02  0.1186339E+00
        -11   -1    0    0    0    0  0.00000000000E+00  0.00000000000E+00  0.45593999997E+02  0.45594000000E+02  0.51100000000E-03 0. -1.
         11   -1    0    0    0    0 -0.00000000000E+00 -0.00000000000E+00 -0.45593999997E+02  0.45594000000E+02  0.51100000000E-03 0.  1.
    9900012    2    1    2    0    0  0.16899947520E+00 -0.20478949145E+00  0.11500095934E+01  0.90007736630E+02  0.89999997953E+02 0.  0.
        -12    1    1    2    0    0 -0.16899947520E+00  0.20478949145E+00 -0.11500095934E+01  0.11802633703E+01  0.00000000000E+00 0.  1.
         11    1    3    3    0    0 -0.34647593805E+01 -0.74846943643E+01 -0.83062823237E+01  0.11705534315E+02  0.51100000000E-03 0. -1.
        -11    1    3    3    0    0 -0.35256202030E+02 -0.66224301963E+01  0.90640070321E+01  0.37000170095E+02  0.51100000000E-03 0.  1.
         12    1    3    3    0    0  0.38889960886E+02  0.13902335069E+02  0.39228488499E+00  0.41302032220E+02  0.00000000000E+00 0. -1.
</event>
<event>
 7    1  0.2578619E-015  0.9000794E+02  0.7816164E-02  0.1186339E+00
        -11   -1    0    0    0    0  0.00000000000E+00  0.00000000000E+00  0.45593999997E+02  0.45594000000E+02  0.51100000000E-03 0.  1.
         11   -1    0    0    0    0 -0.00000000000E+00 -0.00000000000E+00 -0.45593999997E+02  0.45594000000E+02  0.51100000000E-03 0. -1.
    9900012    2    1    2    0    0 -0.10094734369E+01  0.58920053739E+00 -0.16233119005E+00  0.90007938430E+02  0.90000202417E+02 0.  0.
        -12    1    1    2    0    0  0.10094734369E+01 -0.58920053739E+00  0.16233119005E+00  0.11800615697E+01  0.00000000000E+00 0.  1.
         11    1    3    3    0    0 -0.28014454540E+02  0.10409499486E+02 -0.32557282504E+02  0.44194388637E+02  0.51100000000E-03 0. -1.
        -11    1    3    3    0    0  0.48880265169E+01 -0.75720557564E+01  0.42969363678E+01  0.99846128627E+01  0.51100000000E-03 0.  1.
        -12    1    3    3    0    0  0.22116954586E+02 -0.22482431922E+01  0.28098014946E+02  0.35828936930E+02  0.00000000000E+00 0.  1.
</event>
<event>
 7    1  0.2578619E-015  0.9000780E+02  0.7816164E-02  0.1186339E+00
        -11   -1    0    0    0    0  0.00000000000E+00  0.00000000000E+00  0.45593999997E+02  0.45594000000E+02  0.51100000000E-03 0.  1.
         11   -1    0    0    0    0 -0.00000000000E+00 -0.00000000000E+00 -0.45593999997E+02  0.45594000000E+02  0.51100000000E-03 0. -1.
    9900012    2    1    2    0    0  0.99644670838E+00  0.62699775788E+00 -0.82706769854E-01  0.90007799745E+02  0.90000061902E+02 0.  0.
        -12    1    1    2    0    0 -0.99644670838E+00 -0.62699775788E+00  0.82706769854E-01  0.11802002545E+01  0.00000000000E+00 0.  1.
         11    1    3    3    0    0 -0.16760319909E+02 -0.54544499961E+01 -0.31742003729E+02  0.36307218969E+02  0.51100000000E-03 0. -1.
        -11    1    3    3    0    0  0.19635651289E+01 -0.94414275003E+01 -0.50071236786E+01  0.10865883722E+02  0.51100000000E-03 0.  1.
        -12    1    3    3    0    0  0.15793201489E+02  0.15522875254E+02  0.36666420638E+02  0.42834697055E+02  0.00000000000E+00 0.  1.
</event>
<event>
 7    1  0.2578619E-015  0.9000775E+02  0.7816164E-02  0.1186339E+00
        -11   -1    0    0    0    0  0.00000000000E+00  0.00000000000E+00  0.45593999997E+02  0.45594000000E+02  0.51100000000E-03 0. -1.
         11   -1    0    0    0    0 -0.00000000000E+00 -0.00000000000E+00 -0.45593999997E+02  0.45594000000E+02  0.51100000000E-03 0.  1.
    9900012    2    1    2    0    0 -0.82261033202E-01  0.11456495464E+01  0.27151719994E+00  0.90007745218E+02  0.90000006655E+02 0.  0.
        -12    1    1    2    0    0  0.82261033202E-01 -0.11456495464E+01 -0.27151719994E+00  0.11802547821E+01  0.00000000000E+00 0.  1.
         11    1    3    3    0    0  0.24488346996E+01 -0.94267640708E+01  0.12397190282E+01  0.98182267117E+01  0.51100000000E-03 0. -1.
        -11    1    3    3    0    0 -0.13173862287E+02 -0.72573126808E+01 -0.36252490790E+02  0.39248723847E+02  0.51100000000E-03 0.  1.
         12    1    3    3    0    0  0.10642766554E+02  0.17829726298E+02  0.35284288962E+02  0.40940794659E+02  0.00000000000E+00 0. -1.
</event>
<event>
 7    1  0.2578619E-015  0.9000770E+02  0.7816164E-02  0.1186339E+00
        -11   -1    0    0    0    0  0.00000000000E+00  0.00000000000E+00  0.45593999997E+02  0.45594000000E+02  0.51100000000E-03 0. -1.
         11   -1    0    0    0    0 -0.00000000000E+00 -0.00000000000E+00 -0.45593999997E+02  0.45594000000E+02  0.51100000000E-03 0.  1.
    9900012    2    1    2    0    0 -0.23662081745E-01 -0.10493483305E+01  0.53982722725E+00  0.90007701204E+02  0.89999962060E+02 0.  0.
        -12    1    1    2    0    0  0.23662081745E-01  0.10493483305E+01 -0.53982722725E+00  0.11802987961E+01  0.00000000000E+00 0.  1.
         11    1    3    3    0    0 -0.29642734998E+01 -0.14978028687E+01  0.34620640017E+02  0.34779578006E+02  0.51100000000E-03 0. -1.
        -11    1    3    3    0    0  0.26218953524E+01 -0.80094340850E+00  0.10386450617E+02  0.10742169346E+02  0.51100000000E-03 0.  1.
        -12    1    3    3    0    0  0.31871606572E+00  0.12493979467E+01 -0.44467263407E+02  0.44485953851E+02  0.00000000000E+00 0.  1.
</event>
<event>
 7    1  0.2578619E-015  0.9000770E+02  0.7816164E-02  0.1186339E+00
        -11   -1    0    0    0    0  0.00000000000E+00  0.00000000000E+00  0.45593999997E+02  0.45594000000E+02  0.51100000000E-03 0.  1.
         11   -1    0    0    0    0 -0.00000000000E+00 -0.00000000000E+00 -0.45593999997E+02  0.45594000000E+02  0.51100000000E-03 0. -1.
    9900012    2    1    2    0    0  0.37248278521E+00 -0.70983894592E+00 -0.86631177177E+00  0.90007698835E+02  0.89999959660E+02 0.  0.
        -12    1    1    2    0    0 -0.37248278521E+00  0.70983894592E+00  0.86631177177E+00  0.11803011651E+01  0.00000000000E+00 0.  1.
         11    1    3    3    0    0 -0.14085168736E+02  0.25315003873E+02 -0.29378635200E+02  0.41259491100E+02  0.51100000000E-03 0. -1.
        -11    1    3    3    0    0  0.48636456428E+01  0.50539408497E+01  0.51293632826E+01  0.86895186862E+01  0.51100000000E-03 0.  1.
        -12    1    3    3    0    0  0.95940058779E+01 -0.31078783669E+02  0.23382960145E+02  0.40058689048E+02  0.00000000000E+00 0.  1.
</event>
<event>
 7    1  0.2578619E-015  0.9000776E+02  0.7816164E-02  0.1186339E+00
        -11   -1    0    0    0    0  0.00000000000E+00  0.00000000000E+00  0.45593999997E+02  0.45594000000E+02  0.51100000000E-03 0.  1.
         11   -1    0    0    0    0 -0.00000000000E+00 -0.00000000000E+00 -0.45593999997E+02  0.45594000000E+02  0.51100000000E-03 0. -1.
    9900012    2    1    2    0    0  0.40052091536E+00 -0.55185310672E+00 -0.96332735471E+00  0.90007763393E+02  0.90000025070E+02 0.  0.
        -12    1    1    2    0    0 -0.40052091536E+00  0.55185310672E+00  0.96332735471E+00  0.11802366065E+01  0.00000000000E+00 0.  1.
         11    1    3    3    0    0  0.23537581338E+02 -0.11096732625E+01  0.32935807344E+02  0.40497117374E+02  0.51100000000E-03 0. -1.
        -11    1    3    3    0    0 -0.41408024269E+01 -0.77274030119E+01  0.11001471335E+01  0.88356848078E+01  0.51100000000E-03 0.  1.
        -12    1    3    3    0    0 -0.18996257996E+02  0.82852231676E+01 -0.34999281832E+02  0.40674961211E+02  0.00000000000E+00 0.  1.
</event>
<event>
 7    1  0.2578619E-015  0.9000779E+02  0.7816164E-02  0.1186339E+00
        -11   -1    0    0    0    0  0.00000000000E+00  0.00000000000E+00  0.45593999997E+02  0.45594000000E+02  0.51100000000E-03 0.  1.
         11   -1    0    0    0    0 -0.00000000000E+00 -0.00000000000E+00 -0.45593999997E+02  0.45594000000E+02  0.51100000000E-03 0. -1.
    9900012    2    1    2    0    0 -0.15545708852E+00  0.11622514776E+01 -0.13381314625E+00  0.90007787578E+02  0.90000049574E+02 0.  0.
        -12    1    1    2    0    0  0.15545708852E+00 -0.11622514776E+01  0.13381314625E+00  0.11802124222E+01  0.00000000000E+00 0.  1.
         11    1    3    3    0    0  0.18197991413E+01 -0.93686820434E+01  0.17050691410E+02  0.19539957778E+02  0.51100000000E-03 0. -1.
        -11    1    3    3    0    0  0.20141262183E+02  0.94309185839E+01  0.18191862720E+02  0.28732499667E+02  0.51100000000E-03 0.  1.
         12    1    3    3    0    0 -0.22116518413E+02  0.11000149371E+01 -0.35376367276E+02  0.41735330132E+02  0.00000000000E+00 0. -1.
</event>
<event>
 7    1  0.2578619E-015  0.9000784E+02  0.7816164E-02  0.1186339E+00
        -11   -1    0    0    0    0  0.00000000000E+00  0.00000000000E+00  0.45593999997E+02  0.45594000000E+02  0.51100000000E-03 0.  1.
         11   -1    0    0    0    0 -0.00000000000E+00 -0.00000000000E+00 -0.45593999997E+02  0.45594000000E+02  0.51100000000E-03 0. -1.
    9900012    2    1    2    0    0 -0.11352845876E+01  0.16448346980E+00  0.27721746184E+00  0.90007840931E+02  0.90000103631E+02 0.  0.
        -12    1    1    2    0    0  0.11352845876E+01 -0.16448346980E+00 -0.27721746184E+00  0.11801590688E+01  0.00000000000E+00 0.  1.
         11    1    3    3    0    0 -0.54544250718E+01 -0.71768955024E+01 -0.14381474820E+01  0.91283541976E+01  0.51100000000E-03 0. -1.
        -11    1    3    3    0    0 -0.36256935603E+02  0.15475794560E+02  0.23445073034E+01  0.39491294121E+02  0.51100000000E-03 0.  1.
         12    1    3    3    0    0  0.40576076088E+02 -0.81344155874E+01 -0.62914235960E+00  0.41388192612E+02  0.00000000000E+00 0. -1.
</event>
<event>
 7    1  0.2578619E-015  0.9000785E+02  0.7816164E-02  0.1186339E+00
        -11   -1    0    0    0    0  0.00000000000E+00  0.00000000000E+00  0.45593999997E+02  0.45594000000E+02  0.51100000000E-03 0.  1.
         11   -1    0    0    0    0 -0.00000000000E+00 -0.00000000000E+00 -0.45593999997E+02  0.45594000000E+02  0.51100000000E-03 0. -1.
    9900012    2    1    2    0    0 -0.31844650435E+00 -0.63990082226E+00 -0.93907490843E+00  0.90007854703E+02  0.90000117585E+02 0.  0.
        -12    1    1    2    0    0  0.31844650435E+00  0.63990082226E+00  0.93907490843E+00  0.11801452970E+01  0.00000000000E+00 0.  1.
         11    1    3    3    0    0 -0.19435888627E+02 -0.69639102289E+01 -0.12422577443E+02  0.24095025275E+02  0.51100000000E-03 0. -1.
        -11    1    3    3    0    0 -0.20436902787E+02  0.58276661432E+00 -0.73536492772E+01  0.21727465807E+02  0.51100000000E-03 0.  1.
        -12    1    3    3    0    0  0.39554344909E+02  0.57412427923E+01  0.18837151812E+02  0.44185363622E+02  0.00000000000E+00 0.  1.
</event>
<event>
 7    1  0.2578619E-015  0.9000777E+02  0.7816164E-02  0.1186339E+00
        -11   -1    0    0    0    0  0.00000000000E+00  0.00000000000E+00  0.45593999997E+02  0.45594000000E+02  0.51100000000E-03 0.  1.
         11   -1    0    0    0    0 -0.00000000000E+00 -0.00000000000E+00 -0.45593999997E+02  0.45594000000E+02  0.51100000000E-03 0. -1.
    9900012    2    1    2    0    0  0.35297962464E+00  0.11106674287E+01  0.18646967201E+00  0.90007767950E+02  0.90000029687E+02 0.  0.
        -12    1    1    2    0    0 -0.35297962464E+00 -0.11106674287E+01 -0.18646967201E+00  0.11802320497E+01  0.00000000000E+00 0.  1.
         11    1    3    3    0    0 -0.31978715288E+01  0.85784234329E+01  0.55782836335E+00  0.91720719390E+01  0.51100000000E-03 0. -1.
        -11    1    3    3    0    0 -0.35233731106E+02 -0.24289149517E+00  0.15263798581E+02  0.38398676427E+02  0.51100000000E-03 0.  1.
         12    1    3    3    0    0  0.38784582260E+02 -0.72248645091E+01 -0.15635157273E+02  0.42437019584E+02  0.00000000000E+00 0. -1.
</event>
<event>
 7    1  0.2578619E-015  0.9000771E+02  0.7816164E-02  0.1186339E+00
        -11   -1    0    0    0    0  0.00000000000E+00  0.00000000000E+00  0.45593999997E+02  0.45594000000E+02  0.51100000000E-03 0. -1.
         11   -1    0    0    0    0 -0.00000000000E+00 -0.00000000000E+00 -0.45593999997E+02  0.45594000000E+02  0.51100000000E-03 0.  1.
    9900012    2    1    2    0    0  0.27482532531E+00 -0.11379935182E+01 -0.15012467660E+00  0.90007705280E+02  0.89999966190E+02 0.  0.
        -12    1    1    2    0    0 -0.27482532531E+00  0.11379935182E+01  0.15012467660E+00  0.11802947197E+01  0.00000000000E+00 0.  1.
         11    1    3    3    0    0  0.23814078232E+02 -0.18967472016E+02  0.10445092551E+02  0.32186569798E+02  0.51100000000E-03 0. -1.
        -11    1    3    3    0    0  0.85162013658E+01 -0.42736785515E+00 -0.18251492940E+02  0.20145106696E+02  0.51100000000E-03 0.  1.
        -12    1    3    3    0    0 -0.32055454272E+02  0.18256846353E+02  0.76562757126E+01  0.37676028787E+02  0.00000000000E+00 0.  1.
</event>
<event>
 7    1  0.2578619E-015  0.9000770E+02  0.7816164E-02  0.1186339E+00
        -11   -1    0    0    0    0  0.00000000000E+00  0.00000000000E+00  0.45593999997E+02  0.45594000000E+02  0.51100000000E-03 0.  1.
         11   -1    0    0    0    0 -0.00000000000E+00 -0.00000000000E+00 -0.45593999997E+02  0.45594000000E+02  0.51100000000E-03 0. -1.
    9900012    2    1    2    0    0  0.61352056288E+00 -0.20854488525E+00 -0.98651982388E+00  0.90007695034E+02  0.89999955808E+02 0.  0.
        -12    1    1    2    0    0 -0.61352056288E+00  0.20854488525E+00  0.98651982388E+00  0.11803049662E+01  0.00000000000E+00 0.  1.
         11    1    3    3    0    0 -0.19950247741E+01 -0.75015253558E+01 -0.43462912476E+02  0.44150625904E+02  0.51100000000E-03 0. -1.
        -11    1    3    3    0    0  0.10309115584E+01  0.67600477405E+01  0.53213883683E+01  0.86647676554E+01  0.51100000000E-03 0.  1.
        -12    1    3    3    0    0  0.15776337786E+01  0.53293273012E+00  0.37155004284E+02  0.37192301475E+02  0.00000000000E+00 0.  1.
</event>
<event>
 7    1  0.2578619E-015  0.9000769E+02  0.7816164E-02  0.1186339E+00
        -11   -1    0    0    0    0  0.00000000000E+00  0.00000000000E+00  0.45593999997E+02  0.45594000000E+02  0.51100000000E-03 0. -1.
         11   -1    0    0    0    0 -0.00000000000E+00 -0.00000000000E+00 -0.45593999997E+02  0.45594000000E+02  0.51100000000E-03 0.  1.
    9900012    2    1    2    0    0  0.97545944790E+00 -0.55549237228E+00  0.36474684015E+00  0.90007689377E+02  0.89999950076E+02 0.  0.
        -12    1    1    2    0    0 -0.97545944790E+00  0.55549237228E+00 -0.36474684015E+00  0.11803106233E+01  0.00000000000E+00 0.  1.
         11    1    3    3    0    0  0.80041056873E+01 -0.43428364509E+01 -0.45625544530E+01  0.10185422902E+02  0.51100000000E-03 0. -1.
        -11    1    3    3    0    0  0.24124627614E+02 -0.26545265121E+02 -0.13235325499E+01  0.35894296156E+02  0.51100000000E-03 0.  1.
         12    1    3    3    0    0 -0.31153273853E+02  0.30332609200E+02  0.62508338431E+01  0.43927970319E+02  0.00000000000E+00 0. -1.
</event>
<event>
 7    1  0.2578619E-015  0.9000769E+02  0.7816164E-02  0.1186339E+00
        -11   -1    0    0    0    0  0.00000000000E+00  0.00000000000E+00  0.45593999997E+02  0.45594000000E+02  0.51100000000E-03 0. -1.
         11   -1    0    0    0    0 -0.00000000000E+00 -0.00000000000E+00 -0.45593999997E+02  0.45594000000E+02  0.51100000000E-03 0.  1.
    9900012    2    1    2    0    0 -0.14224635994E+00  0.50777901525E+00  0.10559605952E+01  0.90007692272E+02  0.89999953009E+02 0.  0.
        -12    1    1    2    0    0  0.14224635994E+00 -0.50777901525E+00 -0.10559605952E+01  0.11803077285E+01  0.00000000000E+00 0.  1.
         11    1    3    3    0    0  0.59078962251E+01  0.72329592625E+01  0.18899111270E+01  0.95284154941E+01  0.51100000000E-03 0. -1.
        -11    1    3    3    0    0  0.35982677182E+02  0.41227306748E+01 -0.61789117551E+01  0.36741378800E+02  0.51100000000E-03 0.  1.
         12    1    3    3    0    0 -0.42032819767E+02 -0.10847910922E+02  0.53449612233E+01  0.43737897977E+02  0.00000000000E+00 0. -1.
</event>
<event>
 7    1  0.2578619E-015  0.9000779E+02  0.7816164E-02  0.1186339E+00
        -11   -1    0    0    0    0  0.00000000000E+00  0.00000000000E+00  0.45593999997E+02  0.45594000000E+02  0.51100000000E-03 0. -1.
         11   -1    0    0    0    0 -0.00000000000E+00 -0.00000000000E+00 -0.45593999997E+02  0.45594000000E+02  0.51100000000E-03 0.  1.
    9900012    2    1    2    0    0 -0.10483488699E+01  0.52259710862E+00 -0.14404253987E+00  0.90007791822E+02  0.90000053874E+02 0.  0.
        -12    1    1    2    0    0  0.10483488699E+01 -0.52259710862E+00  0.14404253987E+00  0.11802081783E+01  0.00000000000E+00 0.  1.
         11    1    3    3    0    0 -0.20580503853E+01  0.28118785045E+02  0.27211048443E+02  0.39183450607E+02  0.51100000000E-03 0. -1.
        -11    1    3    3    0    0 -0.14171842915E+01  0.75064140725E+01 -0.52886876278E+01  0.92911183734E+01  0.51100000000E-03 0.  1.
        -12    1    3    3    0    0  0.24268858069E+01 -0.35102602009E+02 -0.22066403355E+02  0.41533222841E+02  0.00000000000E+00 0.  1.
</event>
<event>
 7    1  0.2578619E-015  0.9000771E+02  0.7816164E-02  0.1186339E+00
        -11   -1    0    0    0    0  0.00000000000E+00  0.00000000000E+00  0.45593999997E+02  0.45594000000E+02  0.51100000000E-03 0.  1.
         11   -1    0    0    0    0 -0.00000000000E+00 -0.00000000000E+00 -0.45593999997E+02  0.45594000000E+02  0.51100000000E-03 0. -1.
    9900012    2    1    2    0    0  0.32516359440E+00 -0.10253021740E+01 -0.48590561353E+00  0.90007711825E+02  0.89999972821E+02 0.  0.
        -12    1    1    2    0    0 -0.32516359440E+00  0.10253021740E+01  0.48590561353E+00  0.11802881752E+01  0.00000000000E+00 0.  1.
         11    1    3    3    0    0  0.30400968980E+02 -0.17006794492E+02 -0.20258435232E+02  0.40297073989E+02  0.51100000000E-03 0. -1.
        -11    1    3    3    0    0  0.44754330680E+01  0.87793978107E+01  0.15020990760E+01  0.99681306653E+01  0.51100000000E-03 0.  1.
        -12    1    3    3    0    0 -0.34551238454E+02  0.72020945069E+01  0.18270430542E+02  0.39742507170E+02  0.00000000000E+00 0.  1.
</event>
<event>
 7    1  0.2578619E-015  0.9000772E+02  0.7816164E-02  0.1186339E+00
        -11   -1    0    0    0    0  0.00000000000E+00  0.00000000000E+00  0.45593999997E+02  0.45594000000E+02  0.51100000000E-03 0.  1.
         11   -1    0    0    0    0 -0.00000000000E+00 -0.00000000000E+00 -0.45593999997E+02  0.45594000000E+02  0.51100000000E-03 0. -1.
    9900012    2    1    2    0    0 -0.94405498986E+00 -0.43443964480E+00  0.55954001364E+00  0.90007719247E+02  0.89999980341E+02 0.  0.
        -12    1    1    2    0    0  0.94405498986E+00  0.43443964480E+00 -0.55954001364E+00  0.11802807529E+01  0.00000000000E+00 0.  1.
         11    1    3    3    0    0 -0.60769031193E+01  0.54505151358E+01  0.65731773114E+01  0.10480626269E+02  0.51100000000E-03 0. -1.
        -11    1    3    3    0    0  0.13230572775E+02 -0.32660506139E+02  0.20682210362E+02  0.40859644430E+02  0.51100000000E-03 0.  1.
         12    1    3    3    0    0 -0.80977246452E+01  0.26775551358E+02 -0.26695847660E+02  0.38667448548E+02  0.00000000000E+00 0. -1.
</event>
<event>
 7    1  0.2578619E-015  0.9000776E+02  0.7816164E-02  0.1186339E+00
        -11   -1    0    0    0    0  0.00000000000E+00  0.00000000000E+00  0.45593999997E+02  0.45594000000E+02  0.51100000000E-03 0.  1.
         11   -1    0    0    0    0 -0.00000000000E+00 -0.00000000000E+00 -0.45593999997E+02  0.45594000000E+02  0.51100000000E-03 0. -1.
    9900012    2    1    2    0    0  0.10693828353E+01 -0.16462748315E+00  0.47146280550E+00  0.90007763145E+02  0.90000024819E+02 0.  0.
        -12    1    1    2    0    0 -0.10693828353E+01  0.16462748315E+00 -0.47146280550E+00  0.11802368548E+01  0.00000000000E+00 0.  1.
         11    1    3    3    0    0  0.39087823263E+02  0.10929743203E+02 -0.84563486880E+01  0.41458739095E+02  0.51100000000E-03 0. -1.
        -11    1    3    3    0    0 -0.11476919050E+02  0.66411456279E+01  0.10001989471E+02  0.16609162525E+02  0.51100000000E-03 0.  1.
        -12    1    3    3    0    0 -0.26541521378E+02 -0.17735516314E+02 -0.10741779774E+01  0.31939861526E+02  0.00000000000E+00 0.  1.
</event>
<event>
 7    1  0.2578619E-015  0.9000784E+02  0.7816164E-02  0.1186339E+00
        -11   -1    0    0    0    0  0.00000000000E+00  0.00000000000E+00  0.45593999997E+02  0.45594000000E+02  0.51100000000E-03 0.  1.
         11   -1    0    0    0    0 -0.00000000000E+00 -0.00000000000E+00 -0.45593999997E+02  0.45594000000E+02  0.51100000000E-03 0. -1.
    9900012    2    1    2    0    0 -0.37602248385E+00  0.87590819658E+00 -0.69581824291E+00  0.90007842763E+02  0.90000105487E+02 0.  0.
        -12    1    1    2    0    0  0.37602248385E+00 -0.87590819658E+00  0.69581824291E+00  0.11801572371E+01  0.00000000000E+00 0.  1.
         11    1    3    3    0    0 -0.19598135554E+01  0.82945712504E+01 -0.25381889492E+01  0.88928726969E+01  0.51100000000E-03 0. -1.
        -11    1    3    3    0    0  0.34013956171E+02 -0.12171980405E+02  0.22322033115E+02  0.42466215796E+02  0.51100000000E-03 0.  1.
         12    1    3    3    0    0 -0.32430165100E+02  0.47533173515E+01 -0.20479662408E+02  0.38648754270E+02  0.00000000000E+00 0. -1.
</event>
<event>
 7    1  0.2578619E-015  0.9000783E+02  0.7816164E-02  0.1186339E+00
        -11   -1    0    0    0    0  0.00000000000E+00  0.00000000000E+00  0.45593999997E+02  0.45594000000E+02  0.51100000000E-03 0. -1.
         11   -1    0    0    0    0 -0.00000000000E+00 -0.00000000000E+00 -0.45593999997E+02  0.45594000000E+02  0.51100000000E-03 0.  1.
    9900012    2    1    2    0    0  0.20615130456E+00  0.10692795412E+01  0.45491765302E+00  0.90007827484E+02  0.90000090006E+02 0.  0.
        -12    1    1    2    0    0 -0.20615130456E+00 -0.10692795412E+01 -0.45491765302E+00  0.11801725164E+01  0.00000000000E+00 0.  1.
         11    1    3    3    0    0  0.17196601539E+02  0.30259010264E+02 -0.74805031125E+01  0.35598999055E+02  0.51100000000E-03 0. -1.
        -11    1    3    3    0    0  0.54244210830E+01  0.84214054038E+01  0.21382605282E+01  0.10242879059E+02  0.51100000000E-03 0.  1.
        -12    1    3    3    0    0 -0.22414871317E+02 -0.37611136127E+02  0.57971602373E+01  0.44165949370E+02  0.00000000000E+00 0.  1.
</event>
<event>
 7    1  0.2578619E-015  0.9000759E+02  0.7816164E-02  0.1186339E+00
        -11   -1    0    0    0    0  0.00000000000E+00  0.00000000000E+00  0.45593999997E+02  0.45594000000E+02  0.51100000000E-03 0. -1.
         11   -1    0    0    0    0 -0.00000000000E+00 -0.00000000000E+00 -0.45593999997E+02  0.45594000000E+02  0.51100000000E-03 0.  1.
    9900012    2    1    2    0    0 -0.46833620079E+00 -0.72504594941E+00  0.80518989306E+00  0.90007592787E+02  0.89999852211E+02 0.  0.
        -12    1    1    2    0    0  0.46833620079E+00  0.72504594941E+00 -0.80518989306E+00  0.11804072135E+01  0.00000000000E+00 0.  1.
         11    1    3    3    0    0 -0.30460263880E+02 -0.18621162237E+02  0.62369296114E+01  0.36241890816E+02  0.51100000000E-03 0. -1.
        -11    1    3    3    0    0 -0.22593909058E+00 -0.32195790561E+01  0.12401294279E+02  0.12814399628E+02  0.51100000000E-03 0.  1.
        -12    1    3    3    0    0  0.30217866770E+02  0.21115695344E+02 -0.17833033997E+02  0.40951302342E+02  0.00000000000E+00 0.  1.
</event>
<event>
 7    1  0.2578619E-015  0.9000772E+02  0.7816164E-02  0.1186339E+00
        -11   -1    0    0    0    0  0.00000000000E+00  0.00000000000E+00  0.45593999997E+02  0.45594000000E+02  0.51100000000E-03 0.  1.
         11   -1    0    0    0    0 -0.00000000000E+00 -0.00000000000E+00 -0.45593999997E+02  0.45594000000E+02  0.51100000000E-03 0. -1.
    9900012    2    1    2    0    0 -0.61690923734E+00  0.10042713802E+01 -0.62539290433E-01  0.90007724958E+02  0.89999986127E+02 0.  0.
        -12    1    1    2    0    0  0.61690923734E+00 -0.10042713802E+01  0.62539290433E-01  0.11802750421E+01  0.00000000000E+00 0.  1.
         11    1    3    3    0    0 -0.13556741858E+02 -0.59528294630E+01 -0.37525537628E+02  0.40340889962E+02  0.51100000000E-03 0. -1.
        -11    1    3    3    0    0  0.49001842004E+01 -0.68518163090E+01 -0.54022057695E+00  0.84410325472E+01  0.51100000000E-03 0.  1.
        -12    1    3    3    0    0  0.80396484206E+01  0.13808917152E+02  0.38003218914E+02  0.41225802448E+02  0.00000000000E+00 0.  1.
</event>
<event>
 7    1  0.2578619E-015  0.9000778E+02  0.7816164E-02  0.1186339E+00
        -11   -1    0    0    0    0  0.00000000000E+00  0.00000000000E+00  0.45593999997E+02  0.45594000000E+02  0.51100000000E-03 0.  1.
         11   -1    0    0    0    0 -0.00000000000E+00 -0.00000000000E+00 -0.45593999997E+02  0.45594000000E+02  0.51100000000E-03 0. -1.
    9900012    2    1    2    0    0 -0.60005528601E+00  0.55912135481E+00 -0.84867116458E+00  0.90007777232E+02  0.90000039092E+02 0.  0.
        -12    1    1    2    0    0  0.60005528601E+00 -0.55912135481E+00  0.84867116458E+00  0.11802227676E+01  0.00000000000E+00 0.  1.
         11    1    3    3    0    0 -0.26622563807E+01  0.28310348099E+01  0.68412510889E+01  0.78679783841E+01  0.51100000000E-03 0. -1.
        -11    1    3    3    0    0  0.10951636295E+02 -0.32803676419E+02  0.20020672464E+02  0.39960566192E+02  0.51100000000E-03 0.  1.
         12    1    3    3    0    0 -0.88894352003E+01  0.30531762964E+02 -0.27710594718E+02  0.42179232657E+02  0.00000000000E+00 0. -1.
</event>
<event>
 7    1  0.2578619E-015  0.9000778E+02  0.7816164E-02  0.1186339E+00
        -11   -1    0    0    0    0  0.00000000000E+00  0.00000000000E+00  0.45593999997E+02  0.45594000000E+02  0.51100000000E-03 0.  1.
         11   -1    0    0    0    0 -0.00000000000E+00 -0.00000000000E+00 -0.45593999997E+02  0.45594000000E+02  0.51100000000E-03 0. -1.
    9900012    2    1    2    0    0 -0.19844257398E+00  0.11463262928E+01  0.19871393209E+00  0.90007775169E+02  0.90000037001E+02 0.  0.
        -12    1    1    2    0    0  0.19844257398E+00 -0.11463262928E+01 -0.19871393209E+00  0.11802248309E+01  0.00000000000E+00 0.  1.
         11    1    3    3    0    0  0.60371375320E+00 -0.40337843728E+02 -0.49144163112E+01  0.40640590484E+02  0.51100000000E-03 0. -1.
        -11    1    3    3    0    0 -0.10039376045E+02  0.64338031538E+01  0.54687444449E+01  0.13118310122E+02  0.51100000000E-03 0.  1.
        -12    1    3    3    0    0  0.92372197179E+01  0.35050366867E+02 -0.35561420159E+00  0.36248874563E+02  0.00000000000E+00 0.  1.
</event>
<event>
 7    1  0.2578619E-015  0.9000776E+02  0.7816164E-02  0.1186339E+00
        -11   -1    0    0    0    0  0.00000000000E+00  0.00000000000E+00  0.45593999997E+02  0.45594000000E+02  0.51100000000E-03 0.  1.
         11   -1    0    0    0    0 -0.00000000000E+00 -0.00000000000E+00 -0.45593999997E+02  0.45594000000E+02  0.51100000000E-03 0. -1.
    9900012    2    1    2    0    0 -0.11107131412E+01 -0.27742614706E+00  0.28692541870E+00  0.90007756320E+02  0.90000017903E+02 0.  0.
        -12    1    1    2    0    0  0.11107131412E+01  0.27742614706E+00 -0.28692541870E+00  0.11802436803E+01  0.00000000000E+00 0.  1.
         11    1    3    3    0    0 -0.11953694756E+02 -0.26853571695E+02 -0.28697864289E+02  0.41080074807E+02  0.51100000000E-03 0. -1.
        -11    1    3    3    0    0  0.47601006754E+01  0.57596597841E+01 -0.47276219886E+01  0.88420952945E+01  0.51100000000E-03 0.  1.
        -12    1    3    3    0    0  0.60828809394E+01  0.20816485764E+02  0.33712411697E+02  0.40085586218E+02  0.00000000000E+00 0.  1.
</event>
<event>
 7    1  0.2578619E-015  0.9000769E+02  0.7816164E-02  0.1186339E+00
        -11   -1    0    0    0    0  0.00000000000E+00  0.00000000000E+00  0.45593999997E+02  0.45594000000E+02  0.51100000000E-03 0. -1.
         11   -1    0    0    0    0 -0.00000000000E+00 -0.00000000000E+00 -0.45593999997E+02  0.45594000000E+02  0.51100000000E-03 0.  1.
    9900012    2    1    2    0    0  0.14524230728E+00 -0.11434416432E+01  0.25409827037E+00  0.90007694933E+02  0.89999955707E+02 0.  0.
        -12    1    1    2    0    0 -0.14524230728E+00  0.11434416432E+01 -0.25409827037E+00  0.11803050666E+01  0.00000000000E+00 0.  1.
         11    1    3    3    0    0  0.11379245064E+02  0.10084465045E+02  0.32797428256E+02  0.36150448876E+02  0.51100000000E-03 0. -1.
        -11    1    3    3    0    0 -0.28842533868E+01  0.35173778077E+01  0.83963060333E+01  0.95492837170E+01  0.51100000000E-03 0.  1.
        -12    1    3    3    0    0 -0.83497493696E+01 -0.14745284496E+02 -0.40939636019E+02  0.44307962340E+02  0.00000000000E+00 0.  1.
</event>
<event>
 7    1  0.2578619E-015  0.9000761E+02  0.7816164E-02  0.1186339E+00
        -11   -1    0    0    0    0  0.00000000000E+00  0.00000000000E+00  0.45593999997E+02  0.45594000000E+02  0.51100000000E-03 0.  1.
         11   -1    0    0    0    0 -0.00000000000E+00 -0.00000000000E+00 -0.45593999997E+02  0.45594000000E+02  0.51100000000E-03 0. -1.
    9900012    2    1    2    0    0  0.92558863006E-02 -0.99521323039E+00 -0.63464813996E+00  0.90007613069E+02  0.89999872761E+02 0.  0.
        -12    1    1    2    0    0 -0.92558863006E-02  0.99521323039E+00  0.63464813996E+00  0.11803869310E+01  0.00000000000E+00 0.  1.
         11    1    3    3    0    0  0.14806134259E+01  0.78844386574E+01  0.10232724649E+02  0.13002509106E+02  0.51100000000E-03 0. -1.
        -11    1    3    3    0    0  0.56176395145E+01 -0.13631806580E+02  0.30972984020E+02  0.34303203403E+02  0.51100000000E-03 0.  1.
         12    1    3    3    0    0 -0.70889970541E+01  0.47521546921E+01 -0.41840356809E+02  0.42701900559E+02  0.00000000000E+00 0. -1.
</event>
<event>
 7    1  0.2578619E-015  0.9000779E+02  0.7816164E-02  0.1186339E+00
        -11   -1    0    0    0    0  0.00000000000E+00  0.00000000000E+00  0.45593999997E+02  0.45594000000E+02  0.51100000000E-03 0. -1.
         11   -1    0    0    0    0 -0.00000000000E+00 -0.00000000000E+00 -0.45593999997E+02  0.45594000000E+02  0.51100000000E-03 0.  1.
    9900012    2    1    2    0    0 -0.11545203070E+01 -0.93926004638E-01  0.22619249598E+00  0.90007787189E+02  0.90000049180E+02 0.  0.
        -12    1    1    2    0    0  0.11545203070E+01  0.93926004638E-01 -0.22619249598E+00  0.11802128109E+01  0.00000000000E+00 0.  1.
         11    1    3    3    0    0  0.88551383942E+01  0.43194858637E+01  0.87379502577E+00  0.98911552468E+01  0.51100000000E-03 0. -1.
        -11    1    3    3    0    0 -0.19203154936E+02  0.34540196767E+02  0.44513593338E+01  0.39769346894E+02  0.51100000000E-03 0.  1.
         12    1    3    3    0    0  0.91934962352E+01 -0.38953608635E+02 -0.50989618636E+01  0.40347285049E+02  0.00000000000E+00 0. -1.
</event>
<event>
 7    1  0.2578619E-015  0.9000775E+02  0.7816164E-02  0.1186339E+00
        -11   -1    0    0    0    0  0.00000000000E+00  0.00000000000E+00  0.45593999997E+02  0.45594000000E+02  0.51100000000E-03 0. -1.
         11   -1    0    0    0    0 -0.00000000000E+00 -0.00000000000E+00 -0.45593999997E+02  0.45594000000E+02  0.51100000000E-03 0.  1.
    9900012    2    1    2    0    0 -0.83398942495E+00  0.82601547157E+00  0.12306635963E+00  0.90007752039E+02  0.90000013566E+02 0.  0.
        -12    1    1    2    0    0  0.83398942495E+00 -0.82601547157E+00 -0.12306635963E+00  0.11802479608E+01  0.00000000000E+00 0.  1.
         11    1    3    3    0    0 -0.49022114733E+01 -0.34925014318E+01  0.71403444726E+01  0.93388309240E+01  0.51100000000E-03 0. -1.
        -11    1    3    3    0    0 -0.31420891600E+02 -0.11870852232E+02 -0.20555331375E+02  0.39379070708E+02  0.51100000000E-03 0.  1.
         12    1    3    3    0    0  0.35489113648E+02  0.16189369135E+02  0.13538053262E+02  0.41289850407E+02  0.00000000000E+00 0. -1.
</event>
<event>
 7    1  0.2578619E-015  0.9000771E+02  0.7816164E-02  0.1186339E+00
        -11   -1    0    0    0    0  0.00000000000E+00  0.00000000000E+00  0.45593999997E+02  0.45594000000E+02  0.51100000000E-03 0.  1.
         11   -1    0    0    0    0 -0.00000000000E+00 -0.00000000000E+00 -0.45593999997E+02  0.45594000000E+02  0.51100000000E-03 0. -1.
    9900012    2    1    2    0    0  0.12483158520E+00  0.10346674584E+01 -0.55405179588E+00  0.90007706364E+02  0.89999967288E+02 0.  0.
        -12    1    1    2    0    0 -0.12483158520E+00 -0.10346674584E+01  0.55405179588E+00  0.11802936358E+01  0.00000000000E+00 0.  1.
         11    1    3    3    0    0  0.83093072306E+01 -0.29826737504E+01  0.10353927006E+01  0.88889238753E+01  0.51100000000E-03 0. -1.
        -11    1    3    3    0    0  0.29268737561E+02 -0.17273151743E+02  0.11845678698E+02  0.35990844303E+02  0.51100000000E-03 0.  1.
         12    1    3    3    0    0 -0.37453213207E+02  0.21290492952E+02 -0.13435123195E+02  0.45127938186E+02  0.00000000000E+00 0. -1.
</event>
<event>
 7    1  0.2578619E-015  0.9000772E+02  0.7816164E-02  0.1186339E+00
        -11   -1    0    0    0    0  0.00000000000E+00  0.00000000000E+00  0.45593999997E+02  0.45594000000E+02  0.51100000000E-03 0.  1.
         11   -1    0    0    0    0 -0.00000000000E+00 -0.00000000000E+00 -0.45593999997E+02  0.45594000000E+02  0.51100000000E-03 0. -1.
    9900012    2    1    2    0    0  0.46485366876E+00 -0.43715046307E+00  0.99290757871E+00  0.90007722524E+02  0.89999983661E+02 0.  0.
        -12    1    1    2    0    0 -0.46485366876E+00  0.43715046307E+00 -0.99290757871E+00  0.11802774761E+01  0.00000000000E+00 0.  1.
         11    1    3    3    0    0 -0.77075922848E+01  0.12506189221E+02 -0.35108995341E+02  0.38058550968E+02  0.51100000000E-03 0. -1.
        -11    1    3    3    0    0  0.12930936342E+02  0.59904633627E+01  0.47614469350E+01  0.15025516402E+02  0.51100000000E-03 0.  1.
        -12    1    3    3    0    0 -0.47584903881E+01 -0.18933803047E+02  0.31340455985E+02  0.36923655154E+02  0.00000000000E+00 0.  1.
</event>
<event>
 7    1  0.2578619E-015  0.9000760E+02  0.7816164E-02  0.1186339E+00
        -11   -1    0    0    0    0  0.00000000000E+00  0.00000000000E+00  0.45593999997E+02  0.45594000000E+02  0.51100000000E-03 0.  1.
         11   -1    0    0    0    0 -0.00000000000E+00 -0.00000000000E+00 -0.45593999997E+02  0.45594000000E+02  0.51100000000E-03 0. -1.
    9900012    2    1    2    0    0 -0.69301177272E+00 -0.94171494718E+00 -0.16204442816E+00  0.90007597206E+02  0.89999856689E+02 0.  0.
        -12    1    1    2    0    0  0.69301177272E+00  0.94171494718E+00  0.16204442816E+00  0.11804027938E+01  0.00000000000E+00 0.  1.
         11    1    3    3    0    0  0.51480825359E+01 -0.28846155171E+01  0.24923648542E+02  0.25612731549E+02  0.51100000000E-03 0. -1.
        -11    1    3    3    0    0 -0.17800004417E+01  0.22274230011E+02  0.93313913501E+01  0.24215379182E+02  0.51100000000E-03 0.  1.
         12    1    3    3    0    0 -0.40610938670E+01 -0.20331329441E+02 -0.34417084321E+02  0.40179486475E+02  0.00000000000E+00 0. -1.
</event>
<event>
 7    1  0.2578619E-015  0.9000788E+02  0.7816164E-02  0.1186339E+00
        -11   -1    0    0    0    0  0.00000000000E+00  0.00000000000E+00  0.45593999997E+02  0.45594000000E+02  0.51100000000E-03 0. -1.
         11   -1    0    0    0    0 -0.00000000000E+00 -0.00000000000E+00 -0.45593999997E+02  0.45594000000E+02  0.51100000000E-03 0.  1.
    9900012    2    1    2    0    0 -0.42271031710E+00  0.10736660749E+01 -0.24747918005E+00  0.90007877635E+02  0.90000140819E+02 0.  0.
        -12    1    1    2    0    0  0.42271031710E+00 -0.10736660749E+01  0.24747918005E+00  0.11801223653E+01  0.00000000000E+00 0.  1.
         11    1    3    3    0    0  0.40288434977E+01 -0.22866282625E+01  0.73318055568E+01  0.86726940291E+01  0.51100000000E-03 0. -1.
        -11    1    3    3    0    0 -0.19517873258E+02 -0.29011786156E+02 -0.23614661724E+02  0.42193404237E+02  0.51100000000E-03 0.  1.
         12    1    3    3    0    0  0.15066319443E+02  0.32372080493E+02  0.16035376987E+02  0.39141779369E+02  0.00000000000E+00 0. -1.
</event>
<event>
 7    1  0.2578619E-015  0.9000769E+02  0.7816164E-02  0.1186339E+00
        -11   -1    0    0    0    0  0.00000000000E+00  0.00000000000E+00  0.45593999997E+02  0.45594000000E+02  0.51100000000E-03 0. -1.
         11   -1    0    0    0    0 -0.00000000000E+00 -0.00000000000E+00 -0.45593999997E+02  0.45594000000E+02  0.51100000000E-03 0.  1.
    9900012    2    1    2    0    0  0.14109943059E+00  0.10896653258E+01  0.43109940002E+00  0.90007692301E+02  0.89999953039E+02 0.  0.
        -12    1    1    2    0    0 -0.14109943059E+00 -0.10896653258E+01 -0.43109940002E+00  0.11803076989E+01  0.00000000000E+00 0.  1.
         11    1    3    3    0    0  0.28967916993E+02  0.18892889734E+02 -0.10327721105E+02  0.36093535722E+02  0.51100000000E-03 0. -1.
        -11    1    3    3    0    0  0.91287121506E+01  0.26601097708E+01  0.15762313573E+00  0.95097010907E+01  0.51100000000E-03 0.  1.
        -12    1    3    3    0    0 -0.37955529713E+02 -0.20463334179E+02  0.10601197369E+02  0.44404455488E+02  0.00000000000E+00 0.  1.
</event>
<event>
 7    1  0.2578619E-015  0.9000842E+02  0.7816164E-02  0.1186338E+00
        -11   -1    0    0    0    0  0.00000000000E+00  0.00000000000E+00  0.45593999997E+02  0.45594000000E+02  0.51100000000E-03 0. -1.
         11   -1    0    0    0    0 -0.00000000000E+00 -0.00000000000E+00 -0.45593999997E+02  0.45594000000E+02  0.51100000000E-03 0.  1.
    9900012    2    1    2    0    0 -0.24124346810E+00 -0.15084611040E-01  0.11545526713E+01  0.90008416248E+02  0.90000686540E+02 0.  0.
        -12    1    1    2    0    0  0.24124346810E+00  0.15084611040E-01 -0.11545526713E+01  0.11795837517E+01  0.00000000000E+00 0.  1.
         11    1    3    3    0    0  0.22667181303E+02  0.16301437132E+02  0.29770510691E+02  0.40814473754E+02  0.51100000000E-03 0. -1.
        -11    1    3    3    0    0  0.67919451941E+01 -0.30454097675E+01 -0.44830782581E+01  0.86892480170E+01  0.51100000000E-03 0.  1.
        -12    1    3    3    0    0 -0.29700369965E+02 -0.13271111975E+02 -0.24132879761E+02  0.40504694477E+02  0.00000000000E+00 0.  1.
</event>
<event>
 7    1  0.2578619E-015  0.9000764E+02  0.7816164E-02  0.1186339E+00
        -11   -1    0    0    0    0  0.00000000000E+00  0.00000000000E+00  0.45593999997E+02  0.45594000000E+02  0.51100000000E-03 0. -1.
         11   -1    0    0    0    0 -0.00000000000E+00 -0.00000000000E+00 -0.45593999997E+02  0.45594000000E+02  0.51100000000E-03 0.  1.
    9900012    2    1    2    0    0  0.40815878010E+00  0.90797961182E+00  0.63421095727E+00  0.90007642383E+02  0.89999902463E+02 0.  0.
        -12    1    1    2    0    0 -0.40815878010E+00 -0.90797961182E+00 -0.63421095727E+00  0.11803576168E+01  0.00000000000E+00 0.  1.
         11    1    3    3    0    0 -0.75995619832E+01  0.26146076012E+02  0.21453535547E+02  0.34664460487E+02  0.51100000000E-03 0. -1.
        -11    1    3    3    0    0  0.10374953065E+02  0.10902125222E+02 -0.66222590514E+01  0.16442332580E+02  0.51100000000E-03 0.  1.
        -12    1    3    3    0    0 -0.23672323016E+01 -0.36140221622E+02 -0.14197065538E+02  0.38900849316E+02  0.00000000000E+00 0.  1.
</event>
<event>
 7    1  0.2578619E-015  0.9000780E+02  0.7816164E-02  0.1186339E+00
        -11   -1    0    0    0    0  0.00000000000E+00  0.00000000000E+00  0.45593999997E+02  0.45594000000E+02  0.51100000000E-03 0. -1.
         11   -1    0    0    0    0 -0.00000000000E+00 -0.00000000000E+00 -0.45593999997E+02  0.45594000000E+02  0.51100000000E-03 0.  1.
    9900012    2    1    2    0    0 -0.54210890131E+00 -0.92588882320E+00 -0.49165403609E+00  0.90007798380E+02  0.90000060518E+02 0.  0.
        -12    1    1    2    0    0  0.54210890131E+00  0.92588882320E+00  0.49165403609E+00  0.11802016205E+01  0.00000000000E+00 0.  1.
         11    1    3    3    0    0  0.16202830500E+02  0.35443600664E+02 -0.31434801054E-01  0.38971547733E+02  0.51100000000E-03 0. -1.
        -11    1    3    3    0    0  0.58139569056E+00  0.55858606424E+01  0.45866713512E+00  0.56347347646E+01  0.51100000000E-03 0.  1.
        -12    1    3    3    0    0 -0.17326335092E+02 -0.41955350130E+02 -0.91888637016E+00  0.45401515882E+02  0.00000000000E+00 0.  1.
</event>
<event>
 7    1  0.2578619E-015  0.9000768E+02  0.7816164E-02  0.1186339E+00
        -11   -1    0    0    0    0  0.00000000000E+00  0.00000000000E+00  0.45593999997E+02  0.45594000000E+02  0.51100000000E-03 0.  1.
         11   -1    0    0    0    0 -0.00000000000E+00 -0.00000000000E+00 -0.45593999997E+02  0.45594000000E+02  0.51100000000E-03 0. -1.
    9900012    2    1    2    0    0  0.24113778135E+00  0.10344786987E+01 -0.51464392342E+00  0.90007681409E+02  0.89999942004E+02 0.  0.
        -12    1    1    2    0    0 -0.24113778135E+00 -0.10344786987E+01  0.51464392342E+00  0.11803185907E+01  0.00000000000E+00 0.  1.
         11    1    3    3    0    0 -0.32248176278E+01  0.24037315787E+02 -0.30244683161E+02  0.38767678016E+02  0.51100000000E-03 0. -1.
        -11    1    3    3    0    0  0.28450395133E+00 -0.53549894558E+01 -0.79043255570E+01  0.95517127963E+01  0.51100000000E-03 0.  1.
        -12    1    3    3    0    0  0.31814514579E+01 -0.17647847633E+02  0.37634364794E+02  0.41688290597E+02  0.00000000000E+00 0.  1.
</event>
<event>
 7    1  0.2578619E-015  0.9000778E+02  0.7816164E-02  0.1186339E+00
        -11   -1    0    0    0    0  0.00000000000E+00  0.00000000000E+00  0.45593999997E+02  0.45594000000E+02  0.51100000000E-03 0.  1.
         11   -1    0    0    0    0 -0.00000000000E+00 -0.00000000000E+00 -0.45593999997E+02  0.45594000000E+02  0.51100000000E-03 0. -1.
    9900012    2    1    2    0    0 -0.57479016774E+00 -0.10243494578E+01 -0.11513194567E+00  0.90007775058E+02  0.90000036889E+02 0.  0.
        -12    1    1    2    0    0  0.57479016774E+00  0.10243494578E+01  0.11513194567E+00  0.11802249419E+01  0.00000000000E+00 0.  1.
         11    1    3    3    0    0 -0.26924043529E+02 -0.40048959547E+01 -0.31950546494E+02  0.41973571841E+02  0.51100000000E-03 0. -1.
        -11    1    3    3    0    0  0.65508325013E+01  0.58663582387E+01 -0.17261245787E+01  0.89614213029E+01  0.51100000000E-03 0.  1.
        -12    1    3    3    0    0  0.19798420860E+02 -0.28858117418E+01  0.33561539127E+02  0.39072781914E+02  0.00000000000E+00 0.  1.
</event>
<event>
 7    1  0.3340471E-015  0.9000786E+02  0.7816164E-02  0.1186339E+00
        -11   -1    0    0    0    0  0.00000000000E+00  0.00000000000E+00  0.45593999997E+02  0.45594000000E+02  0.51100000000E-03 0.  1.
         11   -1    0    0    0    0 -0.00000000000E+00 -0.00000000000E+00 -0.45593999997E+02  0.45594000000E+02  0.51100000000E-03 0. -1.
    9900012    2    1    2    0    0 -0.58651160842E+00 -0.95498420543E+00 -0.36979019608E+00  0.90007857852E+02  0.90000120776E+02 0.  0.
        -12    1    1    2    0    0  0.58651160842E+00  0.95498420543E+00  0.36979019608E+00  0.11801421476E+01  0.00000000000E+00 0.  1.
         11    1    3    3    0    0  0.22390684567E+01 -0.73408300769E+01  0.57457820381E+01  0.95872428394E+01  0.51100000000E-03 0. -1.
        -11    1    3    3    0    0  0.93624431773E+01 -0.30555255975E+02 -0.21578188754E+02  0.38560306535E+02  0.51100000000E-03 0.  1.
         12    1    3    3    0    0 -0.12188023242E+02  0.36941101847E+02  0.15462616520E+02  0.41860308477E+02  0.00000000000E+00 0. -1.
</event>
<event>
 7    1  0.2578619E-015  0.9000767E+02  0.7816164E-02  0.1186339E+00
        -11   -1    0    0    0    0  0.00000000000E+00  0.00000000000E+00  0.45593999997E+02  0.45594000000E+02  0.51100000000E-03 0. -1.
         11   -1    0    0    0    0 -0.00000000000E+00 -0.00000000000E+00 -0.45593999997E+02  0.45594000000E+02  0.51100000000E-03 0.  1.
    9900012    2    1    2    0    0  0.25188525792E+00  0.11180476659E+01  0.28231429496E+00  0.90007670331E+02  0.89999930779E+02 0.  0.
        -12    1    1    2    0    0 -0.25188525792E+00 -0.11180476659E+01 -0.28231429496E+00  0.11803296690E+01  0.00000000000E+00 0.  1.
         11    1    3    3    0    0  0.24671610601E+01  0.12855455660E+01  0.96845784061E+01  0.10076237902E+02  0.51100000000E-03 0. -1.
        -11    1    3    3    0    0  0.30715958227E+02  0.18556436544E+02 -0.19342446685E+02  0.40766918831E+02  0.51100000000E-03 0.  1.
         12    1    3    3    0    0 -0.32931234029E+02 -0.18723934444E+02  0.99401825741E+01  0.39164513597E+02  0.00000000000E+00 0. -1.
</event>
<event>
 7    1  0.2578619E-015  0.9000775E+02  0.7816164E-02  0.1186339E+00
        -11   -1    0    0    0    0  0.00000000000E+00  0.00000000000E+00  0.45593999997E+02  0.45594000000E+02  0.51100000000E-03 0.  1.
         11   -1    0    0    0    0 -0.00000000000E+00 -0.00000000000E+00 -0.45593999997E+02  0.45594000000E+02  0.51100000000E-03 0. -1.
    9900012    2    1    2    0    0 -0.14999411232E+00  0.10140773708E+01 -0.58493503726E+00  0.90007745728E+02  0.90000007172E+02 0.  0.
        -12    1    1    2    0    0  0.14999411232E+00 -0.10140773708E+01  0.58493503726E+00  0.11802542716E+01  0.00000000000E+00 0.  1.
         11    1    3    3    0    0 -0.79916173001E+01  0.29646246873E+01  0.13131614147E+01  0.86243457589E+01  0.51100000000E-03 0. -1.
        -11    1    3    3    0    0 -0.11247878260E+01 -0.34420358517E+02  0.21290542023E+02  0.40488435485E+02  0.51100000000E-03 0.  1.
         12    1    3    3    0    0  0.89664110138E+01  0.32469811201E+02 -0.23188638475E+02  0.40894964485E+02  0.00000000000E+00 0. -1.
</event>
<event>
 7    1  0.2578619E-015  0.9000770E+02  0.7816164E-02  0.1186339E+00
        -11   -1    0    0    0    0  0.00000000000E+00  0.00000000000E+00  0.45593999997E+02  0.45594000000E+02  0.51100000000E-03 0. -1.
         11   -1    0    0    0    0 -0.00000000000E+00 -0.00000000000E+00 -0.45593999997E+02  0.45594000000E+02  0.51100000000E-03 0.  1.
    9900012    2    1    2    0    0 -0.99968461433E-01  0.10016725768E+01  0.61624914364E+00  0.90007701457E+02  0.89999962316E+02 0.  0.
        -12    1    1    2    0    0  0.99968461433E-01 -0.10016725768E+01 -0.61624914364E+00  0.11802985433E+01  0.00000000000E+00 0.  1.
         11    1    3    3    0    0  0.70773843137E+01  0.39273157289E+01  0.24278306930E+01  0.84502982015E+01  0.51100000000E-03 0. -1.
        -11    1    3    3    0    0  0.26574724039E+02 -0.20025298548E+02 -0.20781929787E+02  0.39231583521E+02  0.51100000000E-03 0.  1.
         12    1    3    3    0    0 -0.33752076814E+02  0.17099655396E+02  0.18970348237E+02  0.42325819734E+02  0.00000000000E+00 0. -1.
</event>
<event>
 7    1  0.2578619E-015  0.9000771E+02  0.7816164E-02  0.1186339E+00
        -11   -1    0    0    0    0  0.00000000000E+00  0.00000000000E+00  0.45593999997E+02  0.45594000000E+02  0.51100000000E-03 0.  1.
         11   -1    0    0    0    0 -0.00000000000E+00 -0.00000000000E+00 -0.45593999997E+02  0.45594000000E+02  0.51100000000E-03 0. -1.
    9900012    2    1    2    0    0  0.39122798307E+00 -0.72292154622E-01 -0.11112141917E+01  0.90007710853E+02  0.89999971836E+02 0.  0.
        -12    1    1    2    0    0 -0.39122798307E+00  0.72292154622E-01  0.11112141917E+01  0.11802891469E+01  0.00000000000E+00 0.  1.
         11    1    3    3    0    0  0.75134681818E+01 -0.15838511998E+01  0.53133632098E+01  0.93376987316E+01  0.51100000000E-03 0. -1.
        -11    1    3    3    0    0 -0.55025586542E+00 -0.38377292865E+02  0.48859398442E+01  0.38690978245E+02  0.51100000000E-03 0.  1.
         12    1    3    3    0    0 -0.65719843333E+01  0.39888851910E+02 -0.11310517246E+02  0.41979033876E+02  0.00000000000E+00 0. -1.
</event>
<event>
 7    1  0.2578619E-015  0.9000768E+02  0.7816164E-02  0.1186339E+00
        -11   -1    0    0    0    0  0.00000000000E+00  0.00000000000E+00  0.45593999997E+02  0.45594000000E+02  0.51100000000E-03 0.  1.
         11   -1    0    0    0    0 -0.00000000000E+00 -0.00000000000E+00 -0.45593999997E+02  0.45594000000E+02  0.51100000000E-03 0. -1.
    9900012    2    1    2    0    0 -0.30940149002E+00 -0.51902138608E+00 -0.10139284226E+01  0.90007676601E+02  0.89999937132E+02 0.  0.
        -12    1    1    2    0    0  0.30940149002E+00  0.51902138608E+00  0.10139284226E+01  0.11803233995E+01  0.00000000000E+00 0.  1.
         11    1    3    3    0    0  0.49233860135E+01 -0.83112327867E+01  0.73627756851E+01  0.12146060527E+02  0.51100000000E-03 0. -1.
        -11    1    3    3    0    0 -0.24043946320E+02 -0.26535094264E+02  0.57097765653E+01  0.36260503733E+02  0.51100000000E-03 0.  1.
         12    1    3    3    0    0  0.18811158817E+02  0.34327305665E+02 -0.14086480673E+02  0.41601112341E+02  0.00000000000E+00 0. -1.
</event>
<event>
 7    1  0.2578619E-015  0.9000788E+02  0.7816164E-02  0.1186339E+00
        -11   -1    0    0    0    0  0.00000000000E+00  0.00000000000E+00  0.45593999997E+02  0.45594000000E+02  0.51100000000E-03 0. -1.
         11   -1    0    0    0    0 -0.00000000000E+00 -0.00000000000E+00 -0.45593999997E+02  0.45594000000E+02  0.51100000000E-03 0.  1.
    9900012    2    1    2    0    0  0.66062089479E+00  0.62828464702E+00  0.74934365771E+00  0.90007882429E+02  0.90000145677E+02 0.  0.
        -12    1    1    2    0    0 -0.66062089479E+00 -0.62828464702E+00 -0.74934365771E+00  0.11801175711E+01  0.00000000000E+00 0.  1.
         11    1    3    3    0    0  0.73394509946E+01 -0.33586759252E+01 -0.65478783211E+01  0.10393409241E+02  0.51100000000E-03 0. -1.
        -11    1    3    3    0    0 -0.13524645296E+02 -0.23092193034E+02 -0.25203217320E+02  0.36760951743E+02  0.51100000000E-03 0.  1.
         12    1    3    3    0    0  0.68458151965E+01  0.27079153606E+02  0.32500439298E+02  0.42853521446E+02  0.00000000000E+00 0. -1.
</event>
<event>
 7    1  0.4107892E-015  0.9000801E+02  0.7816164E-02  0.1186339E+00
        -11   -1    0    0    0    0  0.00000000000E+00  0.00000000000E+00  0.45593999997E+02  0.45594000000E+02  0.51100000000E-03 0. -1.
         11   -1    0    0    0    0 -0.00000000000E+00 -0.00000000000E+00 -0.45593999997E+02  0.45594000000E+02  0.51100000000E-03 0.  1.
    9900012    2    1    2    0    0 -0.49478717941E+00  0.72608965334E-01  0.10687843320E+01  0.90008005778E+02  0.90000270654E+02 0.  0.
        -12    1    1    2    0    0  0.49478717941E+00 -0.72608965334E-01 -0.10687843320E+01  0.11799942217E+01  0.00000000000E+00 0.  1.
         11    1    3    3    0    0  0.51538545421E+01 -0.64107994445E+01 -0.44922473674E+01  0.93723451083E+01  0.51100000000E-03 0. -1.
        -11    1    3    3    0    0  0.28599211073E+02  0.11979084796E+02 -0.20568931133E+02  0.37208792977E+02  0.51100000000E-03 0.  1.
         12    1    3    3    0    0 -0.34247852795E+02 -0.54956763866E+01  0.26129962833E+02  0.43426867693E+02  0.00000000000E+00 0. -1.
</event>
<event>
 7    1  0.2578619E-015  0.9000771E+02  0.7816164E-02  0.1186339E+00
        -11   -1    0    0    0    0  0.00000000000E+00  0.00000000000E+00  0.45593999997E+02  0.45594000000E+02  0.51100000000E-03 0. -1.
         11   -1    0    0    0    0 -0.00000000000E+00 -0.00000000000E+00 -0.45593999997E+02  0.45594000000E+02  0.51100000000E-03 0.  1.
    9900012    2    1    2    0    0  0.44689642025E+00  0.10509432387E+01  0.29815158758E+00  0.90007706617E+02  0.89999967544E+02 0.  0.
        -12    1    1    2    0    0 -0.44689642025E+00 -0.10509432387E+01 -0.29815158758E+00  0.11802933833E+01  0.00000000000E+00 0.  1.
         11    1    3    3    0    0 -0.16220631114E+02  0.17993777046E+02  0.30283431181E+02  0.38781066134E+02  0.51100000000E-03 0. -1.
        -11    1    3    3    0    0  0.10851931381E+02  0.93469252545E+01 -0.76150211314E+01  0.16220911612E+02  0.51100000000E-03 0.  1.
        -12    1    3    3    0    0  0.58155961523E+01 -0.26289759062E+02 -0.22370258462E+02  0.35005728871E+02  0.00000000000E+00 0.  1.
</event>
<event>
 7    1  0.2578619E-015  0.9000768E+02  0.7816164E-02  0.1186339E+00
        -11   -1    0    0    0    0  0.00000000000E+00  0.00000000000E+00  0.45593999997E+02  0.45594000000E+02  0.51100000000E-03 0.  1.
         11   -1    0    0    0    0 -0.00000000000E+00 -0.00000000000E+00 -0.45593999997E+02  0.45594000000E+02  0.51100000000E-03 0. -1.
    9900012    2    1    2    0    0  0.13067189202E+00 -0.71321405341E+00 -0.93134849709E+00  0.90007678242E+02  0.89999938795E+02 0.  0.
        -12    1    1    2    0    0 -0.13067189202E+00  0.71321405341E+00  0.93134849709E+00  0.11803217580E+01  0.00000000000E+00 0.  1.
         11    1    3    3    0    0  0.38541018286E+01  0.41382817356E+01  0.11066259987E+02  0.12427452956E+02  0.51100000000E-03 0. -1.
        -11    1    3    3    0    0  0.30290060988E+02  0.17898462363E+02 -0.10151380954E+02  0.36618209748E+02  0.51100000000E-03 0.  1.
         12    1    3    3    0    0 -0.34013490925E+02 -0.22749958152E+02 -0.18462275303E+01  0.40962015537E+02  0.00000000000E+00 0. -1.
</event>
<event>
 7    1  0.2578619E-015  0.9000772E+02  0.7816164E-02  0.1186339E+00
        -11   -1    0    0    0    0  0.00000000000E+00  0.00000000000E+00  0.45593999997E+02  0.45594000000E+02  0.51100000000E-03 0. -1.
         11   -1    0    0    0    0 -0.00000000000E+00 -0.00000000000E+00 -0.45593999997E+02  0.45594000000E+02  0.51100000000E-03 0.  1.
    9900012    2    1    2    0    0  0.37755878562E+00  0.90565762442E+00 -0.65596352019E+00  0.90007722698E+02  0.89999983838E+02 0.  0.
        -12    1    1    2    0    0 -0.37755878562E+00 -0.90565762442E+00  0.65596352019E+00  0.11802773018E+01  0.00000000000E+00 0.  1.
         11    1    3    3    0    0  0.19345266606E+02  0.31442326030E+02  0.18569093116E+02  0.41323969142E+02  0.51100000000E-03 0. -1.
        -11    1    3    3    0    0 -0.78252796374E+01  0.37315112127E+01 -0.43571188222E+01  0.97027656895E+01  0.51100000000E-03 0.  1.
        -12    1    3    3    0    0 -0.11142428183E+02 -0.34268179619E+02 -0.14867937814E+02  0.38980987866E+02  0.00000000000E+00 0.  1.
</event>
<event>
 7    1  0.2578619E-015  0.9000775E+02  0.7816164E-02  0.1186339E+00
        -11   -1    0    0    0    0  0.00000000000E+00  0.00000000000E+00  0.45593999997E+02  0.45594000000E+02  0.51100000000E-03 0.  1.
         11   -1    0    0    0    0 -0.00000000000E+00 -0.00000000000E+00 -0.45593999997E+02  0.45594000000E+02  0.51100000000E-03 0. -1.
    9900012    2    1    2    0    0  0.85012905861E-01 -0.44247894373E+00 -0.10908599382E+01  0.90007749936E+02  0.90000011435E+02 0.  0.
        -12    1    1    2    0    0 -0.85012905861E-01  0.44247894373E+00  0.10908599382E+01  0.11802500644E+01  0.00000000000E+00 0.  1.
         11    1    3    3    0    0 -0.98375682641E+01 -0.56843148092E+01  0.46437655651E+01  0.12274108647E+02  0.51100000000E-03 0. -1.
        -11    1    3    3    0    0 -0.23148357987E+02 -0.20066477648E+02  0.11420771305E+02  0.32694709360E+02  0.51100000000E-03 0.  1.
         12    1    3    3    0    0  0.33070939157E+02  0.25308313513E+02 -0.17155396808E+02  0.45038931928E+02  0.00000000000E+00 0. -1.
</event>
<event>
 7    1  0.2578619E-015  0.9000779E+02  0.7816164E-02  0.1186339E+00
        -11   -1    0    0    0    0  0.00000000000E+00  0.00000000000E+00  0.45593999997E+02  0.45594000000E+02  0.51100000000E-03 0. -1.
         11   -1    0    0    0    0 -0.00000000000E+00 -0.00000000000E+00 -0.45593999997E+02  0.45594000000E+02  0.51100000000E-03 0.  1.
    9900012    2    1    2    0    0  0.58417406158E+00 -0.61111038703E+00  0.82352422883E+00  0.90007785022E+02  0.90000046984E+02 0.  0.
        -12    1    1    2    0    0 -0.58417406158E+00  0.61111038703E+00 -0.82352422883E+00  0.11802149782E+01  0.00000000000E+00 0.  1.
         11    1    3    3    0    0  0.94519249659E+01 -0.36877178549E+02 -0.13530329026E+02  0.40402165624E+02  0.51100000000E-03 0. -1.
        -11    1    3    3    0    0  0.45183306760E+01  0.16372281452E+01  0.11388919494E+02  0.12361363824E+02  0.51100000000E-03 0.  1.
        -12    1    3    3    0    0 -0.13386081580E+02  0.34628840017E+02  0.29649337612E+01  0.37244255573E+02  0.00000000000E+00 0.  1.
</event>
<event>
 7    1  0.2578619E-015  0.9000776E+02  0.7816164E-02  0.1186339E+00
        -11   -1    0    0    0    0  0.00000000000E+00  0.00000000000E+00  0.45593999997E+02  0.45594000000E+02  0.51100000000E-03 0. -1.
         11   -1    0    0    0    0 -0.00000000000E+00 -0.00000000000E+00 -0.45593999997E+02  0.45594000000E+02  0.51100000000E-03 0.  1.
    9900012    2    1    2    0    0 -0.17358682689E-01  0.39009411789E+00  0.11137701401E+01  0.90007763299E+02  0.90000024975E+02 0.  0.
        -12    1    1    2    0    0  0.17358682689E-01 -0.39009411789E+00 -0.11137701401E+01  0.11802367007E+01  0.00000000000E+00 0.  1.
         11    1    3    3    0    0  0.20243947260E+02 -0.73840557269E+01  0.27808252169E+02  0.35180116097E+02  0.51100000000E-03 0. -1.
        -11    1    3    3    0    0  0.12607842535E+00  0.67401194511E+00  0.11196886805E+02  0.11217863533E+02  0.51100000000E-03 0.  1.
        -12    1    3    3    0    0 -0.20387384368E+02  0.71001378997E+01 -0.37891368834E+02  0.43609783669E+02  0.00000000000E+00 0.  1.
</event>
<event>
 7    1  0.2578619E-015  0.9000780E+02  0.7816164E-02  0.1186339E+00
        -11   -1    0    0    0    0  0.00000000000E+00  0.00000000000E+00  0.45593999997E+02  0.45594000000E+02  0.51100000000E-03 0. -1.
         11   -1    0    0    0    0 -0.00000000000E+00 -0.00000000000E+00 -0.45593999997E+02  0.45594000000E+02  0.51100000000E-03 0.  1.
    9900012    2    1    2    0    0 -0.95385702307E+00 -0.68467175815E+00 -0.11939086647E+00  0.90007799671E+02  0.90000061827E+02 0.  0.
        -12    1    1    2    0    0  0.95385702307E+00  0.68467175815E+00  0.11939086647E+00  0.11802003287E+01  0.00000000000E+00 0.  1.
         11    1    3    3    0    0  0.19468590126E+02 -0.24107012082E+02  0.19535789895E+02  0.36630876595E+02  0.51100000000E-03 0. -1.
        -11    1    3    3    0    0  0.63083335899E+00 -0.90415780141E+01  0.16403535151E+01  0.92108003794E+01  0.51100000000E-03 0.  1.
        -12    1    3    3    0    0 -0.21053280508E+02  0.32463918338E+02 -0.21295534276E+02  0.44166122697E+02  0.00000000000E+00 0.  1.
</event>
<event>
 7    1  0.2578619E-015  0.9000778E+02  0.7816164E-02  0.1186339E+00
        -11   -1    0    0    0    0  0.00000000000E+00  0.00000000000E+00  0.45593999997E+02  0.45594000000E+02  0.51100000000E-03 0. -1.
         11   -1    0    0    0    0 -0.00000000000E+00 -0.00000000000E+00 -0.45593999997E+02  0.45594000000E+02  0.51100000000E-03 0.  1.
    9900012    2    1    2    0    0  0.23480665773E-01 -0.11506386945E+01  0.26151033005E+00  0.90007784596E+02  0.90000046553E+02 0.  0.
        -12    1    1    2    0    0 -0.23480665773E-01  0.11506386945E+01 -0.26151033005E+00  0.11802154039E+01  0.00000000000E+00 0.  1.
         11    1    3    3    0    0 -0.56816972574E+01 -0.89949226603E+01 -0.24559672291E+01  0.10918886971E+02  0.51100000000E-03 0. -1.
        -11    1    3    3    0    0 -0.67132955946E+01 -0.25711859687E+02 -0.22903037768E+02  0.35081579291E+02  0.51100000000E-03 0.  1.
         12    1    3    3    0    0  0.12418473518E+02  0.33556143653E+02  0.25620515327E+02  0.44007318334E+02  0.00000000000E+00 0. -1.
</event>
<event>
 7    1  0.2578619E-015  0.9000773E+02  0.7816164E-02  0.1186339E+00
        -11   -1    0    0    0    0  0.00000000000E+00  0.00000000000E+00  0.45593999997E+02  0.45594000000E+02  0.51100000000E-03 0.  1.
         11   -1    0    0    0    0 -0.00000000000E+00 -0.00000000000E+00 -0.45593999997E+02  0.45594000000E+02  0.51100000000E-03 0. -1.
    9900012    2    1    2    0    0  0.70649010245E+00 -0.94543524933E+00 -0.71014880655E-02  0.90007734561E+02  0.89999995857E+02 0.  0.
        -12    1    1    2    0    0 -0.70649010245E+00  0.94543524933E+00  0.71014880655E-02  0.11802654391E+01  0.00000000000E+00 0.  1.
         11    1    3    3    0    0 -0.25869796214E+02 -0.27126362577E+02  0.49934127270E+01  0.37815606219E+02  0.51100000000E-03 0. -1.
        -11    1    3    3    0    0 -0.75063690447E+01  0.28447462197E+01  0.53022607810E+01  0.96204015998E+01  0.51100000000E-03 0.  1.
        -12    1    3    3    0    0  0.34082655361E+02  0.23336181108E+02 -0.10302774996E+02  0.42571726742E+02  0.00000000000E+00 0.  1.
</event>
<event>
 7    1  0.2578619E-015  0.9000769E+02  0.7816164E-02  0.1186339E+00
        -11   -1    0    0    0    0  0.00000000000E+00  0.00000000000E+00  0.45593999997E+02  0.45594000000E+02  0.51100000000E-03 0. -1.
         11   -1    0    0    0    0 -0.00000000000E+00 -0.00000000000E+00 -0.45593999997E+02  0.45594000000E+02  0.51100000000E-03 0.  1.
    9900012    2    1    2    0    0  0.51072925917E+00 -0.93377037685E+00  0.51025026240E+00  0.90007692064E+02  0.89999952800E+02 0.  0.
        -12    1    1    2    0    0 -0.51072925917E+00  0.93377037685E+00 -0.51025026240E+00  0.11803079357E+01  0.00000000000E+00 0.  1.
         11    1    3    3    0    0  0.52479291893E+01  0.70733373865E+01  0.87781780113E+00  0.88511822325E+01  0.51100000000E-03 0. -1.
        -11    1    3    3    0    0  0.89992551401E+01 -0.80259435551E+01 -0.38648353064E+02  0.40485769820E+02  0.51100000000E-03 0.  1.
         12    1    3    3    0    0 -0.13736455070E+02  0.18835791668E-01  0.38280785526E+02  0.40670740012E+02  0.00000000000E+00 0. -1.
</event>
<event>
 7    1  0.2578619E-015  0.9000768E+02  0.7816164E-02  0.1186339E+00
        -11   -1    0    0    0    0  0.00000000000E+00  0.00000000000E+00  0.45593999997E+02  0.45594000000E+02  0.51100000000E-03 0. -1.
         11   -1    0    0    0    0 -0.00000000000E+00 -0.00000000000E+00 -0.45593999997E+02  0.45594000000E+02  0.51100000000E-03 0.  1.
    9900012    2    1    2    0    0  0.54308848683E+00  0.43001195284E-01  0.10470700753E+01  0.90007682267E+02  0.89999942873E+02 0.  0.
        -12    1    1    2    0    0 -0.54308848683E+00 -0.43001195284E-01 -0.10470700753E+01  0.11803177326E+01  0.00000000000E+00 0.  1.
         11    1    3    3    0    0 -0.25155409738E+02 -0.58152638615E+01  0.35210851540E+02  0.43662523968E+02  0.51100000000E-03 0. -1.
        -11    1    3    3    0    0  0.85701989098E+01  0.12040956133E+01 -0.97610119524E+00  0.87092439054E+01  0.51100000000E-03 0.  1.
        -12    1    3    3    0    0  0.17128299315E+02  0.46541694435E+01 -0.33187680269E+02  0.37635914394E+02  0.00000000000E+00 0.  1.
</event>
<event>
 7    1  0.2578619E-015  0.9000791E+02  0.7816164E-02  0.1186339E+00
        -11   -1    0    0    0    0  0.00000000000E+00  0.00000000000E+00  0.45593999997E+02  0.45594000000E+02  0.51100000000E-03 0.  1.
         11   -1    0    0    0    0 -0.00000000000E+00 -0.00000000000E+00 -0.45593999997E+02  0.45594000000E+02  0.51100000000E-03 0. -1.
    9900012    2    1    2    0    0 -0.85730644495E+00  0.40515407133E+00 -0.70249205780E+00  0.90007907100E+02  0.90000170673E+02 0.  0.
        -12    1    1    2    0    0  0.85730644495E+00 -0.40515407133E+00  0.70249205780E+00  0.11800929003E+01  0.00000000000E+00 0.  1.
         11    1    3    3    0    0 -0.32534511478E+02 -0.20106710737E+01 -0.82878266183E+01  0.33633693012E+02  0.51100000000E-03 0. -1.
        -11    1    3    3    0    0 -0.10951810582E+02 -0.12361994361E+01  0.79467264053E+01  0.13587523869E+02  0.51100000000E-03 0.  1.
        -12    1    3    3    0    0  0.42629015615E+02  0.36520245812E+01 -0.36139184480E+00  0.42786690219E+02  0.00000000000E+00 0.  1.
</event>
<event>
 7    1  0.2578619E-015  0.9000778E+02  0.7816164E-02  0.1186339E+00
        -11   -1    0    0    0    0  0.00000000000E+00  0.00000000000E+00  0.45593999997E+02  0.45594000000E+02  0.51100000000E-03 0.  1.
         11   -1    0    0    0    0 -0.00000000000E+00 -0.00000000000E+00 -0.45593999997E+02  0.45594000000E+02  0.51100000000E-03 0. -1.
    9900012    2    1    2    0    0  0.91647437854E+00 -0.69746521828E+00 -0.25792688158E+00  0.90007784217E+02  0.90000046169E+02 0.  0.
        -12    1    1    2    0    0 -0.91647437854E+00  0.69746521828E+00  0.25792688158E+00  0.11802157826E+01  0.00000000000E+00 0.  1.
         11    1    3    3    0    0  0.26715081324E+01 -0.69833087303E+01 -0.11443154957E+02  0.13669284990E+02  0.51100000000E-03 0. -1.
        -11    1    3    3    0    0 -0.28518266782E+02 -0.20537120374E+02 -0.42992626318E+01  0.35405487046E+02  0.51100000000E-03 0.  1.
         12    1    3    3    0    0  0.26763233028E+02  0.26822963886E+02  0.15484490707E+02  0.40933012181E+02  0.00000000000E+00 0. -1.
</event>
<event>
 7    1  0.2578619E-015  0.9000738E+02  0.7816164E-02  0.1186340E+00
        -11   -1    0    0    0    0  0.00000000000E+00  0.00000000000E+00  0.45593999997E+02  0.45594000000E+02  0.51100000000E-03 0. -1.
         11   -1    0    0    0    0 -0.00000000000E+00 -0.00000000000E+00 -0.45593999997E+02  0.45594000000E+02  0.51100000000E-03 0.  1.
    9900012    2    1    2    0    0  0.70282366454E+00  0.25165606737E+00  0.91463672872E+00  0.90007384811E+02  0.89999641489E+02 0.  0.
        -12    1    1    2    0    0 -0.70282366454E+00 -0.25165606737E+00 -0.91463672872E+00  0.11806151893E+01  0.00000000000E+00 0.  1.
         11    1    3    3    0    0  0.46047979683E+01  0.75849673046E+01 -0.24204422263E+01  0.91975232630E+01  0.51100000000E-03 0. -1.
        -11    1    3    3    0    0 -0.10694923095E+02  0.16162277271E+01 -0.37203041460E+02  0.38743513860E+02  0.51100000000E-03 0.  1.
         12    1    3    3    0    0  0.67929487909E+01 -0.89495389644E+01  0.40538120415E+02  0.42066347688E+02  0.00000000000E+00 0. -1.
</event>
<event>
 7    1  0.2578619E-015  0.9000775E+02  0.7816164E-02  0.1186339E+00
        -11   -1    0    0    0    0  0.00000000000E+00  0.00000000000E+00  0.45593999997E+02  0.45594000000E+02  0.51100000000E-03 0.  1.
         11   -1    0    0    0    0 -0.00000000000E+00 -0.00000000000E+00 -0.45593999997E+02  0.45594000000E+02  0.51100000000E-03 0. -1.
    9900012    2    1    2    0    0 -0.10499018867E+01  0.52680543700E+00  0.11472268307E+00  0.90007754587E+02  0.90000016148E+02 0.  0.
        -12    1    1    2    0    0  0.10499018867E+01 -0.52680543700E+00 -0.11472268307E+00  0.11802454127E+01  0.00000000000E+00 0.  1.
         11    1    3    3    0    0 -0.11489395997E+01 -0.51566409368E+01  0.71644776964E+01  0.89017272975E+01  0.51100000000E-03 0. -1.
        -11    1    3    3    0    0  0.23877378570E+02 -0.12497742210E+02  0.25347585767E+02  0.36997606304E+02  0.51100000000E-03 0.  1.
         12    1    3    3    0    0 -0.23778340857E+02  0.18181188584E+02 -0.32397340780E+02  0.44108420986E+02  0.00000000000E+00 0. -1.
</event>
<event>
 7    1  0.2578619E-015  0.9000778E+02  0.7816164E-02  0.1186339E+00
        -11   -1    0    0    0    0  0.00000000000E+00  0.00000000000E+00  0.45593999997E+02  0.45594000000E+02  0.51100000000E-03 0.  1.
         11   -1    0    0    0    0 -0.00000000000E+00 -0.00000000000E+00 -0.45593999997E+02  0.45594000000E+02  0.51100000000E-03 0. -1.
    9900012    2    1    2    0    0  0.70001162297E+00 -0.84368505527E+00 -0.43715807748E+00  0.90007776322E+02  0.90000038170E+02 0.  0.
        -12    1    1    2    0    0 -0.70001162297E+00  0.84368505527E+00  0.43715807748E+00  0.11802236777E+01  0.00000000000E+00 0.  1.
         11    1    3    3    0    0 -0.24739397077E+01  0.14917628023E+00  0.99861795065E+01  0.10289140520E+02  0.51100000000E-03 0. -1.
        -11    1    3    3    0    0 -0.24103422160E+01 -0.13213442714E+02  0.32273902825E+02  0.34957254208E+02  0.51100000000E-03 0.  1.
         12    1    3    3    0    0  0.55842935467E+01  0.12220581379E+02 -0.42697240409E+02  0.44761381594E+02  0.00000000000E+00 0. -1.
</event>
<event>
 7    1  0.2578619E-015  0.9000774E+02  0.7816164E-02  0.1186339E+00
        -11   -1    0    0    0    0  0.00000000000E+00  0.00000000000E+00  0.45593999997E+02  0.45594000000E+02  0.51100000000E-03 0.  1.
         11   -1    0    0    0    0 -0.00000000000E+00 -0.00000000000E+00 -0.45593999997E+02  0.45594000000E+02  0.51100000000E-03 0. -1.
    9900012    2    1    2    0    0  0.52902990665E+00 -0.71848595788E+00 -0.77260984919E+00  0.90007737024E+02  0.89999998353E+02 0.  0.
        -12    1    1    2    0    0 -0.52902990665E+00  0.71848595788E+00  0.77260984919E+00  0.11802629761E+01  0.00000000000E+00 0.  1.
         11    1    3    3    0    0 -0.48944066140E+01 -0.25447241961E+01  0.51754532319E+01  0.75641360217E+01  0.51100000000E-03 0. -1.
        -11    1    3    3    0    0 -0.24759861170E+02  0.60957371048E+01  0.27286132404E+02  0.37346241549E+02  0.51100000000E-03 0.  1.
         12    1    3    3    0    0  0.30183297691E+02 -0.42694988666E+01 -0.33234195486E+02  0.45097359453E+02  0.00000000000E+00 0. -1.
</event>
<event>
 7    1  0.2578619E-015  0.9000782E+02  0.7816164E-02  0.1186339E+00
        -11   -1    0    0    0    0  0.00000000000E+00  0.00000000000E+00  0.45593999997E+02  0.45594000000E+02  0.51100000000E-03 0. -1.
         11   -1    0    0    0    0 -0.00000000000E+00 -0.00000000000E+00 -0.45593999997E+02  0.45594000000E+02  0.51100000000E-03 0.  1.
    9900012    2    1    2    0    0  0.35830394799E+00 -0.11168906495E+01 -0.13039368257E+00  0.90007818254E+02  0.90000080654E+02 0.  0.
        -12    1    1    2    0    0 -0.35830394799E+00  0.11168906495E+01  0.13039368257E+00  0.11801817464E+01  0.00000000000E+00 0.  1.
         11    1    3    3    0    0 -0.15926913753E+02  0.52278956278E+01  0.56247973815E+01  0.17681510689E+02  0.51100000000E-03 0. -1.
        -11    1    3    3    0    0 -0.25941319920E+02 -0.11744809648E+02  0.37085209468E+01  0.28716646057E+02  0.51100000000E-03 0.  1.
         12    1    3    3    0    0  0.42226537621E+02  0.54000233704E+01 -0.94637120109E+01  0.43609661508E+02  0.00000000000E+00 0. -1.
</event>
<event>
 7    1  0.2578619E-015  0.9000769E+02  0.7816164E-02  0.1186339E+00
        -11   -1    0    0    0    0  0.00000000000E+00  0.00000000000E+00  0.45593999997E+02  0.45594000000E+02  0.51100000000E-03 0.  1.
         11   -1    0    0    0    0 -0.00000000000E+00 -0.00000000000E+00 -0.45593999997E+02  0.45594000000E+02  0.51100000000E-03 0. -1.
    9900012    2    1    2    0    0  0.56759880118E+00 -0.10261287864E+01 -0.13426896580E+00  0.90007687821E+02  0.89999948500E+02 0.  0.
        -12    1    1    2    0    0 -0.56759880118E+00  0.10261287864E+01  0.13426896580E+00  0.11803121792E+01  0.00000000000E+00 0.  1.
         11    1    3    3    0    0 -0.32635318456E+02 -0.14274746319E+02 -0.68665743110E+01  0.36276469457E+02  0.51100000000E-03 0. -1.
        -11    1    3    3    0    0 -0.58779836023E+01 -0.68968902590E+01 -0.89824839612E+00  0.91062965532E+01  0.51100000000E-03 0.  1.
        -12    1    3    3    0    0  0.39080900860E+02  0.20145507792E+02  0.76305537413E+01  0.44624921811E+02  0.00000000000E+00 0.  1.
</event>
<event>
 7    1  0.2578619E-015  0.9000761E+02  0.7816164E-02  0.1186339E+00
        -11   -1    0    0    0    0  0.00000000000E+00  0.00000000000E+00  0.45593999997E+02  0.45594000000E+02  0.51100000000E-03 0.  1.
         11   -1    0    0    0    0 -0.00000000000E+00 -0.00000000000E+00 -0.45593999997E+02  0.45594000000E+02  0.51100000000E-03 0. -1.
    9900012    2    1    2    0    0  0.65466644766E+00  0.32436405631E+00 -0.92710777888E+00  0.90007606408E+02  0.89999866012E+02 0.  0.
        -12    1    1    2    0    0 -0.65466644766E+00 -0.32436405631E+00  0.92710777888E+00  0.11803935922E+01  0.00000000000E+00 0.  1.
         11    1    3    3    0    0 -0.12835691179E+02  0.18372643652E+02 -0.36032842662E+02  0.42434358170E+02  0.51100000000E-03 0. -1.
        -11    1    3    3    0    0  0.72933650856E+00  0.46037056093E+01  0.11685872863E+02  0.12581162979E+02  0.51100000000E-03 0.  1.
        -12    1    3    3    0    0  0.12761021118E+02 -0.22651985205E+02  0.23419862020E+02  0.34992085259E+02  0.00000000000E+00 0.  1.
</event>
<event>
 7    1  0.2578619E-015  0.9000767E+02  0.7816164E-02  0.1186339E+00
        -11   -1    0    0    0    0  0.00000000000E+00  0.00000000000E+00  0.45593999997E+02  0.45594000000E+02  0.51100000000E-03 0. -1.
         11   -1    0    0    0    0 -0.00000000000E+00 -0.00000000000E+00 -0.45593999997E+02  0.45594000000E+02  0.51100000000E-03 0.  1.
    9900012    2    1    2    0    0  0.10219307195E+01 -0.52499953886E+00  0.27056008136E+00  0.90007673914E+02  0.89999934410E+02 0.  0.
        -12    1    1    2    0    0 -0.10219307195E+01  0.52499953886E+00 -0.27056008136E+00  0.11803260858E+01  0.00000000000E+00 0.  1.
         11    1    3    3    0    0  0.78061249635E+00 -0.55640043143E+00  0.96799829235E+01  0.97273329834E+01  0.51100000000E-03 0. -1.
        -11    1    3    3    0    0  0.28081318176E+02  0.26876856620E+02 -0.14041600441E+02  0.41329074457E+02  0.51100000000E-03 0.  1.
         12    1    3    3    0    0 -0.27839999953E+02 -0.26845455727E+02  0.46321775993E+01  0.38951266474E+02  0.00000000000E+00 0. -1.
</event>
<event>
 7    1  0.2578619E-015  0.9000755E+02  0.7816164E-02  0.1186339E+00
        -11   -1    0    0    0    0  0.00000000000E+00  0.00000000000E+00  0.45593999997E+02  0.45594000000E+02  0.51100000000E-03 0.  1.
         11   -1    0    0    0    0 -0.00000000000E+00 -0.00000000000E+00 -0.45593999997E+02  0.45594000000E+02  0.51100000000E-03 0. -1.
    9900012    2    1    2    0    0  0.55097711700E+00  0.82549333300E+00 -0.63909064939E+00  0.90007554370E+02  0.89999813288E+02 0.  0.
        -12    1    1    2    0    0 -0.55097711700E+00 -0.82549333300E+00  0.63909064939E+00  0.11804456296E+01  0.00000000000E+00 0.  1.
         11    1    3    3    0    0  0.27484422885E+02  0.28110695282E+02  0.75955174650E+01  0.40041186001E+02  0.51100000000E-03 0. -1.
        -11    1    3    3    0    0  0.61713710236E+01 -0.85074008879E+01 -0.53610769212E+01  0.11798425157E+02  0.51100000000E-03 0.  1.
        -12    1    3    3    0    0 -0.33104816792E+02 -0.18777801061E+02 -0.28735311932E+01  0.38167943212E+02  0.00000000000E+00 0.  1.
</event>
<event>
 7    1  0.2578619E-015  0.9000768E+02  0.7816164E-02  0.1186339E+00
        -11   -1    0    0    0    0  0.00000000000E+00  0.00000000000E+00  0.45593999997E+02  0.45594000000E+02  0.51100000000E-03 0.  1.
         11   -1    0    0    0    0 -0.00000000000E+00 -0.00000000000E+00 -0.45593999997E+02  0.45594000000E+02  0.51100000000E-03 0. -1.
    9900012    2    1    2    0    0 -0.84200743343E+00  0.10461495241E+00  0.82051308001E+00  0.90007676942E+02  0.89999937478E+02 0.  0.
        -12    1    1    2    0    0  0.84200743343E+00 -0.10461495241E+00 -0.82051308001E+00  0.11803230578E+01  0.00000000000E+00 0.  1.
         11    1    3    3    0    0  0.27722252884E+02 -0.18335068260E+02 -0.12081102901E+02  0.35364545531E+02  0.51100000000E-03 0. -1.
        -11    1    3    3    0    0  0.83570728558E+01 -0.13737362656E+01 -0.41173353472E+01  0.94170201586E+01  0.51100000000E-03 0.  1.
        -12    1    3    3    0    0 -0.36921333173E+02  0.19813419479E+02  0.17018951328E+02  0.45226111252E+02  0.00000000000E+00 0.  1.
</event>
<event>
 7    1  0.2578619E-015  0.9000748E+02  0.7816164E-02  0.1186340E+00
        -11   -1    0    0    0    0  0.00000000000E+00  0.00000000000E+00  0.45593999997E+02  0.45594000000E+02  0.51100000000E-03 0. -1.
         11   -1    0    0    0    0 -0.00000000000E+00 -0.00000000000E+00 -0.45593999997E+02  0.45594000000E+02  0.51100000000E-03 0.  1.
    9900012    2    1    2    0    0 -0.81899867461E+00 -0.81078157376E+00  0.25591420481E+00  0.90007484151E+02  0.89999742141E+02 0.  0.
        -12    1    1    2    0    0  0.81899867461E+00  0.81078157376E+00 -0.25591420481E+00  0.11805158489E+01  0.00000000000E+00 0.  1.
         11    1    3    3    0    0 -0.42816247477E+02 -0.85587084078E+01  0.35378639873E+01  0.43806381036E+02  0.51100000000E-03 0. -1.
        -11    1    3    3    0    0  0.82971176302E+01 -0.53717353768E+01  0.47282166503E-01  0.98843278878E+01  0.51100000000E-03 0.  1.
        -12    1    3    3    0    0  0.33700131172E+02  0.13119662211E+02 -0.33292319490E+01  0.36316775227E+02  0.00000000000E+00 0.  1.
</event>
<event>
 7    1  0.2578619E-015  0.9000785E+02  0.7816164E-02  0.1186339E+00
        -11   -1    0    0    0    0  0.00000000000E+00  0.00000000000E+00  0.45593999997E+02  0.45594000000E+02  0.51100000000E-03 0.  1.
         11   -1    0    0    0    0 -0.00000000000E+00 -0.00000000000E+00 -0.45593999997E+02  0.45594000000E+02  0.51100000000E-03 0. -1.
    9900012    2    1    2    0    0  0.36672694179E+00  0.30905537335E+00 -0.10783094890E+01  0.90007849489E+02  0.90000112303E+02 0.  0.
        -12    1    1    2    0    0 -0.36672694179E+00 -0.30905537335E+00  0.10783094890E+01  0.11801505106E+01  0.00000000000E+00 0.  1.
         11    1    3    3    0    0 -0.37047677015E+02  0.35142561494E+01  0.15693087486E+02  0.40387539707E+02  0.51100000000E-03 0. -1.
        -11    1    3    3    0    0  0.16124381568E+00  0.71575076562E+01 -0.63582043873E+01  0.95751072426E+01  0.51100000000E-03 0.  1.
        -12    1    3    3    0    0  0.37253160141E+02 -0.10362708432E+02 -0.10413192588E+02  0.40045202539E+02  0.00000000000E+00 0.  1.
</event>
<event>
 7    1  0.2578619E-015  0.9000783E+02  0.7816164E-02  0.1186339E+00
        -11   -1    0    0    0    0  0.00000000000E+00  0.00000000000E+00  0.45593999997E+02  0.45594000000E+02  0.51100000000E-03 0. -1.
         11   -1    0    0    0    0 -0.00000000000E+00 -0.00000000000E+00 -0.45593999997E+02  0.45594000000E+02  0.51100000000E-03 0.  1.
    9900012    2    1    2    0    0 -0.19336332407E+00  0.11102537974E+01  0.35035976897E+00  0.90007828471E+02  0.90000091007E+02 0.  0.
        -12    1    1    2    0    0  0.19336332407E+00 -0.11102537974E+01 -0.35035976897E+00  0.11801715289E+01  0.00000000000E+00 0.  1.
         11    1    3    3    0    0 -0.29832731857E+01 -0.48080201193E+01 -0.10755706460E+02  0.12153279314E+02  0.51100000000E-03 0. -1.
        -11    1    3    3    0    0  0.12471593191E+02 -0.31969802820E+02  0.17018595757E+02  0.38304588900E+02  0.51100000000E-03 0.  1.
         12    1    3    3    0    0 -0.96816833297E+01  0.37888076736E+02 -0.59125295272E+01  0.39549960256E+02  0.00000000000E+00 0. -1.
</event>
<event>
 7    1  0.2578619E-015  0.9000776E+02  0.7816164E-02  0.1186339E+00
        -11   -1    0    0    0    0  0.00000000000E+00  0.00000000000E+00  0.45593999997E+02  0.45594000000E+02  0.51100000000E-03 0. -1.
         11   -1    0    0    0    0 -0.00000000000E+00 -0.00000000000E+00 -0.45593999997E+02  0.45594000000E+02  0.51100000000E-03 0.  1.
    9900012    2    1    2    0    0  0.34483319435E+00 -0.11115817618E+00  0.11232583152E+01  0.90007756248E+02  0.90000017830E+02 0.  0.
        -12    1    1    2    0    0 -0.34483319435E+00  0.11115817618E+00 -0.11232583152E+01  0.11802437522E+01  0.00000000000E+00 0.  1.
         11    1    3    3    0    0  0.31423852651E+02 -0.11287043693E+01  0.13480808714E+02  0.34212054788E+02  0.51100000000E-03 0. -1.
        -11    1    3    3    0    0  0.85250056030E+01 -0.10110010757E+02 -0.20070074389E+01  0.13375952944E+02  0.51100000000E-03 0.  1.
        -12    1    3    3    0    0 -0.39604025059E+02  0.11127556950E+02 -0.10350542960E+02  0.42419748516E+02  0.00000000000E+00 0.  1.
</event>
<event>
 7    1  0.2578619E-015  0.9000772E+02  0.7816164E-02  0.1186339E+00
        -11   -1    0    0    0    0  0.00000000000E+00  0.00000000000E+00  0.45593999997E+02  0.45594000000E+02  0.51100000000E-03 0. -1.
         11   -1    0    0    0    0 -0.00000000000E+00 -0.00000000000E+00 -0.45593999997E+02  0.45594000000E+02  0.51100000000E-03 0.  1.
    9900012    2    1    2    0    0  0.66873143813E+00  0.76146619307E+00 -0.60499885499E+00  0.90007722018E+02  0.89999983149E+02 0.  0.
        -12    1    1    2    0    0 -0.66873143813E+00 -0.76146619307E+00  0.60499885499E+00  0.11802779817E+01  0.00000000000E+00 0.  1.
         11    1    3    3    0    0  0.92765388538E+01  0.33087502910E+01 -0.32506336770E+01  0.10371529355E+02  0.51100000000E-03 0. -1.
        -11    1    3    3    0    0  0.19288183921E+02 -0.24780806347E+02 -0.20141525644E+02  0.37306882176E+02  0.51100000000E-03 0.  1.
         12    1    3    3    0    0 -0.27895991336E+02  0.22233522249E+02  0.22787160466E+02  0.42329310487E+02  0.00000000000E+00 0. -1.
</event>
<event>
 7    1  0.2578619E-015  0.9000748E+02  0.7816164E-02  0.1186340E+00
        -11   -1    0    0    0    0  0.00000000000E+00  0.00000000000E+00  0.45593999997E+02  0.45594000000E+02  0.51100000000E-03 0.  1.
         11   -1    0    0    0    0 -0.00000000000E+00 -0.00000000000E+00 -0.45593999997E+02  0.45594000000E+02  0.51100000000E-03 0. -1.
    9900012    2    1    2    0    0 -0.45079323551E+00  0.10333754641E+01 -0.35007821137E+00  0.90007477173E+02  0.89999735071E+02 0.  0.
        -12    1    1    2    0    0  0.45079323551E+00 -0.10333754641E+01  0.35007821137E+00  0.11805228270E+01  0.00000000000E+00 0.  1.
         11    1    3    3    0    0 -0.88959121393E+01 -0.14287192472E+01 -0.30505172951E+00  0.90150733938E+01  0.51100000000E-03 0. -1.
        -11    1    3    3    0    0 -0.22155491750E+02 -0.25727753881E+02  0.14497137212E+02  0.36918154370E+02  0.51100000000E-03 0.  1.
         12    1    3    3    0    0  0.30600610654E+02  0.28189848593E+02 -0.14542163694E+02  0.44074249409E+02  0.00000000000E+00 0. -1.
</event>
<event>
 7    1  0.2578619E-015  0.9000770E+02  0.7816164E-02  0.1186339E+00
        -11   -1    0    0    0    0  0.00000000000E+00  0.00000000000E+00  0.45593999997E+02  0.45594000000E+02  0.51100000000E-03 0.  1.
         11   -1    0    0    0    0 -0.00000000000E+00 -0.00000000000E+00 -0.45593999997E+02  0.45594000000E+02  0.51100000000E-03 0. -1.
    9900012    2    1    2    0    0  0.10411815531E+00  0.35450712814E+00 -0.11209826653E+01  0.90007695789E+02  0.89999956574E+02 0.  0.
        -12    1    1    2    0    0 -0.10411815531E+00 -0.35450712814E+00  0.11209826653E+01  0.11803042108E+01  0.00000000000E+00 0.  1.
         11    1    3    3    0    0 -0.65399454573E+01  0.57580697152E+01  0.14884851206E+01  0.88397874208E+01  0.51100000000E-03 0. -1.
        -11    1    3    3    0    0  0.31502445871E+02  0.95072707349E+01 -0.27559047914E+02  0.42921945609E+02  0.51100000000E-03 0.  1.
         12    1    3    3    0    0 -0.24858382258E+02 -0.14910833322E+02  0.24949580128E+02  0.38245962760E+02  0.00000000000E+00 0. -1.
</event>
<event>
 7    1  0.3879394E-015  0.9000805E+02  0.7816164E-02  0.1186338E+00
        -11   -1    0    0    0    0  0.00000000000E+00  0.00000000000E+00  0.45593999997E+02  0.45594000000E+02  0.51100000000E-03 0. -1.
         11   -1    0    0    0    0 -0.00000000000E+00 -0.00000000000E+00 -0.45593999997E+02  0.45594000000E+02  0.51100000000E-03 0.  1.
    9900012    2    1    2    0    0  0.75726954991E-01  0.32449731999E+00  0.11319237754E+01  0.90008048935E+02  0.90000314380E+02 0.  0.
        -12    1    1    2    0    0 -0.75726954991E-01 -0.32449731999E+00 -0.11319237754E+01  0.11799510650E+01  0.00000000000E+00 0.  1.
         11    1    3    3    0    0 -0.32738144726E+01  0.31907136795E+01 -0.77556043686E+01  0.90026615158E+01  0.51100000000E-03 0. -1.
        -11    1    3    3    0    0 -0.83303130627E+01 -0.43690961967E+01 -0.34649601370E+02  0.35903732294E+02  0.51100000000E-03 0.  1.
         12    1    3    3    0    0  0.11679854490E+02  0.15028798372E+01  0.43537129514E+02  0.45101655125E+02  0.00000000000E+00 0. -1.
</event>
<event>
 7    1  0.2578619E-015  0.9000769E+02  0.7816164E-02  0.1186339E+00
        -11   -1    0    0    0    0  0.00000000000E+00  0.00000000000E+00  0.45593999997E+02  0.45594000000E+02  0.51100000000E-03 0.  1.
         11   -1    0    0    0    0 -0.00000000000E+00 -0.00000000000E+00 -0.45593999997E+02  0.45594000000E+02  0.51100000000E-03 0. -1.
    9900012    2    1    2    0    0 -0.42815154265E+00 -0.17803195300E+00 -0.10854115587E+01  0.90007691832E+02  0.89999952564E+02 0.  0.
        -12    1    1    2    0    0  0.42815154265E+00  0.17803195300E+00  0.10854115587E+01  0.11803081680E+01  0.00000000000E+00 0.  1.
         11    1    3    3    0    0 -0.29522682868E+02 -0.14470419051E+02 -0.29679941290E+01  0.33011979957E+02  0.51100000000E-03 0. -1.
        -11    1    3    3    0    0  0.55701518720E+01 -0.13137644522E+02  0.12880570127E+02  0.19223251091E+02  0.51100000000E-03 0.  1.
         12    1    3    3    0    0  0.23524379454E+02  0.27430031620E+02 -0.10997987557E+02  0.37772460784E+02  0.00000000000E+00 0. -1.
</event>
<event>
 7    1  0.2578619E-015  0.9000774E+02  0.7816164E-02  0.1186339E+00
        -11   -1    0    0    0    0  0.00000000000E+00  0.00000000000E+00  0.45593999997E+02  0.45594000000E+02  0.51100000000E-03 0. -1.
         11   -1    0    0    0    0 -0.00000000000E+00 -0.00000000000E+00 -0.45593999997E+02  0.45594000000E+02  0.51100000000E-03 0.  1.
    9900012    2    1    2    0    0  0.11263722338E+01  0.35247396553E+00  0.80691882140E-02  0.90007738412E+02  0.89999999759E+02 0.  0.
        -12    1    1    2    0    0 -0.11263722338E+01 -0.35247396553E+00 -0.80691882140E-02  0.11802615885E+01  0.00000000000E+00 0.  1.
         11    1    3    3    0    0 -0.22650225874E+02  0.88343516005E+01  0.30055120156E+02  0.38657324639E+02  0.51100000000E-03 0. -1.
        -11    1    3    3    0    0 -0.51369504315E+00  0.71199552321E+01  0.27567749814E+01  0.76522842122E+01  0.51100000000E-03 0.  1.
        -12    1    3    3    0    0  0.24290293151E+02 -0.15601832867E+02 -0.32803825949E+02  0.43698129561E+02  0.00000000000E+00 0.  1.
</event>
<event>
 7    1  0.2578619E-015  0.9000769E+02  0.7816164E-02  0.1186339E+00
        -11   -1    0    0    0    0  0.00000000000E+00  0.00000000000E+00  0.45593999997E+02  0.45594000000E+02  0.51100000000E-03 0. -1.
         11   -1    0    0    0    0 -0.00000000000E+00 -0.00000000000E+00 -0.45593999997E+02  0.45594000000E+02  0.51100000000E-03 0.  1.
    9900012    2    1    2    0    0 -0.45982639934E+00  0.84156724004E+00  0.68808611891E+00  0.90007687226E+02  0.89999947898E+02 0.  0.
        -12    1    1    2    0    0  0.45982639934E+00 -0.84156724004E+00 -0.68808611891E+00  0.11803127738E+01  0.00000000000E+00 0.  1.
         11    1    3    3    0    0  0.18043877425E+02  0.21041234022E+02  0.29766534056E+02  0.40673844073E+02  0.51100000000E-03 0. -1.
        -11    1    3    3    0    0 -0.13391014026E+00  0.69958073198E+01 -0.59451578278E+01  0.91817293491E+01  0.51100000000E-03 0.  1.
        -12    1    3    3    0    0 -0.18369793684E+02 -0.27195474102E+02 -0.23133290110E+02  0.40152113804E+02  0.00000000000E+00 0.  1.
</event>
<event>
 7    1  0.2578619E-015  0.9000775E+02  0.7816164E-02  0.1186339E+00
        -11   -1    0    0    0    0  0.00000000000E+00  0.00000000000E+00  0.45593999997E+02  0.45594000000E+02  0.51100000000E-03 0.  1.
         11   -1    0    0    0    0 -0.00000000000E+00 -0.00000000000E+00 -0.45593999997E+02  0.45594000000E+02  0.51100000000E-03 0. -1.
    9900012    2    1    2    0    0  0.36206107477E+00 -0.38755995499E+00  0.10543713774E+01  0.90007750051E+02  0.90000011552E+02 0.  0.
        -12    1    1    2    0    0 -0.36206107477E+00  0.38755995499E+00 -0.10543713774E+01  0.11802499490E+01  0.00000000000E+00 0.  1.
         11    1    3    3    0    0 -0.20532927129E+02 -0.20550625892E+02  0.21061947152E+02  0.35882237098E+02  0.51100000000E-03 0. -1.
        -11    1    3    3    0    0 -0.92636224602E+01  0.29634973765E+01  0.53801650975E+01  0.11114998629E+02  0.51100000000E-03 0.  1.
        -12    1    3    3    0    0  0.30158610664E+02  0.17199568561E+02 -0.25387740872E+02  0.43010514324E+02  0.00000000000E+00 0.  1.
</event>
<event>
 7    1  0.2578619E-015  0.9000772E+02  0.7816164E-02  0.1186339E+00
        -11   -1    0    0    0    0  0.00000000000E+00  0.00000000000E+00  0.45593999997E+02  0.45594000000E+02  0.51100000000E-03 0.  1.
         11   -1    0    0    0    0 -0.00000000000E+00 -0.00000000000E+00 -0.45593999997E+02  0.45594000000E+02  0.51100000000E-03 0. -1.
    9900012    2    1    2    0    0  0.10620032599E+01  0.33172203905E+00  0.39392854138E+00  0.90007716080E+02  0.89999977133E+02 0.  0.
        -12    1    1    2    0    0 -0.10620032599E+01 -0.33172203905E+00 -0.39392854138E+00  0.11802839196E+01  0.00000000000E+00 0.  1.
         11    1    3    3    0    0  0.14176056764E+02 -0.37114829479E+02 -0.31485546804E+00  0.39731225590E+02  0.51100000000E-03 0. -1.
        -11    1    3    3    0    0  0.58527013751E+01  0.23184742634E+01 -0.72160877952E+01  0.95760826868E+01  0.51100000000E-03 0.  1.
        -12    1    3    3    0    0 -0.18966754879E+02  0.35128077255E+02  0.79248718046E+01  0.40700407804E+02  0.00000000000E+00 0.  1.
</event>
<event>
 7    1  0.2578619E-015  0.9000765E+02  0.7816164E-02  0.1186339E+00
        -11   -1    0    0    0    0  0.00000000000E+00  0.00000000000E+00  0.45593999997E+02  0.45594000000E+02  0.51100000000E-03 0. -1.
         11   -1    0    0    0    0 -0.00000000000E+00 -0.00000000000E+00 -0.45593999997E+02  0.45594000000E+02  0.51100000000E-03 0.  1.
    9900012    2    1    2    0    0  0.67298781035E+00 -0.92287361499E+00  0.29767802120E+00  0.90007652379E+02  0.89999912590E+02 0.  0.
        -12    1    1    2    0    0 -0.67298781035E+00  0.92287361499E+00 -0.29767802120E+00  0.11803476210E+01  0.00000000000E+00 0.  1.
         11    1    3    3    0    0  0.42334650232E-01  0.27018904924E+02  0.26738829207E+02  0.38012997819E+02  0.51100000000E-03 0. -1.
        -11    1    3    3    0    0  0.71436154151E+00  0.83700601685E+01 -0.39625452420E+01  0.92881636878E+01  0.51100000000E-03 0.  1.
        -12    1    3    3    0    0 -0.83708381388E-01 -0.36311838708E+02 -0.22478605944E+02  0.42706490872E+02  0.00000000000E+00 0.  1.
</event>
<event>
 7    1  0.2578619E-015  0.9000766E+02  0.7816164E-02  0.1186339E+00
        -11   -1    0    0    0    0  0.00000000000E+00  0.00000000000E+00  0.45593999997E+02  0.45594000000E+02  0.51100000000E-03 0. -1.
         11   -1    0    0    0    0 -0.00000000000E+00 -0.00000000000E+00 -0.45593999997E+02  0.45594000000E+02  0.51100000000E-03 0.  1.
    9900012    2    1    2    0    0 -0.35605343464E+00  0.11233489485E+01 -0.67282491262E-01  0.90007655202E+02  0.89999915451E+02 0.  0.
        -12    1    1    2    0    0  0.35605343464E+00 -0.11233489485E+01  0.67282491262E-01  0.11803447979E+01  0.00000000000E+00 0.  1.
         11    1    3    3    0    0  0.24020394403E+02  0.31161399253E+02  0.38549241580E+01  0.39533183419E+02  0.51100000000E-03 0. -1.
        -11    1    3    3    0    0 -0.10288283712E+02  0.23216022768E+01  0.79826953575E+01  0.13227321887E+02  0.51100000000E-03 0.  1.
        -12    1    3    3    0    0 -0.14088164126E+02 -0.32359652581E+02 -0.11904902007E+02  0.37247149896E+02  0.00000000000E+00 0.  1.
</event>
<event>
 7    1  0.2578619E-015  0.9000778E+02  0.7816164E-02  0.1186339E+00
        -11   -1    0    0    0    0  0.00000000000E+00  0.00000000000E+00  0.45593999997E+02  0.45594000000E+02  0.51100000000E-03 0.  1.
         11   -1    0    0    0    0 -0.00000000000E+00 -0.00000000000E+00 -0.45593999997E+02  0.45594000000E+02  0.51100000000E-03 0. -1.
    9900012    2    1    2    0    0 -0.34910699029E+00 -0.69145913608E+00 -0.89045842626E+00  0.90007784919E+02  0.90000046880E+02 0.  0.
        -12    1    1    2    0    0  0.34910699029E+00  0.69145913608E+00  0.89045842626E+00  0.11802150806E+01  0.00000000000E+00 0.  1.
         11    1    3    3    0    0  0.94090914082E+01  0.26264088384E+02 -0.21980353385E+02  0.35517168735E+02  0.51100000000E-03 0. -1.
        -11    1    3    3    0    0 -0.35316222140E+01  0.96251681375E+01 -0.24573718266E+01  0.10543002120E+02  0.51100000000E-03 0.  1.
        -12    1    3    3    0    0 -0.62265761845E+01 -0.36580715657E+02  0.23547266785E+02  0.43947614065E+02  0.00000000000E+00 0.  1.
</event>
<event>
 7    1  0.2578619E-015  0.9000767E+02  0.7816164E-02  0.1186339E+00
        -11   -1    0    0    0    0  0.00000000000E+00  0.00000000000E+00  0.45593999997E+02  0.45594000000E+02  0.51100000000E-03 0. -1.
         11   -1    0    0    0    0 -0.00000000000E+00 -0.00000000000E+00 -0.45593999997E+02  0.45594000000E+02  0.51100000000E-03 0.  1.
    9900012    2    1    2    0    0  0.97836156689E+00 -0.34027801947E+00 -0.56585331913E+00  0.90007673577E+02  0.89999934068E+02 0.  0.
        -12    1    1    2    0    0 -0.97836156689E+00  0.34027801947E+00  0.56585331913E+00  0.11803264230E+01  0.00000000000E+00 0.  1.
         11    1    3    3    0    0  0.19612195988E+01  0.10003156383E+02  0.33753455497E+02  0.35259116242E+02  0.51100000000E-03 0. -1.
        -11    1    3    3    0    0  0.86131073111E+01 -0.20226818355E+00  0.70212013981E+01  0.11114126115E+02  0.51100000000E-03 0.  1.
        -12    1    3    3    0    0 -0.95959653430E+01 -0.10141166219E+02 -0.41340510214E+02  0.43634431220E+02  0.00000000000E+00 0.  1.
</event>
<event>
 7    1  0.2578619E-015  0.9000769E+02  0.7816164E-02  0.1186339E+00
        -11   -1    0    0    0    0  0.00000000000E+00  0.00000000000E+00  0.45593999997E+02  0.45594000000E+02  0.51100000000E-03 0.  1.
         11   -1    0    0    0    0 -0.00000000000E+00 -0.00000000000E+00 -0.45593999997E+02  0.45594000000E+02  0.51100000000E-03 0. -1.
    9900012    2    1    2    0    0  0.94716345326E+00  0.64543414843E+00  0.28182575963E+00  0.90007690885E+02  0.89999951605E+02 0.  0.
        -12    1    1    2    0    0 -0.94716345326E+00 -0.64543414843E+00 -0.28182575963E+00  0.11803091146E+01  0.00000000000E+00 0.  1.
         11    1    3    3    0    0  0.76538810960E+01 -0.16131311434E+02  0.20398181592E+01  0.17971142501E+02  0.51100000000E-03 0. -1.
        -11    1    3    3    0    0 -0.13761801314E+02 -0.21386379457E+02  0.15261042085E+02  0.29659126883E+02  0.51100000000E-03 0.  1.
        -12    1    3    3    0    0  0.70550836715E+01  0.38163125039E+02 -0.17019034484E+02  0.42377421502E+02  0.00000000000E+00 0.  1.
</event>
<event>
 7    1  0.2578619E-015  0.9000775E+02  0.7816164E-02  0.1186339E+00
        -11   -1    0    0    0    0  0.00000000000E+00  0.00000000000E+00  0.45593999997E+02  0.45594000000E+02  0.51100000000E-03 0. -1.
         11   -1    0    0    0    0 -0.00000000000E+00 -0.00000000000E+00 -0.45593999997E+02  0.45594000000E+02  0.51100000000E-03 0.  1.
    9900012    2    1    2    0    0 -0.75865463858E+00 -0.42950247687E+00  0.79559088990E+00  0.90007748289E+02  0.90000009766E+02 0.  0.
        -12    1    1    2    0    0  0.75865463858E+00  0.42950247687E+00 -0.79559088990E+00  0.11802517114E+01  0.00000000000E+00 0.  1.
         11    1    3    3    0    0  0.17886200711E+02 -0.14954884701E+02  0.19416030001E+02  0.30340517029E+02  0.51100000000E-03 0. -1.
        -11    1    3    3    0    0 -0.10864197548E+02 -0.63997777273E+01  0.14820817595E+02  0.19458791786E+02  0.51100000000E-03 0.  1.
        -12    1    3    3    0    0 -0.77806578017E+01  0.20925159952E+02 -0.33441256706E+02  0.40208439474E+02  0.00000000000E+00 0.  1.
</event>
<event>
 7    1  0.2578619E-015  0.9000775E+02  0.7816164E-02  0.1186339E+00
        -11   -1    0    0    0    0  0.00000000000E+00  0.00000000000E+00  0.45593999997E+02  0.45594000000E+02  0.51100000000E-03 0.  1.
         11   -1    0    0    0    0 -0.00000000000E+00 -0.00000000000E+00 -0.45593999997E+02  0.45594000000E+02  0.51100000000E-03 0. -1.
    9900012    2    1    2    0    0 -0.30761535767E+00 -0.12507198238E+00 -0.11325683360E+01  0.90007753736E+02  0.90000015285E+02 0.  0.
        -12    1    1    2    0    0  0.30761535767E+00  0.12507198238E+00  0.11325683360E+01  0.11802462644E+01  0.00000000000E+00 0.  1.
         11    1    3    3    0    0  0.22985629759E+02  0.27892799993E+02 -0.11524370781E+02  0.37936243739E+02  0.51100000000E-03 0. -1.
        -11    1    3    3    0    0 -0.31576965626E+01  0.46702519194E+01 -0.77704336460E+01  0.96001010349E+01  0.51100000000E-03 0.  1.
        -12    1    3    3    0    0 -0.20135548554E+02 -0.32688123895E+02  0.18162236091E+02  0.42471408961E+02  0.00000000000E+00 0.  1.
</event>
<event>
 7    1  0.2578619E-015  0.9000773E+02  0.7816164E-02  0.1186339E+00
        -11   -1    0    0    0    0  0.00000000000E+00  0.00000000000E+00  0.45593999997E+02  0.45594000000E+02  0.51100000000E-03 0. -1.
         11   -1    0    0    0    0 -0.00000000000E+00 -0.00000000000E+00 -0.45593999997E+02  0.45594000000E+02  0.51100000000E-03 0.  1.
    9900012    2    1    2    0    0  0.10545431030E+01 -0.20003161765E+00  0.49086847177E+00  0.90007734919E+02  0.89999996220E+02 0.  0.
        -12    1    1    2    0    0 -0.10545431030E+01  0.20003161765E+00 -0.49086847177E+00  0.11802650807E+01  0.00000000000E+00 0.  1.
         11    1    3    3    0    0 -0.21689688191E+01 -0.45196678122E+01 -0.50725545209E+01  0.71318042948E+01  0.51100000000E-03 0. -1.
        -11    1    3    3    0    0  0.10128878988E+02  0.10617076207E+02 -0.36735053909E+02  0.39557308841E+02  0.51100000000E-03 0.  1.
         12    1    3    3    0    0 -0.69053670657E+01 -0.62974400128E+01  0.42298476902E+02  0.43318621784E+02  0.00000000000E+00 0. -1.
</event>
<event>
 7    1  0.2578619E-015  0.9000778E+02  0.7816164E-02  0.1186339E+00
        -11   -1    0    0    0    0  0.00000000000E+00  0.00000000000E+00  0.45593999997E+02  0.45594000000E+02  0.51100000000E-03 0.  1.
         11   -1    0    0    0    0 -0.00000000000E+00 -0.00000000000E+00 -0.45593999997E+02  0.45594000000E+02  0.51100000000E-03 0. -1.
    9900012    2    1    2    0    0 -0.67268476778E+00 -0.36462497593E+00 -0.89858839052E+00  0.90007780840E+02  0.90000042747E+02 0.  0.
        -12    1    1    2    0    0  0.67268476778E+00  0.36462497593E+00  0.89858839052E+00  0.11802191599E+01  0.00000000000E+00 0.  1.
         11    1    3    3    0    0  0.76542531235E+01 -0.37631589272E+01  0.48285888378E+01  0.98012359636E+01  0.51100000000E-03 0. -1.
        -11    1    3    3    0    0  0.10371619284E+01 -0.37751378725E+02 -0.15329887985E+01  0.37796724136E+02  0.51100000000E-03 0.  1.
         12    1    3    3    0    0 -0.93640998197E+01  0.41149912676E+02 -0.41941884298E+01  0.42409820741E+02  0.00000000000E+00 0. -1.
</event>
<event>
 7    1  0.2578619E-015  0.9000768E+02  0.7816164E-02  0.1186339E+00
        -11   -1    0    0    0    0  0.00000000000E+00  0.00000000000E+00  0.45593999997E+02  0.45594000000E+02  0.51100000000E-03 0.  1.
         11   -1    0    0    0    0 -0.00000000000E+00 -0.00000000000E+00 -0.45593999997E+02  0.45594000000E+02  0.51100000000E-03 0. -1.
    9900012    2    1    2    0    0 -0.10728484667E+00  0.10169015149E+01  0.58954178453E+00  0.90007678753E+02  0.89999939313E+02 0.  0.
        -12    1    1    2    0    0  0.10728484667E+00 -0.10169015149E+01 -0.58954178453E+00  0.11803212465E+01  0.00000000000E+00 0.  1.
         11    1    3    3    0    0 -0.23575099942E+01 -0.77675844989E+01  0.33468191820E+01  0.87803428873E+01  0.51100000000E-03 0. -1.
        -11    1    3    3    0    0 -0.36176332026E+02 -0.11149105042E+02 -0.79352450166E-01  0.37855459833E+02  0.51100000000E-03 0.  1.
         12    1    3    3    0    0  0.38426557174E+02  0.19933591056E+02 -0.26779249473E+01  0.43371876033E+02  0.00000000000E+00 0. -1.
</event>
<event>
 7    1  0.2578619E-015  0.9000784E+02  0.7816164E-02  0.1186339E+00
        -11   -1    0    0    0    0  0.00000000000E+00  0.00000000000E+00  0.45593999997E+02  0.45594000000E+02  0.51100000000E-03 0.  1.
         11   -1    0    0    0    0 -0.00000000000E+00 -0.00000000000E+00 -0.45593999997E+02  0.45594000000E+02  0.51100000000E-03 0. -1.
    9900012    2    1    2    0    0 -0.10497327196E+01  0.40341675319E+00  0.35788964417E+00  0.90007843715E+02  0.90000106452E+02 0.  0.
        -12    1    1    2    0    0  0.10497327196E+01 -0.40341675319E+00 -0.35788964417E+00  0.11801562849E+01  0.00000000000E+00 0.  1.
         11    1    3    3    0    0 -0.95042691446E+01 -0.51660054956E+01 -0.86560318073E+01  0.13854444473E+02  0.51100000000E-03 0. -1.
        -11    1    3    3    0    0 -0.21349065676E+02 -0.16222544436E+02  0.24306712310E+02  0.36190742142E+02  0.51100000000E-03 0.  1.
         12    1    3    3    0    0  0.29803602101E+02  0.21791966685E+02 -0.15292790859E+02  0.39962657099E+02  0.00000000000E+00 0. -1.
</event>
<event>
 7    1  0.2578619E-015  0.9000773E+02  0.7816164E-02  0.1186339E+00
        -11   -1    0    0    0    0  0.00000000000E+00  0.00000000000E+00  0.45593999997E+02  0.45594000000E+02  0.51100000000E-03 0.  1.
         11   -1    0    0    0    0 -0.00000000000E+00 -0.00000000000E+00 -0.45593999997E+02  0.45594000000E+02  0.51100000000E-03 0. -1.
    9900012    2    1    2    0    0 -0.62237350563E+00 -0.84648666693E+00  0.53772516231E+00  0.90007730197E+02  0.89999991436E+02 0.  0.
        -12    1    1    2    0    0  0.62237350563E+00  0.84648666693E+00 -0.53772516231E+00  0.11802698030E+01  0.00000000000E+00 0.  1.
         11    1    3    3    0    0 -0.19529893211E+01  0.20784296596E+02 -0.20401768808E+02  0.29189609848E+02  0.51100000000E-03 0. -1.
        -11    1    3    3    0    0 -0.16278780549E+02  0.10473693849E+02  0.13095257287E+02  0.23370552469E+02  0.51100000000E-03 0.  1.
        -12    1    3    3    0    0  0.17609396365E+02 -0.32104477113E+02  0.78442366840E+01  0.37447567880E+02  0.00000000000E+00 0.  1.
</event>
<event>
 7    1  0.2578619E-015  0.9000782E+02  0.7816164E-02  0.1186339E+00
        -11   -1    0    0    0    0  0.00000000000E+00  0.00000000000E+00  0.45593999997E+02  0.45594000000E+02  0.51100000000E-03 0. -1.
         11   -1    0    0    0    0 -0.00000000000E+00 -0.00000000000E+00 -0.45593999997E+02  0.45594000000E+02  0.51100000000E-03 0.  1.
    9900012    2    1    2    0    0  0.11027677922E+01 -0.40453227474E+00 -0.11440496500E+00  0.90007817107E+02  0.90000079493E+02 0.  0.
        -12    1    1    2    0    0 -0.11027677922E+01  0.40453227474E+00  0.11440496500E+00  0.11801828929E+01  0.00000000000E+00 0.  1.
         11    1    3    3    0    0  0.27948474743E+02 -0.19313653254E+02  0.16718577056E+02  0.37863508310E+02  0.51100000000E-03 0. -1.
        -11    1    3    3    0    0  0.38032940974E+01 -0.77237485507E+01 -0.44666242880E+01  0.96990757528E+01  0.51100000000E-03 0.  1.
        -12    1    3    3    0    0 -0.30649001048E+02  0.26632869530E+02 -0.12366357733E+02  0.42445233045E+02  0.00000000000E+00 0.  1.
</event>
<event>
 7    1  0.2578619E-015  0.9000764E+02  0.7816164E-02  0.1186339E+00
        -11   -1    0    0    0    0  0.00000000000E+00  0.00000000000E+00  0.45593999997E+02  0.45594000000E+02  0.51100000000E-03 0.  1.
         11   -1    0    0    0    0 -0.00000000000E+00 -0.00000000000E+00 -0.45593999997E+02  0.45594000000E+02  0.51100000000E-03 0. -1.
    9900012    2    1    2    0    0 -0.20814225258E+00 -0.41137019175E+00 -0.10866033367E+01  0.90007637580E+02  0.89999897596E+02 0.  0.
        -12    1    1    2    0    0  0.20814225258E+00  0.41137019175E+00  0.10866033367E+01  0.11803624203E+01  0.00000000000E+00 0.  1.
         11    1    3    3    0    0  0.28213809409E+02  0.11039225999E+02  0.91318803057E+01  0.31642926385E+02  0.51100000000E-03 0. -1.
        -11    1    3    3    0    0 -0.40457011836E+00 -0.66621377587E+00  0.17492091143E+02  0.17509448038E+02  0.51100000000E-03 0.  1.
        -12    1    3    3    0    0 -0.28017381543E+02 -0.10784382415E+02 -0.27710574786E+02  0.40855263156E+02  0.00000000000E+00 0.  1.
</event>
<event>
 7    1  0.2578619E-015  0.9000768E+02  0.7816164E-02  0.1186339E+00
        -11   -1    0    0    0    0  0.00000000000E+00  0.00000000000E+00  0.45593999997E+02  0.45594000000E+02  0.51100000000E-03 0.  1.
         11   -1    0    0    0    0 -0.00000000000E+00 -0.00000000000E+00 -0.45593999997E+02  0.45594000000E+02  0.51100000000E-03 0. -1.
    9900012    2    1    2    0    0  0.65427039581E+00 -0.81326969406E+00 -0.55107206764E+00  0.90007678955E+02  0.89999939517E+02 0.  0.
        -12    1    1    2    0    0 -0.65427039581E+00  0.81326969406E+00  0.55107206764E+00  0.11803210452E+01  0.00000000000E+00 0.  1.
         11    1    3    3    0    0  0.18649486694E+02 -0.17425545261E+01 -0.32411352215E+02  0.37434417357E+02  0.51100000000E-03 0. -1.
        -11    1    3    3    0    0  0.58107859099E+01 -0.77996426446E+01 -0.23352792986E+01  0.10002659043E+02  0.51100000000E-03 0.  1.
        -12    1    3    3    0    0 -0.23806002208E+02  0.87289274765E+01  0.34195559446E+02  0.42570602554E+02  0.00000000000E+00 0.  1.
</event>
<event>
 7    1  0.2578619E-015  0.9000771E+02  0.7816164E-02  0.1186339E+00
        -11   -1    0    0    0    0  0.00000000000E+00  0.00000000000E+00  0.45593999997E+02  0.45594000000E+02  0.51100000000E-03 0.  1.
         11   -1    0    0    0    0 -0.00000000000E+00 -0.00000000000E+00 -0.45593999997E+02  0.45594000000E+02  0.51100000000E-03 0. -1.
    9900012    2    1    2    0    0 -0.11224429038E+01  0.36303776449E+00  0.37441540640E-01  0.90007713442E+02  0.89999974459E+02 0.  0.
        -12    1    1    2    0    0  0.11224429038E+01 -0.36303776449E+00 -0.37441540640E-01  0.11802865583E+01  0.00000000000E+00 0.  1.
         11    1    3    3    0    0 -0.31730656002E+01 -0.90009655952E+01 -0.13539389114E+01  0.96394438525E+01  0.51100000000E-03 0. -1.
        -11    1    3    3    0    0 -0.49139280130E+01 -0.20419380167E+02  0.31231641657E+02  0.37636594105E+02  0.51100000000E-03 0.  1.
         12    1    3    3    0    0  0.69645507093E+01  0.29783383527E+02 -0.29840261205E+02  0.42731675484E+02  0.00000000000E+00 0. -1.
</event>
<event>
 7    1  0.2578619E-015  0.9000758E+02  0.7816164E-02  0.1186339E+00
        -11   -1    0    0    0    0  0.00000000000E+00  0.00000000000E+00  0.45593999997E+02  0.45594000000E+02  0.51100000000E-03 0. -1.
         11   -1    0    0    0    0 -0.00000000000E+00 -0.00000000000E+00 -0.45593999997E+02  0.45594000000E+02  0.51100000000E-03 0.  1.
    9900012    2    1    2    0    0  0.97637643714E-01  0.11271893762E+01  0.33660873777E+00  0.90007578702E+02  0.89999837940E+02 0.  0.
        -12    1    1    2    0    0 -0.97637643714E-01 -0.11271893762E+01 -0.33660873777E+00  0.11804212983E+01  0.00000000000E+00 0.  1.
         11    1    3    3    0    0 -0.31739467018E+02 -0.52919554261E+00 -0.20745813798E+02  0.37921795908E+02  0.51100000000E-03 0. -1.
        -11    1    3    3    0    0 -0.18492331420E+01  0.11977017280E+02  0.30009235696E+01  0.12484956895E+02  0.51100000000E-03 0.  1.
        -12    1    3    3    0    0  0.33686337803E+02 -0.10320632361E+02  0.18081498966E+02  0.39600825898E+02  0.00000000000E+00 0.  1.
</event>
<event>
 7    1  0.2578619E-015  0.9000775E+02  0.7816164E-02  0.1186339E+00
        -11   -1    0    0    0    0  0.00000000000E+00  0.00000000000E+00  0.45593999997E+02  0.45594000000E+02  0.51100000000E-03 0. -1.
         11   -1    0    0    0    0 -0.00000000000E+00 -0.00000000000E+00 -0.45593999997E+02  0.45594000000E+02  0.51100000000E-03 0.  1.
    9900012    2    1    2    0    0 -0.10843821994E+01 -0.21266222968E+00 -0.41457942040E+00  0.90007751690E+02  0.90000013212E+02 0.  0.
        -12    1    1    2    0    0  0.10843821994E+01  0.21266222968E+00  0.41457942040E+00  0.11802483104E+01  0.00000000000E+00 0.  1.
         11    1    3    3    0    0 -0.65456788631E+01  0.71478818460E+01 -0.38384744039E+00  0.96997662746E+01  0.51100000000E-03 0. -1.
        -11    1    3    3    0    0 -0.25151574804E+02  0.20121550653E+02  0.16235014423E+02  0.36070129045E+02  0.51100000000E-03 0.  1.
         12    1    3    3    0    0  0.30612871467E+02 -0.27482094728E+02 -0.16265746403E+02  0.44237856370E+02  0.00000000000E+00 0. -1.
</event>
<event>
 7    1  0.2578619E-015  0.9000804E+02  0.7816164E-02  0.1186338E+00
        -11   -1    0    0    0    0  0.00000000000E+00  0.00000000000E+00  0.45593999997E+02  0.45594000000E+02  0.51100000000E-03 0.  1.
         11   -1    0    0    0    0 -0.00000000000E+00 -0.00000000000E+00 -0.45593999997E+02  0.45594000000E+02  0.51100000000E-03 0. -1.
    9900012    2    1    2    0    0  0.85055889196E+00 -0.79653915595E+00  0.18542494243E+00  0.90008039210E+02  0.90000304527E+02 0.  0.
        -12    1    1    2    0    0 -0.85055889196E+00  0.79653915595E+00 -0.18542494243E+00  0.11799607896E+01  0.00000000000E+00 0.  1.
         11    1    3    3    0    0 -0.28962164333E+02  0.53750990494E+01 -0.22353451556E+02  0.36978040096E+02  0.51100000000E-03 0. -1.
        -11    1    3    3    0    0 -0.86304773052E+01  0.14374584668E+01  0.30783281147E+01  0.92751026735E+01  0.51100000000E-03 0.  1.
        -12    1    3    3    0    0  0.38443200530E+02 -0.76090966722E+01  0.19460548383E+02  0.43754896441E+02  0.00000000000E+00 0.  1.
</event>
<event>
 7    1  0.2578619E-015  0.9000769E+02  0.7816164E-02  0.1186339E+00
        -11   -1    0    0    0    0  0.00000000000E+00  0.00000000000E+00  0.45593999997E+02  0.45594000000E+02  0.51100000000E-03 0.  1.
         11   -1    0    0    0    0 -0.00000000000E+00 -0.00000000000E+00 -0.45593999997E+02  0.45594000000E+02  0.51100000000E-03 0. -1.
    9900012    2    1    2    0    0 -0.25060249558E+00 -0.87939197937E+00 -0.74631847503E+00  0.90007693629E+02  0.89999954384E+02 0.  0.
        -12    1    1    2    0    0  0.25060249558E+00  0.87939197937E+00  0.74631847503E+00  0.11803063714E+01  0.00000000000E+00 0.  1.
         11    1    3    3    0    0 -0.92992274834E+01 -0.49527386944E+00  0.53827559814E+01  0.10756160570E+02  0.51100000000E-03 0. -1.
        -11    1    3    3    0    0  0.18158655105E+02  0.36044323380E+02 -0.97683588917E+01  0.41525303598E+02  0.51100000000E-03 0.  1.
         12    1    3    3    0    0 -0.91100301173E+01 -0.36428441490E+02  0.36392844353E+01  0.37726229461E+02  0.00000000000E+00 0. -1.
</event>
<event>
 7    1  0.2578619E-015  0.9000777E+02  0.7816164E-02  0.1186339E+00
        -11   -1    0    0    0    0  0.00000000000E+00  0.00000000000E+00  0.45593999997E+02  0.45594000000E+02  0.51100000000E-03 0. -1.
         11   -1    0    0    0    0 -0.00000000000E+00 -0.00000000000E+00 -0.45593999997E+02  0.45594000000E+02  0.51100000000E-03 0.  1.
    9900012    2    1    2    0    0 -0.82845900288E-02 -0.30093801269E-01  0.11798158534E+01  0.90007771328E+02  0.90000033109E+02 0.  0.
        -12    1    1    2    0    0  0.82845900288E-02  0.30093801269E-01 -0.11798158534E+01  0.11802286724E+01  0.00000000000E+00 0.  1.
         11    1    3    3    0    0  0.11015395271E+02 -0.78570990286E+00  0.34410809029E+01  0.11567078761E+02  0.51100000000E-03 0. -1.
        -11    1    3    3    0    0  0.25818472639E+02  0.11131137481E+02 -0.21696384162E+02  0.35513783760E+02  0.51100000000E-03 0.  1.
         12    1    3    3    0    0 -0.36842152500E+02 -0.10375521380E+02  0.19435119112E+02  0.42926908806E+02  0.00000000000E+00 0. -1.
</event>
<event>
 7    1  0.2578619E-015  0.9000771E+02  0.7816164E-02  0.1186339E+00
        -11   -1    0    0    0    0  0.00000000000E+00  0.00000000000E+00  0.45593999997E+02  0.45594000000E+02  0.51100000000E-03 0. -1.
         11   -1    0    0    0    0 -0.00000000000E+00 -0.00000000000E+00 -0.45593999997E+02  0.45594000000E+02  0.51100000000E-03 0.  1.
    9900012    2    1    2    0    0  0.11156561855E+01  0.46009313771E-01 -0.38245452351E+00  0.90007713152E+02  0.89999974166E+02 0.  0.
        -12    1    1    2    0    0 -0.11156561855E+01 -0.46009313771E-01  0.38245452351E+00  0.11802868481E+01  0.00000000000E+00 0.  1.
         11    1    3    3    0    0 -0.95675594406E+01  0.33144711463E+02 -0.10995092067E+02  0.36207763552E+02  0.51100000000E-03 0. -1.
        -11    1    3    3    0    0 -0.62011946298E+01  0.53487131993E+01 -0.42868981306E+01  0.92434324560E+01  0.51100000000E-03 0.  1.
        -12    1    3    3    0    0  0.16884410256E+02 -0.38447415349E+02  0.14899535674E+02  0.44556517144E+02  0.00000000000E+00 0.  1.
</event>
<event>
 7    1  0.2578619E-015  0.9000771E+02  0.7816164E-02  0.1186339E+00
        -11   -1    0    0    0    0  0.00000000000E+00  0.00000000000E+00  0.45593999997E+02  0.45594000000E+02  0.51100000000E-03 0. -1.
         11   -1    0    0    0    0 -0.00000000000E+00 -0.00000000000E+00 -0.45593999997E+02  0.45594000000E+02  0.51100000000E-03 0.  1.
    9900012    2    1    2    0    0 -0.88100997630E+00  0.59091289896E+00 -0.51742514616E+00  0.90007709606E+02  0.89999970573E+02 0.  0.
        -12    1    1    2    0    0  0.88100997630E+00 -0.59091289896E+00  0.51742514616E+00  0.11802903941E+01  0.00000000000E+00 0.  1.
         11    1    3    3    0    0  0.66408459444E+01 -0.57107858911E+01  0.16765412938E+01  0.89176623239E+01  0.51100000000E-03 0. -1.
        -11    1    3    3    0    0 -0.10765582003E+02  0.41580531917E+02 -0.11492366426E+02  0.44462488422E+02  0.51100000000E-03 0.  1.
         12    1    3    3    0    0  0.32437260825E+01 -0.35278833127E+02  0.92983999857E+01  0.36627558860E+02  0.00000000000E+00 0. -1.
</event>
<event>
 7    1  0.2578619E-015  0.9000777E+02  0.7816164E-02  0.1186339E+00
        -11   -1    0    0    0    0  0.00000000000E+00  0.00000000000E+00  0.45593999997E+02  0.45594000000E+02  0.51100000000E-03 0. -1.
         11   -1    0    0    0    0 -0.00000000000E+00 -0.00000000000E+00 -0.45593999997E+02  0.45594000000E+02  0.51100000000E-03 0.  1.
    9900012    2    1    2    0    0 -0.71833117984E-02 -0.11628749252E+01  0.20154380554E+00  0.90007767143E+02  0.90000028869E+02 0.  0.
        -12    1    1    2    0    0  0.71833117984E-02  0.11628749252E+01 -0.20154380554E+00  0.11802328572E+01  0.00000000000E+00 0.  1.
         11    1    3    3    0    0 -0.37078943658E+02 -0.97357389461E+00  0.94024254707E+01  0.38264886174E+02  0.51100000000E-03 0. -1.
        -11    1    3    3    0    0 -0.20360721289E+01  0.95524064767E+01  0.18759569450E+01  0.99455152672E+01  0.51100000000E-03 0.  1.
        -12    1    3    3    0    0  0.39107832475E+02 -0.97417075073E+01 -0.11076838610E+02  0.41797365702E+02  0.00000000000E+00 0.  1.
</event>
<event>
 7    1  0.2578619E-015  0.9000769E+02  0.7816164E-02  0.1186339E+00
        -11   -1    0    0    0    0  0.00000000000E+00  0.00000000000E+00  0.45593999997E+02  0.45594000000E+02  0.51100000000E-03 0. -1.
         11   -1    0    0    0    0 -0.00000000000E+00 -0.00000000000E+00 -0.45593999997E+02  0.45594000000E+02  0.51100000000E-03 0.  1.
    9900012    2    1    2    0    0 -0.69036935183E-01  0.21817523731E+00  0.11579175470E+01  0.90007686661E+02  0.89999947325E+02 0.  0.
        -12    1    1    2    0    0  0.69036935183E-01 -0.21817523731E+00 -0.11579175470E+01  0.11803133391E+01  0.00000000000E+00 0.  1.
         11    1    3    3    0    0  0.23156081542E+01 -0.37834395025E+02  0.56058276003E+01  0.38317473709E+02  0.51100000000E-03 0. -1.
        -11    1    3    3    0    0  0.22804659304E+01 -0.66604399479E+00  0.98657468108E+01  0.10147763293E+02  0.51100000000E-03 0.  1.
        -12    1    3    3    0    0 -0.46651110197E+01  0.38718614258E+02 -0.14313656864E+02  0.41542449659E+02  0.00000000000E+00 0.  1.
</event>
<event>
 7    1  0.2578619E-015  0.9000766E+02  0.7816164E-02  0.1186339E+00
        -11   -1    0    0    0    0  0.00000000000E+00  0.00000000000E+00  0.45593999997E+02  0.45594000000E+02  0.51100000000E-03 0. -1.
         11   -1    0    0    0    0 -0.00000000000E+00 -0.00000000000E+00 -0.45593999997E+02  0.45594000000E+02  0.51100000000E-03 0.  1.
    9900012    2    1    2    0    0  0.77485297695E-03  0.11684856137E+01 -0.16686903286E+00  0.90007659158E+02  0.89999919459E+02 0.  0.
        -12    1    1    2    0    0 -0.77485297695E-03 -0.11684856137E+01  0.16686903286E+00  0.11803408423E+01  0.00000000000E+00 0.  1.
         11    1    3    3    0    0 -0.32823447616E+01 -0.12073047858E+02  0.30745874059E+02  0.33193991077E+02  0.51100000000E-03 0. -1.
        -11    1    3    3    0    0 -0.47562200254E+01  0.37670095952E+01  0.11291455246E+02  0.12818305350E+02  0.51100000000E-03 0.  1.
        -12    1    3    3    0    0  0.80393396400E+01  0.94745238761E+01 -0.42204198337E+02  0.43995362731E+02  0.00000000000E+00 0.  1.
</event>
<event>
 7    1  0.2578619E-015  0.9000771E+02  0.7816164E-02  0.1186339E+00
        -11   -1    0    0    0    0  0.00000000000E+00  0.00000000000E+00  0.45593999997E+02  0.45594000000E+02  0.51100000000E-03 0. -1.
         11   -1    0    0    0    0 -0.00000000000E+00 -0.00000000000E+00 -0.45593999997E+02  0.45594000000E+02  0.51100000000E-03 0.  1.
    9900012    2    1    2    0    0 -0.29430796904E+00  0.10088850652E+01 -0.53722153737E+00  0.90007714765E+02  0.89999975800E+02 0.  0.
        -12    1    1    2    0    0  0.29430796904E+00 -0.10088850652E+01  0.53722153737E+00  0.11802852348E+01  0.00000000000E+00 0.  1.
         11    1    3    3    0    0  0.33046175150E+02 -0.61316144817E+01  0.65765406466E-02  0.33610213206E+02  0.51100000000E-03 0. -1.
        -11    1    3    3    0    0  0.51479084798E+01 -0.11907221224E+02 -0.32342243022E+01  0.13369483389E+02  0.51100000000E-03 0.  1.
        -12    1    3    3    0    0 -0.38488391599E+02  0.19047720770E+02  0.26904262242E+01  0.43028018171E+02  0.00000000000E+00 0.  1.
</event>
<event>
 7    1  0.2578619E-015  0.9000755E+02  0.7816164E-02  0.1186339E+00
        -11   -1    0    0    0    0  0.00000000000E+00  0.00000000000E+00  0.45593999997E+02  0.45594000000E+02  0.51100000000E-03 0.  1.
         11   -1    0    0    0    0 -0.00000000000E+00 -0.00000000000E+00 -0.45593999997E+02  0.45594000000E+02  0.51100000000E-03 0. -1.
    9900012    2    1    2    0    0  0.99152703145E+00  0.22709344778E+00 -0.59896765708E+00  0.90007551127E+02  0.89999810001E+02 0.  0.
        -12    1    1    2    0    0 -0.99152703145E+00 -0.22709344778E+00  0.59896765708E+00  0.11804488732E+01  0.00000000000E+00 0.  1.
         11    1    3    3    0    0  0.56756938528E+01 -0.11679765271E+02 -0.82151982035E+00  0.13011737493E+02  0.51100000000E-03 0. -1.
        -11    1    3    3    0    0 -0.19156366291E+02  0.47649401851E+01  0.34139118221E+02  0.39435395492E+02  0.51100000000E-03 0.  1.
         12    1    3    3    0    0  0.14472199470E+02  0.71419185341E+01 -0.33916566058E+02  0.37560418142E+02  0.00000000000E+00 0. -1.
</event>
<event>
 7    1  0.2578619E-015  0.9000780E+02  0.7816164E-02  0.1186339E+00
        -11   -1    0    0    0    0  0.00000000000E+00  0.00000000000E+00  0.45593999997E+02  0.45594000000E+02  0.51100000000E-03 0.  1.
         11   -1    0    0    0    0 -0.00000000000E+00 -0.00000000000E+00 -0.45593999997E+02  0.45594000000E+02  0.51100000000E-03 0. -1.
    9900012    2    1    2    0    0  0.19813498583E+00 -0.10956050672E+01 -0.39149318555E+00  0.90007798809E+02  0.90000060954E+02 0.  0.
        -12    1    1    2    0    0 -0.19813498583E+00  0.10956050672E+01  0.39149318555E+00  0.11802011905E+01  0.00000000000E+00 0.  1.
         11    1    3    3    0    0 -0.31958687583E+02 -0.64596495954E+01 -0.16991728799E+02  0.36766882282E+02  0.51100000000E-03 0. -1.
        -11    1    3    3    0    0 -0.84550249184E+01 -0.50554163917E+00 -0.11209873079E+01  0.85439821819E+01  0.51100000000E-03 0.  1.
        -12    1    3    3    0    0  0.40611847487E+02  0.58695861674E+01  0.17721222921E+02  0.44696934346E+02  0.00000000000E+00 0.  1.
</event>
<event>
 7    1  0.2578619E-015  0.9000713E+02  0.7816164E-02  0.1186340E+00
        -11   -1    0    0    0    0  0.00000000000E+00  0.00000000000E+00  0.45593999997E+02  0.45594000000E+02  0.51100000000E-03 0.  1.
         11   -1    0    0    0    0 -0.00000000000E+00 -0.00000000000E+00 -0.45593999997E+02  0.45594000000E+02  0.51100000000E-03 0. -1.
    9900012    2    1    2    0    0 -0.20231402239E+00  0.59450709150E+00 -0.10000406266E+01  0.90007131294E+02  0.89999384625E+02 0.  0.
        -12    1    1    2    0    0  0.20231402239E+00 -0.59450709150E+00  0.10000406266E+01  0.11808687058E+01  0.00000000000E+00 0.  1.
         11    1    3    3    0    0  0.31231016102E+01 -0.99766088810E+01 -0.34111289211E+00  0.10459581574E+02  0.51100000000E-03 0. -1.
        -11    1    3    3    0    0  0.18809548109E+02  0.28042048070E+01  0.33256473310E+02  0.38309994544E+02  0.51100000000E-03 0.  1.
         12    1    3    3    0    0 -0.22134963742E+02  0.77669111655E+01 -0.33915401045E+02  0.41237555176E+02  0.00000000000E+00 0. -1.
</event>
<event>
 7    1  0.2578619E-015  0.9000773E+02  0.7816164E-02  0.1186339E+00
        -11   -1    0    0    0    0  0.00000000000E+00  0.00000000000E+00  0.45593999997E+02  0.45594000000E+02  0.51100000000E-03 0.  1.
         11   -1    0    0    0    0 -0.00000000000E+00 -0.00000000000E+00 -0.45593999997E+02  0.45594000000E+02  0.51100000000E-03 0. -1.
    9900012    2    1    2    0    0  0.10083741254E+01  0.19408023026E+00 -0.58185882271E+00  0.90007726641E+02  0.89999987833E+02 0.  0.
        -12    1    1    2    0    0 -0.10083741254E+01 -0.19408023026E+00  0.58185882271E+00  0.11802733591E+01  0.00000000000E+00 0.  1.
         11    1    3    3    0    0  0.12785811385E+02 -0.14617157887E+02 -0.19177758183E+02  0.27293308459E+02  0.51100000000E-03 0. -1.
        -11    1    3    3    0    0  0.12995715032E+02 -0.15745656588E+02  0.43305456406E+01  0.20870264406E+02  0.51100000000E-03 0.  1.
        -12    1    3    3    0    0 -0.24773152291E+02  0.30556894706E+02  0.14265353719E+02  0.41844153776E+02  0.00000000000E+00 0.  1.
</event>
<event>
 7    1  0.2578619E-015  0.9000773E+02  0.7816164E-02  0.1186339E+00
        -11   -1    0    0    0    0  0.00000000000E+00  0.00000000000E+00  0.45593999997E+02  0.45594000000E+02  0.51100000000E-03 0. -1.
         11   -1    0    0    0    0 -0.00000000000E+00 -0.00000000000E+00 -0.45593999997E+02  0.45594000000E+02  0.51100000000E-03 0.  1.
    9900012    2    1    2    0    0  0.10198646429E+01 -0.59304610290E+00 -0.34798239153E-01  0.90007729485E+02  0.89999990715E+02 0.  0.
        -12    1    1    2    0    0 -0.10198646429E+01  0.59304610290E+00  0.34798239153E-01  0.11802705146E+01  0.00000000000E+00 0.  1.
         11    1    3    3    0    0  0.24111094312E+01 -0.10646308979E+02 -0.37298679738E+01  0.11535564960E+02  0.51100000000E-03 0. -1.
        -11    1    3    3    0    0  0.23958934766E+02  0.18280370755E+02 -0.25111640397E+02  0.39227503028E+02  0.51100000000E-03 0.  1.
         12    1    3    3    0    0 -0.25350179554E+02 -0.82271078787E+01  0.28806710132E+02  0.39244661498E+02  0.00000000000E+00 0. -1.
</event>
<event>
 7    1  0.2578619E-015  0.9000768E+02  0.7816164E-02  0.1186339E+00
        -11   -1    0    0    0    0  0.00000000000E+00  0.00000000000E+00  0.45593999997E+02  0.45594000000E+02  0.51100000000E-03 0. -1.
         11   -1    0    0    0    0 -0.00000000000E+00 -0.00000000000E+00 -0.45593999997E+02  0.45594000000E+02  0.51100000000E-03 0.  1.
    9900012    2    1    2    0    0  0.10923775326E+00  0.86269730043E+00  0.79811255546E+00  0.90007676667E+02  0.89999937199E+02 0.  0.
        -12    1    1    2    0    0 -0.10923775326E+00 -0.86269730043E+00 -0.79811255546E+00  0.11803233329E+01  0.00000000000E+00 0.  1.
         11    1    3    3    0    0  0.23123762549E+02  0.33787399806E+02  0.87844069761E+01  0.41874366697E+02  0.51100000000E-03 0. -1.
        -11    1    3    3    0    0 -0.84905577535E+01  0.26033810846E+01 -0.32648636890E+01  0.94618443872E+01  0.51100000000E-03 0.  1.
        -12    1    3    3    0    0 -0.14523967042E+02 -0.35528083590E+02 -0.47214307316E+01  0.38671465583E+02  0.00000000000E+00 0.  1.
</event>
<event>
 7    1  0.2578619E-015  0.9000768E+02  0.7816164E-02  0.1186339E+00
        -11   -1    0    0    0    0  0.00000000000E+00  0.00000000000E+00  0.45593999997E+02  0.45594000000E+02  0.51100000000E-03 0.  1.
         11   -1    0    0    0    0 -0.00000000000E+00 -0.00000000000E+00 -0.45593999997E+02  0.45594000000E+02  0.51100000000E-03 0. -1.
    9900012    2    1    2    0    0 -0.35136139574E+00 -0.55549564528E+00  0.98036810534E+00  0.90007681456E+02  0.89999942052E+02 0.  0.
        -12    1    1    2    0    0  0.35136139574E+00  0.55549564528E+00 -0.98036810534E+00  0.11803185436E+01  0.00000000000E+00 0.  1.
         11    1    3    3    0    0 -0.64540545012E+01  0.67469959076E+01  0.20284318255E+01  0.95546485657E+01  0.51100000000E-03 0. -1.
        -11    1    3    3    0    0  0.60406073341E+01 -0.29130897564E+02  0.30162866018E+02  0.42366220229E+02  0.51100000000E-03 0.  1.
         12    1    3    3    0    0  0.62085771312E-01  0.21828406011E+02 -0.31210929738E+02  0.38086812662E+02  0.00000000000E+00 0. -1.
</event>
<event>
 7    1  0.2578619E-015  0.9000770E+02  0.7816164E-02  0.1186339E+00
        -11   -1    0    0    0    0  0.00000000000E+00  0.00000000000E+00  0.45593999997E+02  0.45594000000E+02  0.51100000000E-03 0.  1.
         11   -1    0    0    0    0 -0.00000000000E+00 -0.00000000000E+00 -0.45593999997E+02  0.45594000000E+02  0.51100000000E-03 0. -1.
    9900012    2    1    2    0    0  0.93424875281E+00  0.57110618469E+00 -0.44058587376E+00  0.90007703885E+02  0.89999964777E+02 0.  0.
        -12    1    1    2    0    0 -0.93424875281E+00 -0.57110618469E+00  0.44058587376E+00  0.11802961147E+01  0.00000000000E+00 0.  1.
         11    1    3    3    0    0  0.18027828257E+00  0.72915552330E+01 -0.47021996258E+01  0.86781311097E+01  0.51100000000E-03 0. -1.
        -11    1    3    3    0    0 -0.90161664814E+01  0.24518252884E+02  0.29935167898E+02  0.39730973557E+02  0.51100000000E-03 0.  1.
         12    1    3    3    0    0  0.97701369517E+01 -0.31238701932E+02 -0.25673554146E+02  0.41598599218E+02  0.00000000000E+00 0. -1.
</event>
<event>
 7    1  0.2578619E-015  0.9000773E+02  0.7816164E-02  0.1186339E+00
        -11   -1    0    0    0    0  0.00000000000E+00  0.00000000000E+00  0.45593999997E+02  0.45594000000E+02  0.51100000000E-03 0.  1.
         11   -1    0    0    0    0 -0.00000000000E+00 -0.00000000000E+00 -0.45593999997E+02  0.45594000000E+02  0.51100000000E-03 0. -1.
    9900012    2    1    2    0    0 -0.51547779966E-01  0.83772671111E+00 -0.82981515223E+00  0.90007730369E+02  0.89999991609E+02 0.  0.
        -12    1    1    2    0    0  0.51547779966E-01 -0.83772671111E+00  0.82981515223E+00  0.11802696315E+01  0.00000000000E+00 0.  1.
         11    1    3    3    0    0  0.71547112649E+01  0.24370440611E+01 -0.33458931855E+01  0.82658380403E+01  0.51100000000E-03 0. -1.
        -11    1    3    3    0    0  0.32264043722E+02  0.16556182266E+02 -0.77884477852E+01  0.37090910041E+02  0.51100000000E-03 0.  1.
         12    1    3    3    0    0 -0.39470302767E+02 -0.18155499616E+02  0.10304525818E+02  0.44650982287E+02  0.00000000000E+00 0. -1.
</event>
<event>
 7    1  0.2578619E-015  0.9000748E+02  0.7816164E-02  0.1186340E+00
        -11   -1    0    0    0    0  0.00000000000E+00  0.00000000000E+00  0.45593999997E+02  0.45594000000E+02  0.51100000000E-03 0.  1.
         11   -1    0    0    0    0 -0.00000000000E+00 -0.00000000000E+00 -0.45593999997E+02  0.45594000000E+02  0.51100000000E-03 0. -1.
    9900012    2    1    2    0    0  0.95585387952E+00  0.36604572144E+00 -0.58819627971E+00  0.90007482752E+02  0.89999740724E+02 0.  0.
        -12    1    1    2    0    0 -0.95585387952E+00 -0.36604572144E+00  0.58819627971E+00  0.11805172479E+01  0.00000000000E+00 0.  1.
         11    1    3    3    0    0  0.60713585929E+01  0.53680439488E+01  0.37948398877E+01  0.89486368254E+01  0.51100000000E-03 0. -1.
        -11    1    3    3    0    0  0.20937913269E+02  0.15996345871E+02  0.25152013156E+02  0.36426680597E+02  0.51100000000E-03 0.  1.
         12    1    3    3    0    0 -0.26053417982E+02 -0.20998344098E+02 -0.29535049323E+02  0.44632165329E+02  0.00000000000E+00 0. -1.
</event>
<event>
 7    1  0.2578619E-015  0.9000769E+02  0.7816164E-02  0.1186339E+00
        -11   -1    0    0    0    0  0.00000000000E+00  0.00000000000E+00  0.45593999997E+02  0.45594000000E+02  0.51100000000E-03 0. -1.
         11   -1    0    0    0    0 -0.00000000000E+00 -0.00000000000E+00 -0.45593999997E+02  0.45594000000E+02  0.51100000000E-03 0.  1.
    9900012    2    1    2    0    0  0.58225444896E+00  0.97970634757E+00  0.30706421551E+00  0.90007689362E+02  0.89999950061E+02 0.  0.
        -12    1    1    2    0    0 -0.58225444896E+00 -0.97970634757E+00 -0.30706421551E+00  0.11803106385E+01  0.00000000000E+00 0.  1.
         11    1    3    3    0    0 -0.19104543657E+01  0.86491355791E+01  0.53470084095E+01  0.10346394606E+02  0.51100000000E-03 0. -1.
        -11    1    3    3    0    0  0.19117066200E+02  0.13826264736E+02 -0.33068718278E+02  0.40622259236E+02  0.51100000000E-03 0.  1.
         12    1    3    3    0    0 -0.16624357386E+02 -0.21495693967E+02  0.28028774084E+02  0.39039035519E+02  0.00000000000E+00 0. -1.
</event>
<event>
 7    1  0.2578619E-015  0.9000768E+02  0.7816164E-02  0.1186339E+00
        -11   -1    0    0    0    0  0.00000000000E+00  0.00000000000E+00  0.45593999997E+02  0.45594000000E+02  0.51100000000E-03 0.  1.
         11   -1    0    0    0    0 -0.00000000000E+00 -0.00000000000E+00 -0.45593999997E+02  0.45594000000E+02  0.51100000000E-03 0. -1.
    9900012    2    1    2    0    0  0.47829646757E+00  0.10782044059E+01 -0.43256656391E-01  0.90007676574E+02  0.89999937105E+02 0.  0.
        -12    1    1    2    0    0 -0.47829646757E+00 -0.10782044059E+01  0.43256656391E-01  0.11803234261E+01  0.00000000000E+00 0.  1.
         11    1    3    3    0    0  0.80931871391E+01 -0.37957755202E+01  0.22579556645E+00  0.89419558133E+01  0.51100000000E-03 0. -1.
        -11    1    3    3    0    0 -0.61774677866E+01 -0.11821952975E+02  0.37470014377E+02  0.39773378761E+02  0.51100000000E-03 0.  1.
         12    1    3    3    0    0 -0.14374228849E+01  0.16695932901E+02 -0.37739066600E+02  0.41292342000E+02  0.00000000000E+00 0. -1.
</event>
<event>
 8    1  0.2578619E-015  0.9000764E+02  0.7816164E-02  0.1186339E+00
        -11   -1    0    0    0    0  0.00000000000E+00  0.00000000000E+00  0.45593999997E+02  0.45594000000E+02  0.51100000000E-03 0. -1.
         11   -1    0    0    0    0 -0.00000000000E+00 -0.00000000000E+00 -0.45593999997E+02  0.45594000000E+02  0.51100000000E-03 0.  1.
    9900012    2    1    2    0    0  0.46183212002E+00 -0.79733955740E+00  0.73771131042E+00  0.90007636813E+02  0.89999896818E+02 0.  0.
         23    2    3    3    0    0 -0.91034270177E+01  0.24332815620E+02  0.10349162361E+02  0.61452446866E+02  0.54720560713E+02 0.  0.
        -12    1    1    2    0    0 -0.46183212002E+00  0.79733955740E+00 -0.73771131042E+00  0.11803631875E+01  0.00000000000E+00 0.  1.
         11    1    4    4    0    0 -0.94289196343E+01 -0.16715757017E+02  0.31621994924E+00  0.19194297419E+02  0.51100000000E-03 0. -1.
        -11    1    4    4    0    0  0.32549261656E+00  0.41048572636E+02  0.10032942412E+02  0.42258149446E+02  0.51100000000E-03 0.  1.
         12    1    3    3    0    0  0.95652591378E+01 -0.25130155177E+02 -0.96114510505E+01  0.28555189947E+02  0.00000000000E+00 0. -1.
</event>
<event>
 7    1  0.2578619E-015  0.9000770E+02  0.7816164E-02  0.1186339E+00
        -11   -1    0    0    0    0  0.00000000000E+00  0.00000000000E+00  0.45593999997E+02  0.45594000000E+02  0.51100000000E-03 0. -1.
         11   -1    0    0    0    0 -0.00000000000E+00 -0.00000000000E+00 -0.45593999997E+02  0.45594000000E+02  0.51100000000E-03 0.  1.
    9900012    2    1    2    0    0 -0.17441173685E+00  0.84874025421E+00 -0.80145568484E+00  0.90007698900E+02  0.89999959725E+02 0.  0.
        -12    1    1    2    0    0  0.17441173685E+00 -0.84874025421E+00  0.80145568484E+00  0.11803011005E+01  0.00000000000E+00 0.  1.
         11    1    3    3    0    0  0.12658200231E+02  0.26255635114E+02  0.25474754442E+02  0.38711129182E+02  0.51100000000E-03 0. -1.
        -11    1    3    3    0    0 -0.74691926825E+01  0.57134623943E+01  0.11453042581E+01  0.94733422805E+01  0.51100000000E-03 0.  1.
        -12    1    3    3    0    0 -0.53634192858E+01 -0.31120357254E+02 -0.27421514385E+02  0.41823227437E+02  0.00000000000E+00 0.  1.
</event>
<event>
 7    1  0.2578619E-015  0.9000778E+02  0.7816164E-02  0.1186339E+00
        -11   -1    0    0    0    0  0.00000000000E+00  0.00000000000E+00  0.45593999997E+02  0.45594000000E+02  0.51100000000E-03 0.  1.
         11   -1    0    0    0    0 -0.00000000000E+00 -0.00000000000E+00 -0.45593999997E+02  0.45594000000E+02  0.51100000000E-03 0. -1.
    9900012    2    1    2    0    0 -0.57657394064E+00  0.88505891797E+00 -0.52646127875E+00  0.90007776176E+02  0.90000038021E+02 0.  0.
        -12    1    1    2    0    0  0.57657394064E+00 -0.88505891797E+00  0.52646127875E+00  0.11802238242E+01  0.00000000000E+00 0.  1.
         11    1    3    3    0    0 -0.11189835205E+02 -0.36935234381E+02 -0.24867892812E+01  0.38673092350E+02  0.51100000000E-03 0. -1.
        -11    1    3    3    0    0 -0.91293083764E+01  0.59990639145E+00  0.84101111594E+00  0.91875709014E+01  0.51100000000E-03 0.  1.
        -12    1    3    3    0    0  0.19742569641E+02  0.37220386908E+02  0.11193168865E+01  0.42147112925E+02  0.00000000000E+00 0.  1.
</event>
<event>
 7    1  0.2578619E-015  0.9000748E+02  0.7816164E-02  0.1186340E+00
        -11   -1    0    0    0    0  0.00000000000E+00  0.00000000000E+00  0.45593999997E+02  0.45594000000E+02  0.51100000000E-03 0.  1.
         11   -1    0    0    0    0 -0.00000000000E+00 -0.00000000000E+00 -0.45593999997E+02  0.45594000000E+02  0.51100000000E-03 0. -1.
    9900012    2    1    2    0    0  0.67948323932E+00 -0.56604544432E+00 -0.78200292408E+00  0.90007477450E+02  0.89999735352E+02 0.  0.
        -12    1    1    2    0    0 -0.67948323932E+00  0.56604544432E+00  0.78200292408E+00  0.11805225499E+01  0.00000000000E+00 0.  1.
         11    1    3    3    0    0  0.65953800445E+01  0.53759079614E+01  0.40235965743E+01  0.94121599006E+01  0.51100000000E-03 0. -1.
        -11    1    3    3    0    0  0.33302594493E+02 -0.18812867129E+01 -0.19359605115E+02  0.38566777803E+02  0.51100000000E-03 0.  1.
         12    1    3    3    0    0 -0.39218491298E+02 -0.40606666928E+01  0.14554005617E+02  0.42028539746E+02  0.00000000000E+00 0. -1.
</event>
<event>
 7    1  0.2578619E-015  0.9000773E+02  0.7816164E-02  0.1186339E+00
        -11   -1    0    0    0    0  0.00000000000E+00  0.00000000000E+00  0.45593999997E+02  0.45594000000E+02  0.51100000000E-03 0.  1.
         11   -1    0    0    0    0 -0.00000000000E+00 -0.00000000000E+00 -0.45593999997E+02  0.45594000000E+02  0.51100000000E-03 0. -1.
    9900012    2    1    2    0    0  0.42428920560E+00 -0.68387803661E+00 -0.86332206743E+00  0.90007730755E+02  0.89999992001E+02 0.  0.
        -12    1    1    2    0    0 -0.42428920560E+00  0.68387803661E+00  0.86332206743E+00  0.11802692452E+01  0.00000000000E+00 0.  1.
         11    1    3    3    0    0 -0.13395283002E+02 -0.15950444277E+02 -0.29330753966E+02  0.35974204756E+02  0.51100000000E-03 0. -1.
        -11    1    3    3    0    0  0.89606638793E+01 -0.13634670777E+02  0.72577908456E+01  0.17857023061E+02  0.51100000000E-03 0.  1.
        -12    1    3    3    0    0  0.48589083287E+01  0.28901237017E+02  0.21209641053E+02  0.36176502939E+02  0.00000000000E+00 0.  1.
</event>
<event>
 7    1  0.2578619E-015  0.9000773E+02  0.7816164E-02  0.1186339E+00
        -11   -1    0    0    0    0  0.00000000000E+00  0.00000000000E+00  0.45593999997E+02  0.45594000000E+02  0.51100000000E-03 0.  1.
         11   -1    0    0    0    0 -0.00000000000E+00 -0.00000000000E+00 -0.45593999997E+02  0.45594000000E+02  0.51100000000E-03 0. -1.
    9900012    2    1    2    0    0  0.78296584166E-03  0.10040168959E+01  0.62047830835E+00  0.90007727205E+02  0.89999988404E+02 0.  0.
        -12    1    1    2    0    0 -0.78296584167E-03 -0.10040168959E+01 -0.62047830835E+00  0.11802727953E+01  0.00000000000E+00 0.  1.
         11    1    3    3    0    0  0.17425158908E+02  0.30259895910E+02  0.62429195005E+01  0.35472122965E+02  0.51100000000E-03 0. -1.
        -11    1    3    3    0    0  0.50507603410E+01  0.86961251244E+01  0.10934085306E+00  0.10057073525E+02  0.51100000000E-03 0.  1.
        -12    1    3    3    0    0 -0.22475136284E+02 -0.37952004139E+02 -0.57317820452E+01  0.44478530715E+02  0.00000000000E+00 0.  1.
</event>
<event>
 7    1  0.2578619E-015  0.9000774E+02  0.7816164E-02  0.1186339E+00
        -11   -1    0    0    0    0  0.00000000000E+00  0.00000000000E+00  0.45593999997E+02  0.45594000000E+02  0.51100000000E-03 0. -1.
         11   -1    0    0    0    0 -0.00000000000E+00 -0.00000000000E+00 -0.45593999997E+02  0.45594000000E+02  0.51100000000E-03 0.  1.
    9900012    2    1    2    0    0 -0.25855530274E+00  0.72884027312E+00  0.89160526003E+00  0.90007737772E+02  0.89999999110E+02 0.  0.
        -12    1    1    2    0    0  0.25855530274E+00 -0.72884027312E+00 -0.89160526003E+00  0.11802622285E+01  0.00000000000E+00 0.  1.
         11    1    3    3    0    0 -0.91848792113E+01  0.13792944873E+00 -0.14190212229E+01  0.92948723580E+01  0.51100000000E-03 0. -1.
        -11    1    3    3    0    0 -0.27722631417E+02 -0.15358847566E+02 -0.17391931777E+02  0.36151317852E+02  0.51100000000E-03 0.  1.
         12    1    3    3    0    0  0.36648955325E+02  0.15949758390E+02  0.19702558260E+02  0.44561547562E+02  0.00000000000E+00 0. -1.
</event>
<event>
 7    1  0.2932271E-015  0.9000771E+02  0.7816164E-02  0.1186339E+00
        -11   -1    0    0    0    0  0.00000000000E+00  0.00000000000E+00  0.45593999997E+02  0.45594000000E+02  0.51100000000E-03 0.  1.
         11   -1    0    0    0    0 -0.00000000000E+00 -0.00000000000E+00 -0.45593999997E+02  0.45594000000E+02  0.51100000000E-03 0. -1.
    9900012    2    1    2    0    0  0.10101107543E+01 -0.51371682332E+00  0.32991699258E+00  0.90007714470E+02  0.89999975501E+02 0.  0.
        -12    1    1    2    0    0 -0.10101107543E+01  0.51371682332E+00 -0.32991699258E+00  0.11802855301E+01  0.00000000000E+00 0.  1.
         11    1    3    3    0    0  0.81226950738E+00  0.35235510502E+01  0.87403559330E+01  0.94588062593E+01  0.51100000000E-03 0. -1.
        -11    1    3    3    0    0 -0.37181699706E+02  0.70032357936E+01  0.72867235151E+01  0.38530772695E+02  0.51100000000E-03 0.  1.
         12    1    3    3    0    0  0.37379540953E+02 -0.11040503667E+02 -0.15697162455E+02  0.42018135516E+02  0.00000000000E+00 0. -1.
</event>
<event>
 7    1  0.2578619E-015  0.9000785E+02  0.7816164E-02  0.1186339E+00
        -11   -1    0    0    0    0  0.00000000000E+00  0.00000000000E+00  0.45593999997E+02  0.45594000000E+02  0.51100000000E-03 0. -1.
         11   -1    0    0    0    0 -0.00000000000E+00 -0.00000000000E+00 -0.45593999997E+02  0.45594000000E+02  0.51100000000E-03 0.  1.
    9900012    2    1    2    0    0 -0.22873502194E+00  0.11291606347E+01  0.25578212196E+00  0.90007852576E+02  0.90000115430E+02 0.  0.
        -12    1    1    2    0    0  0.22873502194E+00 -0.11291606347E+01 -0.25578212196E+00  0.11801474243E+01  0.00000000000E+00 0.  1.
         11    1    3    3    0    0 -0.23450271760E+02  0.15312702344E+02  0.28294673655E+02  0.39811840653E+02  0.51100000000E-03 0. -1.
        -11    1    3    3    0    0 -0.76669595824E+01 -0.42153254777E+01 -0.31666500682E+01  0.93047789354E+01  0.51100000000E-03 0.  1.
        -12    1    3    3    0    0  0.30888496320E+02 -0.99682162318E+01 -0.24872241465E+02  0.40891232987E+02  0.00000000000E+00 0.  1.
</event>
<event>
 7    1  0.2578619E-015  0.9000776E+02  0.7816164E-02  0.1186339E+00
        -11   -1    0    0    0    0  0.00000000000E+00  0.00000000000E+00  0.45593999997E+02  0.45594000000E+02  0.51100000000E-03 0.  1.
         11   -1    0    0    0    0 -0.00000000000E+00 -0.00000000000E+00 -0.45593999997E+02  0.45594000000E+02  0.51100000000E-03 0. -1.
    9900012    2    1    2    0    0 -0.16357785629E+00 -0.60079785854E+00 -0.10026241861E+01  0.90007758059E+02  0.90000019665E+02 0.  0.
        -12    1    1    2    0    0  0.16357785629E+00  0.60079785854E+00  0.10026241861E+01  0.11802419415E+01  0.00000000000E+00 0.  1.
         11    1    3    3    0    0 -0.69884385399E+01  0.54897572188E+01  0.16651342800E+01  0.90414810722E+01  0.51100000000E-03 0. -1.
        -11    1    3    3    0    0 -0.10753224699E+02  0.23073968017E+01  0.36013992047E+02  0.37655856713E+02  0.51100000000E-03 0.  1.
         12    1    3    3    0    0  0.17578085383E+02 -0.83979518790E+01 -0.38681750513E+02  0.43310420273E+02  0.00000000000E+00 0. -1.
</event>
<event>
 7    1  0.2578619E-015  0.9000770E+02  0.7816164E-02  0.1186339E+00
        -11   -1    0    0    0    0  0.00000000000E+00  0.00000000000E+00  0.45593999997E+02  0.45594000000E+02  0.51100000000E-03 0.  1.
         11   -1    0    0    0    0 -0.00000000000E+00 -0.00000000000E+00 -0.45593999997E+02  0.45594000000E+02  0.51100000000E-03 0. -1.
    9900012    2    1    2    0    0 -0.94398941553E+00  0.33100054332E+00 -0.62644653646E+00  0.90007698073E+02  0.89999958887E+02 0.  0.
        -12    1    1    2    0    0  0.94398941553E+00 -0.33100054332E+00  0.62644653646E+00  0.11803019272E+01  0.00000000000E+00 0.  1.
         11    1    3    3    0    0 -0.74753324815E+01 -0.63180327846E+01  0.80876714652E+01  0.12696793452E+02  0.51100000000E-03 0. -1.
        -11    1    3    3    0    0 -0.31518000206E+02  0.17152634133E+01 -0.19938896470E+02  0.37334783490E+02  0.51100000000E-03 0.  1.
         12    1    3    3    0    0  0.38049343272E+02  0.49337699145E+01  0.11224778468E+02  0.39976121131E+02  0.00000000000E+00 0. -1.
</event>
<event>
 7    1  0.2578619E-015  0.9000776E+02  0.7816164E-02  0.1186339E+00
        -11   -1    0    0    0    0  0.00000000000E+00  0.00000000000E+00  0.45593999997E+02  0.45594000000E+02  0.51100000000E-03 0.  1.
         11   -1    0    0    0    0 -0.00000000000E+00 -0.00000000000E+00 -0.45593999997E+02  0.45594000000E+02  0.51100000000E-03 0. -1.
    9900012    2    1    2    0    0  0.91719730492E+00  0.60176560149E+00 -0.43542714418E+00  0.90007758697E+02  0.90000020312E+02 0.  0.
        -12    1    1    2    0    0 -0.91719730492E+00 -0.60176560149E+00  0.43542714418E+00  0.11802413029E+01  0.00000000000E+00 0.  1.
         11    1    3    3    0    0  0.41545669919E+01  0.37781254913E+01  0.75927652346E+01  0.94437674308E+01  0.51100000000E-03 0. -1.
        -11    1    3    3    0    0 -0.64202347779E+01  0.70412447808E+01  0.34974658868E+02  0.36249486973E+02  0.51100000000E-03 0.  1.
         12    1    3    3    0    0  0.31828650909E+01 -0.10217604671E+02 -0.43002851246E+02  0.44314504293E+02  0.00000000000E+00 0. -1.
</event>
<event>
 7    1  0.2578619E-015  0.9000773E+02  0.7816164E-02  0.1186339E+00
        -11   -1    0    0    0    0  0.00000000000E+00  0.00000000000E+00  0.45593999997E+02  0.45594000000E+02  0.51100000000E-03 0.  1.
         11   -1    0    0    0    0 -0.00000000000E+00 -0.00000000000E+00 -0.45593999997E+02  0.45594000000E+02  0.51100000000E-03 0. -1.
    9900012    2    1    2    0    0 -0.49989674232E+00 -0.82388792843E+00 -0.68144006441E+00  0.90007725188E+02  0.89999986360E+02 0.  0.
        -12    1    1    2    0    0  0.49989674232E+00  0.82388792843E+00  0.68144006441E+00  0.11802748125E+01  0.00000000000E+00 0.  1.
         11    1    3    3    0    0 -0.28572906647E+01  0.11147395538E+02 -0.23819202837E+02  0.26453411146E+02  0.51100000000E-03 0. -1.
        -11    1    3    3    0    0  0.73670386755E+01 -0.13184028559E+02 -0.17199435655E+02  0.22889133995E+02  0.51100000000E-03 0.  1.
        -12    1    3    3    0    0 -0.50096447532E+01  0.12127450930E+01  0.40337198428E+02  0.40665180047E+02  0.00000000000E+00 0.  1.
</event>
<event>
 7    1  0.2578619E-015  0.9000854E+02  0.7816164E-02  0.1186337E+00
        -11   -1    0    0    0    0  0.00000000000E+00  0.00000000000E+00  0.45593999997E+02  0.45594000000E+02  0.51100000000E-03 0.  1.
         11   -1    0    0    0    0 -0.00000000000E+00 -0.00000000000E+00 -0.45593999997E+02  0.45594000000E+02  0.51100000000E-03 0. -1.
    9900012    2    1    2    0    0 -0.92708375887E+00  0.71073127428E+00 -0.16278820835E+00  0.90008541124E+02  0.90000813063E+02 0.  0.
        -12    1    1    2    0    0  0.92708375887E+00 -0.71073127428E+00  0.16278820835E+00  0.11794588763E+01  0.00000000000E+00 0.  1.
         11    1    3    3    0    0 -0.26070746961E+02  0.18606750289E+02  0.20498411229E+02  0.38027356818E+02  0.51100000000E-03 0. -1.
        -11    1    3    3    0    0  0.42176097667E+01 -0.18808314568E+02  0.39368780100E+01  0.19673330622E+02  0.51100000000E-03 0.  1.
        -12    1    3    3    0    0  0.20926053435E+02  0.91229555377E+00 -0.24598077447E+02  0.32307853684E+02  0.00000000000E+00 0.  1.
</event>
<event>
 7    1  0.2578619E-015  0.9000779E+02  0.7816164E-02  0.1186339E+00
        -11   -1    0    0    0    0  0.00000000000E+00  0.00000000000E+00  0.45593999997E+02  0.45594000000E+02  0.51100000000E-03 0. -1.
         11   -1    0    0    0    0 -0.00000000000E+00 -0.00000000000E+00 -0.45593999997E+02  0.45594000000E+02  0.51100000000E-03 0.  1.
    9900012    2    1    2    0    0  0.34653020134E+00 -0.10900954605E+01  0.29070808995E+00  0.90007787101E+02  0.90000049091E+02 0.  0.
        -12    1    1    2    0    0 -0.34653020134E+00  0.10900954605E+01 -0.29070808995E+00  0.11802128990E+01  0.00000000000E+00 0.  1.
         11    1    3    3    0    0  0.97956285951E+01 -0.16446216401E+02  0.18543596452E+02  0.26651404149E+02  0.51100000000E-03 0. -1.
        -11    1    3    3    0    0  0.66839952225E+01 -0.10670083941E+02  0.14036781914E+02  0.18856238495E+02  0.51100000000E-03 0.  1.
        -12    1    3    3    0    0 -0.16133093616E+02  0.26026204881E+02 -0.32289670276E+02  0.44500144457E+02  0.00000000000E+00 0.  1.
</event>
<event>
 7    1  0.2578619E-015  0.9000778E+02  0.7816164E-02  0.1186339E+00
        -11   -1    0    0    0    0  0.00000000000E+00  0.00000000000E+00  0.45593999997E+02  0.45594000000E+02  0.51100000000E-03 0. -1.
         11   -1    0    0    0    0 -0.00000000000E+00 -0.00000000000E+00 -0.45593999997E+02  0.45594000000E+02  0.51100000000E-03 0.  1.
    9900012    2    1    2    0    0 -0.11330814318E+01 -0.81774372719E-01 -0.31993231811E+00  0.90007780839E+02  0.90000042746E+02 0.  0.
        -12    1    1    2    0    0  0.11330814318E+01  0.81774372719E-01  0.31993231811E+00  0.11802191607E+01  0.00000000000E+00 0.  1.
         11    1    3    3    0    0 -0.83424662604E+01 -0.63353396971E+01 -0.26278720210E+01  0.10799952963E+02  0.51100000000E-03 0. -1.
        -11    1    3    3    0    0 -0.19732005719E+02 -0.28822228776E+02  0.18157923732E+01  0.34976706871E+02  0.51100000000E-03 0.  1.
         12    1    3    3    0    0  0.26941390548E+02  0.35075794100E+02  0.49214732969E+00  0.44231121006E+02  0.00000000000E+00 0. -1.
</event>
<event>
 7    1  0.2578619E-015  0.9000783E+02  0.7816164E-02  0.1186339E+00
        -11   -1    0    0    0    0  0.00000000000E+00  0.00000000000E+00  0.45593999997E+02  0.45594000000E+02  0.51100000000E-03 0.  1.
         11   -1    0    0    0    0 -0.00000000000E+00 -0.00000000000E+00 -0.45593999997E+02  0.45594000000E+02  0.51100000000E-03 0. -1.
    9900012    2    1    2    0    0 -0.13880175594E+00  0.10957536784E+01  0.41575918284E+00  0.90007831474E+02  0.90000094050E+02 0.  0.
        -12    1    1    2    0    0  0.13880175594E+00 -0.10957536784E+01 -0.41575918284E+00  0.11801685258E+01  0.00000000000E+00 0.  1.
         11    1    3    3    0    0  0.14192261010E+02 -0.29533962384E+02 -0.20551171919E+02  0.38678493690E+02  0.51100000000E-03 0. -1.
        -11    1    3    3    0    0 -0.11494192639E+01 -0.14637188360E+01 -0.66999702917E+01  0.69536493761E+01  0.51100000000E-03 0.  1.
        -12    1    3    3    0    0 -0.13181643502E+02  0.32093434898E+02  0.27666901393E+02  0.44375688408E+02  0.00000000000E+00 0.  1.
</event>
<event>
 7    1  0.2578619E-015  0.9000777E+02  0.7816164E-02  0.1186339E+00
        -11   -1    0    0    0    0  0.00000000000E+00  0.00000000000E+00  0.45593999997E+02  0.45594000000E+02  0.51100000000E-03 0.  1.
         11   -1    0    0    0    0 -0.00000000000E+00 -0.00000000000E+00 -0.45593999997E+02  0.45594000000E+02  0.51100000000E-03 0. -1.
    9900012    2    1    2    0    0 -0.63609175321E+00  0.86601112599E+00 -0.48821364404E+00  0.90007770975E+02  0.90000032752E+02 0.  0.
        -12    1    1    2    0    0  0.63609175321E+00 -0.86601112599E+00  0.48821364404E+00  0.11802290248E+01  0.00000000000E+00 0.  1.
         11    1    3    3    0    0  0.36711425251E+01 -0.68751752792E+00  0.77498301107E+01  0.86028968840E+01  0.51100000000E-03 0. -1.
        -11    1    3    3    0    0  0.15970707111E+02 -0.30847686516E+01  0.32118621324E+02  0.36002571009E+02  0.51100000000E-03 0.  1.
         12    1    3    3    0    0 -0.20277941390E+02  0.46382973055E+01 -0.40356665078E+02  0.45402303082E+02  0.00000000000E+00 0. -1.
</event>
<event>
 7    1  0.2578619E-015  0.9000764E+02  0.7816164E-02  0.1186339E+00
        -11   -1    0    0    0    0  0.00000000000E+00  0.00000000000E+00  0.45593999997E+02  0.45594000000E+02  0.51100000000E-03 0.  1.
         11   -1    0    0    0    0 -0.00000000000E+00 -0.00000000000E+00 -0.45593999997E+02  0.45594000000E+02  0.51100000000E-03 0. -1.
    9900012    2    1    2    0    0  0.10190919207E+01 -0.59548499472E+00 -0.98191550724E-02  0.90007641098E+02  0.89999901160E+02 0.  0.
        -12    1    1    2    0    0 -0.10190919207E+01  0.59548499472E+00  0.98191550724E-02  0.11803589020E+01  0.00000000000E+00 0.  1.
         11    1    3    3    0    0 -0.25792449451E+01 -0.10002485597E+01 -0.43975403822E+01  0.51953212934E+01  0.51100000000E-03 0. -1.
        -11    1    3    3    0    0 -0.18610455195E+02 -0.28802082096E+02  0.25267993599E+02  0.42595545265E+02  0.51100000000E-03 0.  1.
         12    1    3    3    0    0  0.22208792060E+02  0.29206845661E+02 -0.20880272372E+02  0.42216774540E+02  0.00000000000E+00 0. -1.
</event>
<event>
 7    1  0.2578619E-015  0.9000783E+02  0.7816164E-02  0.1186339E+00
        -11   -1    0    0    0    0  0.00000000000E+00  0.00000000000E+00  0.45593999997E+02  0.45594000000E+02  0.51100000000E-03 0.  1.
         11   -1    0    0    0    0 -0.00000000000E+00 -0.00000000000E+00 -0.45593999997E+02  0.45594000000E+02  0.51100000000E-03 0. -1.
    9900012    2    1    2    0    0  0.81506368002E+00 -0.67411048065E+00  0.52350585981E+00  0.90007825382E+02  0.90000087877E+02 0.  0.
        -12    1    1    2    0    0 -0.81506368002E+00  0.67411048065E+00 -0.52350585981E+00  0.11801746175E+01  0.00000000000E+00 0.  1.
         11    1    3    3    0    0  0.52840078039E+01 -0.70002123344E+01  0.23052323856E+01  0.90685063715E+01  0.51100000000E-03 0. -1.
        -11    1    3    3    0    0 -0.14052415781E+02 -0.18418540990E+02  0.31040169129E+02  0.38732481735E+02  0.51100000000E-03 0.  1.
         12    1    3    3    0    0  0.95834716573E+01  0.24744642844E+02 -0.32821895655E+02  0.42206837276E+02  0.00000000000E+00 0. -1.
</event>
<event>
 7    1  0.2578619E-015  0.9000777E+02  0.7816164E-02  0.1186339E+00
        -11   -1    0    0    0    0  0.00000000000E+00  0.00000000000E+00  0.45593999997E+02  0.45594000000E+02  0.51100000000E-03 0.  1.
         11   -1    0    0    0    0 -0.00000000000E+00 -0.00000000000E+00 -0.45593999997E+02  0.45594000000E+02  0.51100000000E-03 0. -1.
    9900012    2    1    2    0    0 -0.10026973507E+01 -0.26127779733E+00 -0.56503875311E+00  0.90007772540E+02  0.90000034338E+02 0.  0.
        -12    1    1    2    0    0  0.10026973507E+01  0.26127779733E+00  0.56503875311E+00  0.11802274598E+01  0.00000000000E+00 0.  1.
         11    1    3    3    0    0 -0.10675157421E+02  0.41511895171E+01 -0.46307270286E+01  0.12354553551E+02  0.51100000000E-03 0. -1.
        -11    1    3    3    0    0 -0.55682579582E+01  0.18255480523E+02  0.32837014590E+02  0.37980752932E+02  0.51100000000E-03 0.  1.
         12    1    3    3    0    0  0.15240718028E+02 -0.22667947838E+02 -0.28771326315E+02  0.39672466058E+02  0.00000000000E+00 0. -1.
</event>
<event>
 7    1  0.2578619E-015  0.9000772E+02  0.7816164E-02  0.1186339E+00
        -11   -1    0    0    0    0  0.00000000000E+00  0.00000000000E+00  0.45593999997E+02  0.45594000000E+02  0.51100000000E-03 0.  1.
         11   -1    0    0    0    0 -0.00000000000E+00 -0.00000000000E+00 -0.45593999997E+02  0.45594000000E+02  0.51100000000E-03 0. -1.
    9900012    2    1    2    0    0  0.11737324586E+00  0.90394765402E+00  0.74977407843E+00  0.90007720792E+02  0.89999981906E+02 0.  0.
        -12    1    1    2    0    0 -0.11737324586E+00 -0.90394765402E+00 -0.74977407843E+00  0.11802792080E+01  0.00000000000E+00 0.  1.
         11    1    3    3    0    0  0.50320601635E+01  0.29949762756E+01  0.79031429147E+01  0.98362177981E+01  0.51100000000E-03 0. -1.
        -11    1    3    3    0    0  0.20299846683E+02  0.30438775653E+02  0.57554516332E+01  0.37036847359E+02  0.51100000000E-03 0.  1.
         12    1    3    3    0    0 -0.25214533600E+02 -0.32529804274E+02 -0.12908820469E+02  0.43134655634E+02  0.00000000000E+00 0. -1.
</event>
<event>
 7    1  0.2578619E-015  0.9000774E+02  0.7816164E-02  0.1186339E+00
        -11   -1    0    0    0    0  0.00000000000E+00  0.00000000000E+00  0.45593999997E+02  0.45594000000E+02  0.51100000000E-03 0.  1.
         11   -1    0    0    0    0 -0.00000000000E+00 -0.00000000000E+00 -0.45593999997E+02  0.45594000000E+02  0.51100000000E-03 0. -1.
    9900012    2    1    2    0    0  0.54046339003E+00  0.20482116382E+00 -0.10290622276E+01  0.90007736702E+02  0.89999998026E+02 0.  0.
        -12    1    1    2    0    0 -0.54046339003E+00 -0.20482116382E+00  0.10290622276E+01  0.11802632984E+01  0.00000000000E+00 0.  1.
         11    1    3    3    0    0 -0.12434013629E+02  0.33798094004E+02  0.55926710115E+01  0.36444393568E+02  0.51100000000E-03 0. -1.
        -11    1    3    3    0    0  0.69455268453E+01  0.38332657064E+01 -0.12893927166E+02  0.15138944057E+02  0.51100000000E-03 0.  1.
        -12    1    3    3    0    0  0.60289501733E+01 -0.37426538547E+02  0.62721939265E+01  0.38424399077E+02  0.00000000000E+00 0.  1.
</event>
<event>
 7    1  0.2578619E-015  0.9000767E+02  0.7816164E-02  0.1186339E+00
        -11   -1    0    0    0    0  0.00000000000E+00  0.00000000000E+00  0.45593999997E+02  0.45594000000E+02  0.51100000000E-03 0.  1.
         11   -1    0    0    0    0 -0.00000000000E+00 -0.00000000000E+00 -0.45593999997E+02  0.45594000000E+02  0.51100000000E-03 0. -1.
    9900012    2    1    2    0    0  0.10855906251E+01  0.38699897413E+00 -0.25476044882E+00  0.90007670344E+02  0.89999930792E+02 0.  0.
        -12    1    1    2    0    0 -0.10855906251E+01 -0.38699897413E+00  0.25476044882E+00  0.11803296564E+01  0.00000000000E+00 0.  1.
         11    1    3    3    0    0 -0.87555317555E+01 -0.52561367248E+01  0.39972112729E+01  0.10966494782E+02  0.51100000000E-03 0. -1.
        -11    1    3    3    0    0  0.85697895970E+01  0.13891257962E+02  0.35155482456E+02  0.38759725083E+02  0.51100000000E-03 0.  1.
         12    1    3    3    0    0  0.12713327837E+01 -0.82481222633E+01 -0.39407454178E+02  0.40281450479E+02  0.00000000000E+00 0. -1.
</event>
<event>
 7    1  0.2578619E-015  0.9000858E+02  0.7816164E-02  0.1186337E+00
        -11   -1    0    0    0    0  0.00000000000E+00  0.00000000000E+00  0.45593999997E+02  0.45594000000E+02  0.51100000000E-03 0.  1.
         11   -1    0    0    0    0 -0.00000000000E+00 -0.00000000000E+00 -0.45593999997E+02  0.45594000000E+02  0.51100000000E-03 0. -1.
    9900012    2    1    2    0    0 -0.77820471048E+00  0.88123612655E+00  0.94133461037E-01  0.90008576077E+02  0.90000848477E+02 0.  0.
        -12    1    1    2    0    0  0.77820471048E+00 -0.88123612655E+00 -0.94133461037E-01  0.11794239232E+01  0.00000000000E+00 0.  1.
         11    1    3    3    0    0  0.49405963541E+01  0.64552403173E+01 -0.21774156534E+01  0.84155070600E+01  0.51100000000E-03 0. -1.
        -11    1    3    3    0    0  0.30190899014E+02 -0.20383496374E+01  0.24740151741E+02  0.39086063513E+02  0.51100000000E-03 0.  1.
         12    1    3    3    0    0 -0.35909700079E+02 -0.35356545533E+01 -0.22468602627E+02  0.42507005503E+02  0.00000000000E+00 0. -1.
</event>
<event>
 7    1  0.2578619E-015  0.9000767E+02  0.7816164E-02  0.1186339E+00
        -11   -1    0    0    0    0  0.00000000000E+00  0.00000000000E+00  0.45593999997E+02  0.45594000000E+02  0.51100000000E-03 0.  1.
         11   -1    0    0    0    0 -0.00000000000E+00 -0.00000000000E+00 -0.45593999997E+02  0.45594000000E+02  0.51100000000E-03 0. -1.
    9900012    2    1    2    0    0  0.50619645013E+00 -0.24063653771E+00 -0.10387621370E+01  0.90007674805E+02  0.89999935312E+02 0.  0.
        -12    1    1    2    0    0 -0.50619645013E+00  0.24063653771E+00  0.10387621370E+01  0.11803251953E+01  0.00000000000E+00 0.  1.
         11    1    3    3    0    0  0.67491302554E+00  0.31125870033E+02 -0.29548500679E+02  0.42923061232E+02  0.51100000000E-03 0. -1.
        -11    1    3    3    0    0  0.78033912782E+01 -0.55338286342E+01  0.32999988715E+01  0.10119593253E+02  0.51100000000E-03 0.  1.
        -12    1    3    3    0    0 -0.79721078536E+01 -0.25832677937E+02  0.25209739670E+02  0.36965020320E+02  0.00000000000E+00 0.  1.
</event>
<event>
 7    1  0.2578619E-015  0.9000763E+02  0.7816164E-02  0.1186339E+00
        -11   -1    0    0    0    0  0.00000000000E+00  0.00000000000E+00  0.45593999997E+02  0.45594000000E+02  0.51100000000E-03 0. -1.
         11   -1    0    0    0    0 -0.00000000000E+00 -0.00000000000E+00 -0.45593999997E+02  0.45594000000E+02  0.51100000000E-03 0.  1.
    9900012    2    1    2    0    0 -0.32620403577E+00  0.19320033227E+00  0.11178291801E+01  0.90007628229E+02  0.89999888122E+02 0.  0.
        -12    1    1    2    0    0  0.32620403577E+00 -0.19320033227E+00 -0.11178291801E+01  0.11803717707E+01  0.00000000000E+00 0.  1.
         11    1    3    3    0    0 -0.92593621911E+01  0.16646481965E+02  0.37258406261E+01  0.19409354410E+02  0.51100000000E-03 0. -1.
        -11    1    3    3    0    0  0.19734285923E+02 -0.12508033890E+02 -0.31663186285E+02  0.39350353476E+02  0.51100000000E-03 0.  1.
         12    1    3    3    0    0 -0.10801127768E+02 -0.39452477431E+01  0.29055174839E+02  0.31247920343E+02  0.00000000000E+00 0. -1.
</event>
<event>
 7    1  0.2578619E-015  0.9000774E+02  0.7816164E-02  0.1186339E+00
        -11   -1    0    0    0    0  0.00000000000E+00  0.00000000000E+00  0.45593999997E+02  0.45594000000E+02  0.51100000000E-03 0. -1.
         11   -1    0    0    0    0 -0.00000000000E+00 -0.00000000000E+00 -0.45593999997E+02  0.45594000000E+02  0.51100000000E-03 0.  1.
    9900012    2    1    2    0    0 -0.76217191010E+00 -0.55995312760E+00 -0.70609045377E+00  0.90007738480E+02  0.89999999828E+02 0.  0.
        -12    1    1    2    0    0  0.76217191010E+00  0.55995312760E+00  0.70609045377E+00  0.11802615196E+01  0.00000000000E+00 0.  1.
         11    1    3    3    0    0  0.29105841482E+02  0.13136895892E+02  0.22732274594E+02  0.39198014625E+02  0.51100000000E-03 0. -1.
        -11    1    3    3    0    0 -0.13789533681E+01 -0.39002411233E+01  0.69059523836E+01  0.80501907926E+01  0.51100000000E-03 0.  1.
        -12    1    3    3    0    0 -0.28489060024E+02 -0.97966078959E+01 -0.30344317432E+02  0.42759533063E+02  0.00000000000E+00 0.  1.
</event>
<event>
 7    1  0.2578619E-015  0.9000771E+02  0.7816164E-02  0.1186339E+00
        -11   -1    0    0    0    0  0.00000000000E+00  0.00000000000E+00  0.45593999997E+02  0.45594000000E+02  0.51100000000E-03 0. -1.
         11   -1    0    0    0    0 -0.00000000000E+00 -0.00000000000E+00 -0.45593999997E+02  0.45594000000E+02  0.51100000000E-03 0.  1.
    9900012    2    1    2    0    0 -0.89333072013E+00 -0.59341909358E+00 -0.49283937566E+00  0.90007713320E+02  0.89999974336E+02 0.  0.
        -12    1    1    2    0    0  0.89333072013E+00  0.59341909358E+00  0.49283937566E+00  0.11802866797E+01  0.00000000000E+00 0.  1.
         11    1    3    3    0    0  0.25628554017E+02 -0.23263996225E+02  0.73434846424E+01  0.35383090147E+02  0.51100000000E-03 0. -1.
        -11    1    3    3    0    0  0.65105702481E+01 -0.65078569484E+01  0.21055656795E+01  0.94431527631E+01  0.51100000000E-03 0.  1.
        -12    1    3    3    0    0 -0.33032454985E+02  0.29178434080E+02 -0.99418896975E+01  0.45181470411E+02  0.00000000000E+00 0.  1.
</event>
<event>
 7    1  0.2578619E-015  0.9000769E+02  0.7816164E-02  0.1186339E+00
        -11   -1    0    0    0    0  0.00000000000E+00  0.00000000000E+00  0.45593999997E+02  0.45594000000E+02  0.51100000000E-03 0.  1.
         11   -1    0    0    0    0 -0.00000000000E+00 -0.00000000000E+00 -0.45593999997E+02  0.45594000000E+02  0.51100000000E-03 0. -1.
    9900012    2    1    2    0    0  0.85382004575E+00 -0.54323156207E+00 -0.60747104663E+00  0.90007690603E+02  0.89999951319E+02 0.  0.
        -12    1    1    2    0    0 -0.85382004575E+00  0.54323156207E+00  0.60747104663E+00  0.11803093972E+01  0.00000000000E+00 0.  1.
         11    1    3    3    0    0 -0.83359630638E+01 -0.33452502774E+01 -0.66630395520E+01  0.11183696882E+02  0.51100000000E-03 0. -1.
        -11    1    3    3    0    0 -0.28237518711E+02 -0.36744158712E+01  0.23600316420E+02  0.36984236241E+02  0.51100000000E-03 0.  1.
         12    1    3    3    0    0  0.37427301821E+02  0.64764345866E+01 -0.17544747914E+02  0.41839757479E+02  0.00000000000E+00 0. -1.
</event>
<event>
 7    1  0.2578619E-015  0.9000777E+02  0.7816164E-02  0.1186339E+00
        -11   -1    0    0    0    0  0.00000000000E+00  0.00000000000E+00  0.45593999997E+02  0.45594000000E+02  0.51100000000E-03 0.  1.
         11   -1    0    0    0    0 -0.00000000000E+00 -0.00000000000E+00 -0.45593999997E+02  0.45594000000E+02  0.51100000000E-03 0. -1.
    9900012    2    1    2    0    0  0.24311793146E+00 -0.57364976243E+00 -0.10023841310E+01  0.90007765140E+02  0.90000026840E+02 0.  0.
        -12    1    1    2    0    0 -0.24311793146E+00  0.57364976243E+00  0.10023841310E+01  0.11802348600E+01  0.00000000000E+00 0.  1.
         11    1    3    3    0    0  0.69896397506E+01 -0.26496101527E+01 -0.48271197019E+01  0.88981224245E+01  0.51100000000E-03 0. -1.
        -11    1    3    3    0    0  0.12334217416E+02 -0.21609404115E+02  0.31394517387E+02  0.40058893990E+02  0.51100000000E-03 0.  1.
         12    1    3    3    0    0 -0.19080739235E+02  0.23685364505E+02 -0.27569781816E+02  0.41050748725E+02  0.00000000000E+00 0. -1.
</event>
<event>
 7    1  0.2578619E-015  0.9000736E+02  0.7816164E-02  0.1186340E+00
        -11   -1    0    0    0    0  0.00000000000E+00  0.00000000000E+00  0.45593999997E+02  0.45594000000E+02  0.51100000000E-03 0.  1.
         11   -1    0    0    0    0 -0.00000000000E+00 -0.00000000000E+00 -0.45593999997E+02  0.45594000000E+02  0.51100000000E-03 0. -1.
    9900012    2    1    2    0    0 -0.21705633890E+00 -0.96852382550E+00 -0.63934656011E+00  0.90007357853E+02  0.89999614176E+02 0.  0.
        -12    1    1    2    0    0  0.21705633890E+00  0.96852382550E+00  0.63934656011E+00  0.11806421468E+01  0.00000000000E+00 0.  1.
         11    1    3    3    0    0  0.32306458223E+02 -0.12957244228E+02 -0.18098490833E+02  0.39232037821E+02  0.51100000000E-03 0. -1.
        -11    1    3    3    0    0  0.15510430117E+01  0.67205138790E+01 -0.59427517048E+01  0.91042484208E+01  0.51100000000E-03 0.  1.
        -12    1    3    3    0    0 -0.34074557574E+02  0.52682065232E+01  0.23401895978E+02  0.41671071611E+02  0.00000000000E+00 0.  1.
</event>
<event>
 7    1  0.2578619E-015  0.9000773E+02  0.7816164E-02  0.1186339E+00
        -11   -1    0    0    0    0  0.00000000000E+00  0.00000000000E+00  0.45593999997E+02  0.45594000000E+02  0.51100000000E-03 0.  1.
         11   -1    0    0    0    0 -0.00000000000E+00 -0.00000000000E+00 -0.45593999997E+02  0.45594000000E+02  0.51100000000E-03 0. -1.
    9900012    2    1    2    0    0 -0.87517661967E+00  0.59271597352E+00  0.52515092129E+00  0.90007733153E+02  0.89999994430E+02 0.  0.
        -12    1    1    2    0    0  0.87517661967E+00 -0.59271597352E+00 -0.52515092129E+00  0.11802668474E+01  0.00000000000E+00 0.  1.
         11    1    3    3    0    0  0.24338689154E+02 -0.20349287817E+02 -0.25746787212E+02  0.40857831029E+02  0.51100000000E-03 0. -1.
        -11    1    3    3    0    0  0.15826245520E+01  0.81696212913E+01 -0.15506479281E+01  0.84647458187E+01  0.51100000000E-03 0.  1.
        -12    1    3    3    0    0 -0.26796490326E+02  0.12772382499E+02  0.27822586061E+02  0.40685156305E+02  0.00000000000E+00 0.  1.
</event>
<event>
 7    1  0.2578619E-015  0.9000786E+02  0.7816164E-02  0.1186339E+00
        -11   -1    0    0    0    0  0.00000000000E+00  0.00000000000E+00  0.45593999997E+02  0.45594000000E+02  0.51100000000E-03 0. -1.
         11   -1    0    0    0    0 -0.00000000000E+00 -0.00000000000E+00 -0.45593999997E+02  0.45594000000E+02  0.51100000000E-03 0.  1.
    9900012    2    1    2    0    0 -0.41136457849E+00 -0.31861421224E-01  0.11056649612E+01  0.90007859765E+02  0.90000122714E+02 0.  0.
        -12    1    1    2    0    0  0.41136457849E+00  0.31861421224E-01 -0.11056649612E+01  0.11801402345E+01  0.00000000000E+00 0.  1.
         11    1    3    3    0    0 -0.24926803429E+02  0.28925607822E+02  0.25986379207E+01  0.38272565061E+02  0.51100000000E-03 0. -1.
        -11    1    3    3    0    0 -0.81762116049E+01 -0.55293780621E+01 -0.55293366631E+01  0.11313621089E+02  0.51100000000E-03 0.  1.
        -12    1    3    3    0    0  0.32691650455E+02 -0.23428091181E+02  0.40363637037E+01  0.40421673615E+02  0.00000000000E+00 0.  1.
</event>
<event>
 7    1  0.2578619E-015  0.9000778E+02  0.7816164E-02  0.1186339E+00
        -11   -1    0    0    0    0  0.00000000000E+00  0.00000000000E+00  0.45593999997E+02  0.45594000000E+02  0.51100000000E-03 0.  1.
         11   -1    0    0    0    0 -0.00000000000E+00 -0.00000000000E+00 -0.45593999997E+02  0.45594000000E+02  0.51100000000E-03 0. -1.
    9900012    2    1    2    0    0 -0.38575015802E+00 -0.42780215186E+00 -0.10300987736E+01  0.90007779110E+02  0.90000040994E+02 0.  0.
        -12    1    1    2    0    0  0.38575015802E+00  0.42780215186E+00  0.10300987736E+01  0.11802208899E+01  0.00000000000E+00 0.  1.
         11    1    3    3    0    0  0.88655562660E+01 -0.15501346239E+02  0.77343219711E+01  0.19460461448E+02  0.51100000000E-03 0. -1.
        -11    1    3    3    0    0 -0.19772753420E+02  0.57257050586E+00 -0.34156535273E+02  0.39470983227E+02  0.51100000000E-03 0.  1.
         12    1    3    3    0    0  0.10521446996E+02  0.14500973582E+02  0.25392114528E+02  0.31076334435E+02  0.00000000000E+00 0. -1.
</event>
<event>
 7    1  0.2578619E-015  0.9000763E+02  0.7816164E-02  0.1186339E+00
        -11   -1    0    0    0    0  0.00000000000E+00  0.00000000000E+00  0.45593999997E+02  0.45594000000E+02  0.51100000000E-03 0. -1.
         11   -1    0    0    0    0 -0.00000000000E+00 -0.00000000000E+00 -0.45593999997E+02  0.45594000000E+02  0.51100000000E-03 0.  1.
    9900012    2    1    2    0    0  0.80157059176E+00  0.73328213775E+00  0.46157555159E+00  0.90007631372E+02  0.89999891306E+02 0.  0.
        -12    1    1    2    0    0 -0.80157059176E+00 -0.73328213775E+00 -0.46157555159E+00  0.11803686276E+01  0.00000000000E+00 0.  1.
         11    1    3    3    0    0 -0.14519155531E+02 -0.34234672093E+02  0.37284303485E+01  0.37372715232E+02  0.51100000000E-03 0. -1.
        -11    1    3    3    0    0  0.19538328140E+01 -0.34055597762E+01  0.93051575721E+01  0.10099567206E+02  0.51100000000E-03 0.  1.
        -12    1    3    3    0    0  0.13366893308E+02  0.38373514007E+02 -0.12572012369E+02  0.42535348935E+02  0.00000000000E+00 0.  1.
</event>
<event>
 7    1  0.2638139E-015  0.9000771E+02  0.7816164E-02  0.1186339E+00
        -11   -1    0    0    0    0  0.00000000000E+00  0.00000000000E+00  0.45593999997E+02  0.45594000000E+02  0.51100000000E-03 0. -1.
         11   -1    0    0    0    0 -0.00000000000E+00 -0.00000000000E+00 -0.45593999997E+02  0.45594000000E+02  0.51100000000E-03 0.  1.
    9900012    2    1    2    0    0  0.65704926965E+00 -0.40725890489E+00  0.89191024286E+00  0.90007712984E+02  0.89999973996E+02 0.  0.
        -12    1    1    2    0    0 -0.65704926965E+00  0.40725890489E+00 -0.89191024286E+00  0.11802870158E+01  0.00000000000E+00 0.  1.
         11    1    3    3    0    0 -0.19015094106E+01  0.84144454395E+01 -0.39657521076E+01  0.94945152658E+01  0.51100000000E-03 0. -1.
        -11    1    3    3    0    0  0.20985539830E+02 -0.53142588918E+01 -0.32303391139E+02  0.38886286900E+02  0.51100000000E-03 0.  1.
         12    1    3    3    0    0 -0.18426981150E+02 -0.35074454526E+01  0.37161053489E+02  0.41626910819E+02  0.00000000000E+00 0. -1.
</event>
<event>
 7    1  0.2578619E-015  0.9000774E+02  0.7816164E-02  0.1186339E+00
        -11   -1    0    0    0    0  0.00000000000E+00  0.00000000000E+00  0.45593999997E+02  0.45594000000E+02  0.51100000000E-03 0.  1.
         11   -1    0    0    0    0 -0.00000000000E+00 -0.00000000000E+00 -0.45593999997E+02  0.45594000000E+02  0.51100000000E-03 0. -1.
    9900012    2    1    2    0    0 -0.13514850094E+00 -0.19521595222E+00 -0.11561350672E+01  0.90007736182E+02  0.89999997500E+02 0.  0.
        -12    1    1    2    0    0  0.13514850094E+00  0.19521595222E+00  0.11561350672E+01  0.11802638176E+01  0.00000000000E+00 0.  1.
         11    1    3    3    0    0 -0.14791478299E+02  0.19324762961E+01 -0.70333459222E+01  0.16492126910E+02  0.51100000000E-03 0. -1.
        -11    1    3    3    0    0 -0.28128206436E+02 -0.28101808466E+01 -0.64311854562E+01  0.28990571921E+02  0.51100000000E-03 0.  1.
         12    1    3    3    0    0  0.42784536233E+02  0.68248859832E+00  0.12308396311E+02  0.44525037351E+02  0.00000000000E+00 0. -1.
</event>
<event>
 7    1  0.2578619E-015  0.9000653E+02  0.7816164E-02  0.1186341E+00
        -11   -1    0    0    0    0  0.00000000000E+00  0.00000000000E+00  0.45593999997E+02  0.45594000000E+02  0.51100000000E-03 0.  1.
         11   -1    0    0    0    0 -0.00000000000E+00 -0.00000000000E+00 -0.45593999997E+02  0.45594000000E+02  0.51100000000E-03 0. -1.
    9900012    2    1    2    0    0 -0.48291769652E+00 -0.10770264747E+01  0.51757351916E-01  0.90006528734E+02  0.89998774105E+02 0.  0.
        -12    1    1    2    0    0  0.48291769652E+00  0.10770264747E+01 -0.51757351916E-01  0.11814712660E+01  0.00000000000E+00 0.  1.
         11    1    3    3    0    0  0.31284076230E+01 -0.76683279408E+01 -0.27825382455E+01  0.87368591045E+01  0.51100000000E-03 0. -1.
        -11    1    3    3    0    0 -0.11799240643E+02 -0.28231885399E+02  0.24717223066E+02  0.39334495666E+02  0.51100000000E-03 0.  1.
         12    1    3    3    0    0  0.81879153232E+01  0.34823186865E+02 -0.21882927469E+02  0.41935173964E+02  0.00000000000E+00 0. -1.
</event>
<event>
 7    1  0.2578619E-015  0.9000783E+02  0.7816164E-02  0.1186339E+00
        -11   -1    0    0    0    0  0.00000000000E+00  0.00000000000E+00  0.45593999997E+02  0.45594000000E+02  0.51100000000E-03 0.  1.
         11   -1    0    0    0    0 -0.00000000000E+00 -0.00000000000E+00 -0.45593999997E+02  0.45594000000E+02  0.51100000000E-03 0. -1.
    9900012    2    1    2    0    0 -0.22257735963E+00  0.11582183795E+01 -0.42387921478E-01  0.90007827457E+02  0.90000089979E+02 0.  0.
        -12    1    1    2    0    0  0.22257735963E+00 -0.11582183795E+01  0.42387921478E-01  0.11801725431E+01  0.00000000000E+00 0.  1.
         11    1    3    3    0    0  0.74224150455E+01 -0.14565736108E+01 -0.57941838085E+01  0.95281907023E+01  0.51100000000E-03 0. -1.
        -11    1    3    3    0    0  0.86809047345E+01  0.19310681290E+02  0.36303262106E+02  0.42026031917E+02  0.51100000000E-03 0.  1.
         12    1    3    3    0    0 -0.16325897140E+02 -0.16695889300E+02 -0.30551466219E+02  0.38453604838E+02  0.00000000000E+00 0. -1.
</event>
<event>
 7    1  0.2578619E-015  0.9000772E+02  0.7816164E-02  0.1186339E+00
        -11   -1    0    0    0    0  0.00000000000E+00  0.00000000000E+00  0.45593999997E+02  0.45594000000E+02  0.51100000000E-03 0. -1.
         11   -1    0    0    0    0 -0.00000000000E+00 -0.00000000000E+00 -0.45593999997E+02  0.45594000000E+02  0.51100000000E-03 0.  1.
    9900012    2    1    2    0    0  0.76857018698E+00  0.51883864915E+00  0.73017923182E+00  0.90007722326E+02  0.89999983461E+02 0.  0.
        -12    1    1    2    0    0 -0.76857018698E+00 -0.51883864915E+00 -0.73017923182E+00  0.11802776736E+01  0.00000000000E+00 0.  1.
         11    1    3    3    0    0 -0.33542527478E+02  0.22964327980E+01  0.12352487140E+02  0.35818412752E+02  0.51100000000E-03 0. -1.
        -11    1    3    3    0    0 -0.72547795512E+01  0.55530692262E+01  0.28490330759E+01  0.95700258044E+01  0.51100000000E-03 0.  1.
        -12    1    3    3    0    0  0.41565877217E+02 -0.73306633751E+01 -0.14471340984E+02  0.44619283770E+02  0.00000000000E+00 0.  1.
</event>
<event>
 7    1  0.2578619E-015  0.9000769E+02  0.7816164E-02  0.1186339E+00
        -11   -1    0    0    0    0  0.00000000000E+00  0.00000000000E+00  0.45593999997E+02  0.45594000000E+02  0.51100000000E-03 0. -1.
         11   -1    0    0    0    0 -0.00000000000E+00 -0.00000000000E+00 -0.45593999997E+02  0.45594000000E+02  0.51100000000E-03 0.  1.
    9900012    2    1    2    0    0  0.97934832122E+00  0.52872680385E+00  0.39299760985E+00  0.90007693985E+02  0.89999954746E+02 0.  0.
        -12    1    1    2    0    0 -0.97934832122E+00 -0.52872680385E+00 -0.39299760985E+00  0.11803060149E+01  0.00000000000E+00 0.  1.
         11    1    3    3    0    0  0.28158680122E+02  0.20461066529E+02  0.84618155659E+01  0.35821346047E+02  0.51100000000E-03 0. -1.
        -11    1    3    3    0    0  0.10921982323E+02 -0.29835514800E+01  0.14446585338E+01  0.11413952683E+02  0.51100000000E-03 0.  1.
        -12    1    3    3    0    0 -0.38101314124E+02 -0.16948788245E+02 -0.95134764899E+01  0.42772395255E+02  0.00000000000E+00 0.  1.
</event>
<event>
 7    1  0.2578619E-015  0.9000778E+02  0.7816164E-02  0.1186339E+00
        -11   -1    0    0    0    0  0.00000000000E+00  0.00000000000E+00  0.45593999997E+02  0.45594000000E+02  0.51100000000E-03 0. -1.
         11   -1    0    0    0    0 -0.00000000000E+00 -0.00000000000E+00 -0.45593999997E+02  0.45594000000E+02  0.51100000000E-03 0.  1.
    9900012    2    1    2    0    0 -0.11972642391E+00 -0.11741270446E+01 -0.54614881297E-03  0.90007784328E+02  0.90000046281E+02 0.  0.
        -12    1    1    2    0    0  0.11972642391E+00  0.11741270446E+01  0.54614881297E-03  0.11802156717E+01  0.00000000000E+00 0.  1.
         11    1    3    3    0    0  0.34387909915E+02  0.12113282670E+00 -0.31897938054E+01  0.34535746789E+02  0.51100000000E-03 0. -1.
        -11    1    3    3    0    0 -0.42931398071E+01 -0.18996188732E+02 -0.35920904909E+01  0.19803771108E+02  0.51100000000E-03 0.  1.
        -12    1    3    3    0    0 -0.30214496532E+02  0.17700928860E+02  0.67813381475E+01  0.35668266432E+02  0.00000000000E+00 0.  1.
</event>
<event>
 7    1  0.2578619E-015  0.9000746E+02  0.7816164E-02  0.1186340E+00
        -11   -1    0    0    0    0  0.00000000000E+00  0.00000000000E+00  0.45593999997E+02  0.45594000000E+02  0.51100000000E-03 0.  1.
         11   -1    0    0    0    0 -0.00000000000E+00 -0.00000000000E+00 -0.45593999997E+02  0.45594000000E+02  0.51100000000E-03 0. -1.
    9900012    2    1    2    0    0 -0.22386155204E+00  0.45332594940E+00 -0.10667920133E+01  0.90007464693E+02  0.89999722427E+02 0.  0.
        -12    1    1    2    0    0  0.22386155204E+00 -0.45332594940E+00  0.10667920133E+01  0.11805353068E+01  0.00000000000E+00 0.  1.
         11    1    3    3    0    0 -0.77857762401E+01 -0.24930215602E+01  0.45984019487E+01  0.93796998302E+01  0.51100000000E-03 0. -1.
        -11    1    3    3    0    0 -0.24638159646E+02  0.15915870679E+02  0.21649323487E+02  0.36456097678E+02  0.51100000000E-03 0.  1.
         12    1    3    3    0    0  0.32200074334E+02 -0.12969523170E+02 -0.27314517449E+02  0.44171667185E+02  0.00000000000E+00 0. -1.
</event>
<event>
 7    1  0.2578619E-015  0.9000762E+02  0.7816164E-02  0.1186339E+00
        -11   -1    0    0    0    0  0.00000000000E+00  0.00000000000E+00  0.45593999997E+02  0.45594000000E+02  0.51100000000E-03 0.  1.
         11   -1    0    0    0    0 -0.00000000000E+00 -0.00000000000E+00 -0.45593999997E+02  0.45594000000E+02  0.51100000000E-03 0. -1.
    9900012    2    1    2    0    0  0.84218247603E+00  0.37847145966E+00 -0.73537496650E+00  0.90007623657E+02  0.89999883490E+02 0.  0.
        -12    1    1    2    0    0 -0.84218247603E+00 -0.37847145966E+00  0.73537496650E+00  0.11803763426E+01  0.00000000000E+00 0.  1.
         11    1    3    3    0    0  0.42441122563E+01  0.63727268399E+01  0.94384085361E+01  0.12153505345E+02  0.51100000000E-03 0. -1.
        -11    1    3    3    0    0  0.19687396845E+02  0.11156244483E+02  0.24135080347E+02  0.33084097224E+02  0.51100000000E-03 0.  1.
         12    1    3    3    0    0 -0.23089326626E+02 -0.17150499863E+02 -0.34308863850E+02  0.44770021088E+02  0.00000000000E+00 0. -1.
</event>
<event>
 7    1  0.2578619E-015  0.9000774E+02  0.7816164E-02  0.1186339E+00
        -11   -1    0    0    0    0  0.00000000000E+00  0.00000000000E+00  0.45593999997E+02  0.45594000000E+02  0.51100000000E-03 0.  1.
         11   -1    0    0    0    0 -0.00000000000E+00 -0.00000000000E+00 -0.45593999997E+02  0.45594000000E+02  0.51100000000E-03 0. -1.
    9900012    2    1    2    0    0 -0.80833556264E-02 -0.11165518199E+01  0.38244593795E+00  0.90007738079E+02  0.89999999421E+02 0.  0.
        -12    1    1    2    0    0  0.80833556263E-02  0.11165518199E+01 -0.38244593795E+00  0.11802619212E+01  0.00000000000E+00 0.  1.
         11    1    3    3    0    0  0.25411341330E+02 -0.29682925326E+02 -0.84960513784E+01  0.39987438195E+02  0.51100000000E-03 0. -1.
        -11    1    3    3    0    0  0.12253374039E+01  0.14469987783E+02  0.13130744711E+02  0.19578009478E+02  0.51100000000E-03 0.  1.
        -12    1    3    3    0    0 -0.26644762089E+02  0.14096385724E+02 -0.42522473950E+01  0.30442290406E+02  0.00000000000E+00 0.  1.
</event>
<event>
 7    1  0.2578619E-015  0.9000775E+02  0.7816164E-02  0.1186339E+00
        -11   -1    0    0    0    0  0.00000000000E+00  0.00000000000E+00  0.45593999997E+02  0.45594000000E+02  0.51100000000E-03 0. -1.
         11   -1    0    0    0    0 -0.00000000000E+00 -0.00000000000E+00 -0.45593999997E+02  0.45594000000E+02  0.51100000000E-03 0.  1.
    9900012    2    1    2    0    0 -0.48445132509E+00  0.30728050104E+00  0.10314419446E+01  0.90007751349E+02  0.90000012867E+02 0.  0.
        -12    1    1    2    0    0  0.48445132509E+00 -0.30728050104E+00 -0.10314419446E+01  0.11802486508E+01  0.00000000000E+00 0.  1.
         11    1    3    3    0    0  0.30564673539E+01 -0.83554065669E+01 -0.44957407796E+01  0.99682745248E+01  0.51100000000E-03 0. -1.
        -11    1    3    3    0    0  0.17247494582E+02 -0.23224954343E+02  0.24130137607E+02  0.37671449598E+02  0.51100000000E-03 0.  1.
         12    1    3    3    0    0 -0.20788413261E+02  0.31887641411E+02 -0.18602954883E+02  0.42368027226E+02  0.00000000000E+00 0. -1.
</event>
<event>
 7    1  0.2578619E-015  0.9000772E+02  0.7816164E-02  0.1186339E+00
        -11   -1    0    0    0    0  0.00000000000E+00  0.00000000000E+00  0.45593999997E+02  0.45594000000E+02  0.51100000000E-03 0.  1.
         11   -1    0    0    0    0 -0.00000000000E+00 -0.00000000000E+00 -0.45593999997E+02  0.45594000000E+02  0.51100000000E-03 0. -1.
    9900012    2    1    2    0    0 -0.96186395783E+00  0.46873543027E-02  0.68400821706E+00  0.90007715506E+02  0.89999976551E+02 0.  0.
        -12    1    1    2    0    0  0.96186395783E+00 -0.46873543027E-02 -0.68400821706E+00  0.11802844935E+01  0.00000000000E+00 0.  1.
         11    1    3    3    0    0 -0.21954360348E+02 -0.16961349910E+02 -0.29988856462E+02  0.40853553594E+02  0.51100000000E-03 0. -1.
        -11    1    3    3    0    0  0.33516910154E+01 -0.74367445699E+01  0.48749102538E+01  0.95028286686E+01  0.51100000000E-03 0.  1.
        -12    1    3    3    0    0  0.17640805375E+02  0.24402781834E+02  0.25797954425E+02  0.39651333244E+02  0.00000000000E+00 0.  1.
</event>
<event>
 7    1  0.2578619E-015  0.9000778E+02  0.7816164E-02  0.1186339E+00
        -11   -1    0    0    0    0  0.00000000000E+00  0.00000000000E+00  0.45593999997E+02  0.45594000000E+02  0.51100000000E-03 0.  1.
         11   -1    0    0    0    0 -0.00000000000E+00 -0.00000000000E+00 -0.45593999997E+02  0.45594000000E+02  0.51100000000E-03 0. -1.
    9900012    2    1    2    0    0  0.10841434255E+01 -0.43108379942E+00  0.17809827212E+00  0.90007780019E+02  0.90000041915E+02 0.  0.
        -12    1    1    2    0    0 -0.10841434255E+01  0.43108379942E+00 -0.17809827212E+00  0.11802199811E+01  0.00000000000E+00 0.  1.
         11    1    3    3    0    0  0.87655897473E+01  0.61957393323E+01  0.58336032177E+00  0.10750026001E+02  0.51100000000E-03 0. -1.
        -11    1    3    3    0    0 -0.14173051707E+02 -0.22375873827E+02  0.32667317594E+02  0.42056019346E+02  0.51100000000E-03 0.  1.
         12    1    3    3    0    0  0.64916053853E+01  0.15749050695E+02 -0.33072579644E+02  0.37201734672E+02  0.00000000000E+00 0. -1.
</event>
<event>
 7    1  0.2578619E-015  0.9000770E+02  0.7816164E-02  0.1186339E+00
        -11   -1    0    0    0    0  0.00000000000E+00  0.00000000000E+00  0.45593999997E+02  0.45594000000E+02  0.51100000000E-03 0. -1.
         11   -1    0    0    0    0 -0.00000000000E+00 -0.00000000000E+00 -0.45593999997E+02  0.45594000000E+02  0.51100000000E-03 0.  1.
    9900012    2    1    2    0    0  0.91896225916E+00 -0.50874393333E+00  0.53832666556E+00  0.90007700198E+02  0.89999961041E+02 0.  0.
        -12    1    1    2    0    0 -0.91896225916E+00  0.50874393333E+00 -0.53832666556E+00  0.11802998019E+01  0.00000000000E+00 0.  1.
         11    1    3    3    0    0  0.20300016877E+02 -0.34081961806E+02  0.81706155195E+01  0.40502219247E+02  0.51100000000E-03 0. -1.
        -11    1    3    3    0    0 -0.44890312310E+01 -0.41446747700E+01 -0.65250554373E+01  0.89390200281E+01  0.51100000000E-03 0.  1.
        -12    1    3    3    0    0 -0.14892023387E+02  0.37717892643E+02 -0.11072334166E+01  0.40566460923E+02  0.00000000000E+00 0.  1.
</event>
<event>
 7    1  0.2578619E-015  0.9000776E+02  0.7816164E-02  0.1186339E+00
        -11   -1    0    0    0    0  0.00000000000E+00  0.00000000000E+00  0.45593999997E+02  0.45594000000E+02  0.51100000000E-03 0.  1.
         11   -1    0    0    0    0 -0.00000000000E+00 -0.00000000000E+00 -0.45593999997E+02  0.45594000000E+02  0.51100000000E-03 0. -1.
    9900012    2    1    2    0    0  0.66785224521E+00 -0.74065651263E+00 -0.63116297342E+00  0.90007760452E+02  0.90000022090E+02 0.  0.
        -12    1    1    2    0    0 -0.66785224521E+00  0.74065651263E+00  0.63116297342E+00  0.11802395478E+01  0.00000000000E+00 0.  1.
         11    1    3    3    0    0  0.21602558080E+02 -0.38463889177E+01 -0.14469613841E+02  0.26283739237E+02  0.51100000000E-03 0. -1.
        -11    1    3    3    0    0  0.20443607472E+02 -0.16672239827E+01  0.35064623313E+01  0.20809036513E+02  0.51100000000E-03 0.  1.
         12    1    3    3    0    0 -0.41378313307E+02  0.47729563878E+01  0.10331988537E+02  0.42914984701E+02  0.00000000000E+00 0. -1.
</event>
<event>
 7    1  0.2578619E-015  0.9000770E+02  0.7816164E-02  0.1186339E+00
        -11   -1    0    0    0    0  0.00000000000E+00  0.00000000000E+00  0.45593999997E+02  0.45594000000E+02  0.51100000000E-03 0. -1.
         11   -1    0    0    0    0 -0.00000000000E+00 -0.00000000000E+00 -0.45593999997E+02  0.45594000000E+02  0.51100000000E-03 0.  1.
    9900012    2    1    2    0    0  0.87540360734E+00  0.34064128791E+00  0.71466168626E+00  0.90007699492E+02  0.89999960326E+02 0.  0.
        -12    1    1    2    0    0 -0.87540360734E+00 -0.34064128791E+00 -0.71466168626E+00  0.11803005077E+01  0.00000000000E+00 0.  1.
         11    1    3    3    0    0  0.62924998330E+01  0.11615525112E+02  0.44210710865E+00  0.13217845390E+02  0.51100000000E-03 0. -1.
        -11    1    3    3    0    0 -0.11556646372E+02 -0.15208794002E+01 -0.36467166170E+02  0.38284766661E+02  0.51100000000E-03 0.  1.
         12    1    3    3    0    0  0.61395501465E+01 -0.97540044243E+01  0.36739720748E+02  0.38505087442E+02  0.00000000000E+00 0. -1.
</event>
<event>
 7    1  0.2578619E-015  0.9000771E+02  0.7816164E-02  0.1186339E+00
        -11   -1    0    0    0    0  0.00000000000E+00  0.00000000000E+00  0.45593999997E+02  0.45594000000E+02  0.51100000000E-03 0.  1.
         11   -1    0    0    0    0 -0.00000000000E+00 -0.00000000000E+00 -0.45593999997E+02  0.45594000000E+02  0.51100000000E-03 0. -1.
    9900012    2    1    2    0    0  0.10698512793E+01  0.44505490785E+00  0.22455097083E+00  0.90007712421E+02  0.89999973425E+02 0.  0.
        -12    1    1    2    0    0 -0.10698512793E+01 -0.44505490785E+00 -0.22455097083E+00  0.11802875791E+01  0.00000000000E+00 0.  1.
         11    1    3    3    0    0  0.76895963476E+01 -0.24862425459E+01  0.35343338317E+01  0.88205901096E+01  0.51100000000E-03 0. -1.
        -11    1    3    3    0    0  0.70296207512E+01 -0.13667629382E+02  0.34459696818E+02  0.37731821661E+02  0.51100000000E-03 0.  1.
         12    1    3    3    0    0 -0.13649365819E+02  0.16598926836E+02 -0.37769479679E+02  0.43455300650E+02  0.00000000000E+00 0. -1.
</event>
<event>
 7    1  0.2578619E-015  0.9000780E+02  0.7816164E-02  0.1186339E+00
        -11   -1    0    0    0    0  0.00000000000E+00  0.00000000000E+00  0.45593999997E+02  0.45594000000E+02  0.51100000000E-03 0.  1.
         11   -1    0    0    0    0 -0.00000000000E+00 -0.00000000000E+00 -0.45593999997E+02  0.45594000000E+02  0.51100000000E-03 0. -1.
    9900012    2    1    2    0    0  0.48076206921E+00  0.10729497378E+01 -0.10259446772E+00  0.90007797080E+02  0.90000059202E+02 0.  0.
        -12    1    1    2    0    0 -0.48076206921E+00 -0.10729497378E+01  0.10259446772E+00  0.11802029198E+01  0.00000000000E+00 0.  1.
         11    1    3    3    0    0 -0.33911667069E+01  0.12145927787E+01 -0.12623473721E+02  0.13127350696E+02  0.51100000000E-03 0. -1.
        -11    1    3    3    0    0  0.22961632640E+02  0.29773204638E+02 -0.38575975915E+01  0.37796313939E+02  0.51100000000E-03 0.  1.
         12    1    3    3    0    0 -0.19089703864E+02 -0.29914847679E+02  0.16378476844E+02  0.39084132446E+02  0.00000000000E+00 0. -1.
</event>
<event>
 7    1  0.2578619E-015  0.9000756E+02  0.7816164E-02  0.1186339E+00
        -11   -1    0    0    0    0  0.00000000000E+00  0.00000000000E+00  0.45593999997E+02  0.45594000000E+02  0.51100000000E-03 0.  1.
         11   -1    0    0    0    0 -0.00000000000E+00 -0.00000000000E+00 -0.45593999997E+02  0.45594000000E+02  0.51100000000E-03 0. -1.
    9900012    2    1    2    0    0  0.81462296186E+00  0.67306962868E+00  0.52611615332E+00  0.90007563004E+02  0.89999822035E+02 0.  0.
        -12    1    1    2    0    0 -0.81462296186E+00 -0.67306962868E+00 -0.52611615332E+00  0.11804369961E+01  0.00000000000E+00 0.  1.
         11    1    3    3    0    0  0.26639547454E+01 -0.80834822073E+01  0.30070580196E+01  0.90267235294E+01  0.51100000000E-03 0. -1.
        -11    1    3    3    0    0  0.20493884487E+02 -0.26513852794E+02  0.13699862429E+02  0.36203175582E+02  0.51100000000E-03 0.  1.
         12    1    3    3    0    0 -0.22343216271E+02  0.35270404630E+02 -0.16180804295E+02  0.44777663893E+02  0.00000000000E+00 0. -1.
</event>
<event>
 7    1  0.2578619E-015  0.9000785E+02  0.7816164E-02  0.1186339E+00
        -11   -1    0    0    0    0  0.00000000000E+00  0.00000000000E+00  0.45593999997E+02  0.45594000000E+02  0.51100000000E-03 0.  1.
         11   -1    0    0    0    0 -0.00000000000E+00 -0.00000000000E+00 -0.45593999997E+02  0.45594000000E+02  0.51100000000E-03 0. -1.
    9900012    2    1    2    0    0  0.63431000338E+00  0.92453672558E+00  0.36829923991E+00  0.90007846761E+02  0.90000109538E+02 0.  0.
        -12    1    1    2    0    0 -0.63431000338E+00 -0.92453672558E+00 -0.36829923991E+00  0.11801532390E+01  0.00000000000E+00 0.  1.
         11    1    3    3    0    0  0.12353160453E+02 -0.11849153029E+02  0.60944010731E+01  0.18169885123E+02  0.51100000000E-03 0. -1.
        -11    1    3    3    0    0  0.59129958497E+01  0.37936584581E+02  0.61752547502E+01  0.38888066821E+02  0.51100000000E-03 0.  1.
         12    1    3    3    0    0 -0.17631846299E+02 -0.25162894826E+02 -0.11901356583E+02  0.32949894817E+02  0.00000000000E+00 0. -1.
</event>
<event>
 7    1  0.2578619E-015  0.9000766E+02  0.7816164E-02  0.1186339E+00
        -11   -1    0    0    0    0  0.00000000000E+00  0.00000000000E+00  0.45593999997E+02  0.45594000000E+02  0.51100000000E-03 0.  1.
         11   -1    0    0    0    0 -0.00000000000E+00 -0.00000000000E+00 -0.45593999997E+02  0.45594000000E+02  0.51100000000E-03 0. -1.
    9900012    2    1    2    0    0 -0.26213598215E+00  0.10310335966E+01 -0.51132777967E+00  0.90007660367E+02  0.89999920684E+02 0.  0.
        -12    1    1    2    0    0  0.26213598215E+00 -0.10310335966E+01  0.51132777967E+00  0.11803396328E+01  0.00000000000E+00 0.  1.
         11    1    3    3    0    0  0.27570548912E+02  0.82691761540E+00 -0.25588494648E+02  0.37624327485E+02  0.51100000000E-03 0. -1.
        -11    1    3    3    0    0 -0.31719924683E+01  0.50492756155E+01 -0.85365958886E+01  0.10412981806E+02  0.51100000000E-03 0.  1.
        -12    1    3    3    0    0 -0.24660692426E+02 -0.48451596343E+01  0.33613762757E+02  0.41970351077E+02  0.00000000000E+00 0.  1.
</event>
<event>
 7    1  0.2578619E-015  0.9000806E+02  0.7816164E-02  0.1186338E+00
        -11   -1    0    0    0    0  0.00000000000E+00  0.00000000000E+00  0.45593999997E+02  0.45594000000E+02  0.51100000000E-03 0.  1.
         11   -1    0    0    0    0 -0.00000000000E+00 -0.00000000000E+00 -0.45593999997E+02  0.45594000000E+02  0.51100000000E-03 0. -1.
    9900012    2    1    2    0    0  0.10629306593E+01  0.22242729881E+00 -0.46147213814E+00  0.90008062703E+02  0.90000328330E+02 0.  0.
        -12    1    1    2    0    0 -0.10629306593E+01 -0.22242729881E+00  0.46147213814E+00  0.11799372966E+01  0.00000000000E+00 0.  1.
         11    1    3    3    0    0 -0.12695085872E+02  0.36273033766E+02  0.55475637685E+01  0.38828773454E+02  0.51100000000E-03 0. -1.
        -11    1    3    3    0    0 -0.78860306255E+01 -0.90344189904E+00  0.37279032006E+01  0.87694326399E+01  0.51100000000E-03 0.  1.
        -12    1    3    3    0    0  0.21644047157E+02 -0.35147164568E+02 -0.97369391073E+01  0.42409856610E+02  0.00000000000E+00 0.  1.
</event>
<event>
 7    1  0.2578619E-015  0.9000774E+02  0.7816164E-02  0.1186339E+00
        -11   -1    0    0    0    0  0.00000000000E+00  0.00000000000E+00  0.45593999997E+02  0.45594000000E+02  0.51100000000E-03 0. -1.
         11   -1    0    0    0    0 -0.00000000000E+00 -0.00000000000E+00 -0.45593999997E+02  0.45594000000E+02  0.51100000000E-03 0.  1.
    9900012    2    1    2    0    0 -0.82747492375E+00 -0.60851942353E+00  0.58137919954E+00  0.90007740532E+02  0.90000001907E+02 0.  0.
        -12    1    1    2    0    0  0.82747492375E+00  0.60851942353E+00 -0.58137919954E+00  0.11802594680E+01  0.00000000000E+00 0.  1.
         11    1    3    3    0    0 -0.35629261280E+01 -0.15068311496E+02  0.39568169497E+02  0.42489863398E+02  0.51100000000E-03 0. -1.
        -11    1    3    3    0    0 -0.62897414565E+01 -0.29909873200E+01 -0.63551297576E+01  0.94283894295E+01  0.51100000000E-03 0.  1.
        -12    1    3    3    0    0  0.90251926607E+01  0.17450779393E+02 -0.32631660540E+02  0.38089487705E+02  0.00000000000E+00 0.  1.
</event>
<event>
 7    1  0.2578619E-015  0.9000767E+02  0.7816164E-02  0.1186339E+00
        -11   -1    0    0    0    0  0.00000000000E+00  0.00000000000E+00  0.45593999997E+02  0.45594000000E+02  0.51100000000E-03 0.  1.
         11   -1    0    0    0    0 -0.00000000000E+00 -0.00000000000E+00 -0.45593999997E+02  0.45594000000E+02  0.51100000000E-03 0. -1.
    9900012    2    1    2    0    0 -0.68929321992E-01  0.24445935209E+00 -0.11526778133E+01  0.90007670484E+02  0.89999930934E+02 0.  0.
        -12    1    1    2    0    0  0.68929321992E-01 -0.24445935209E+00  0.11526778133E+01  0.11803295165E+01  0.00000000000E+00 0.  1.
         11    1    3    3    0    0  0.38359931014E+02 -0.20405396013E+01  0.18640703989E+01  0.38459366453E+02  0.51100000000E-03 0. -1.
        -11    1    3    3    0    0  0.29829751844E+01  0.70068186085E+01 -0.60957410483E+01  0.97545736530E+01  0.51100000000E-03 0.  1.
        -12    1    3    3    0    0 -0.41411835520E+02 -0.47218196551E+01  0.30789928361E+01  0.41793730378E+02  0.00000000000E+00 0.  1.
</event>
<event>
 7    1  0.2578619E-015  0.9000780E+02  0.7816164E-02  0.1186339E+00
        -11   -1    0    0    0    0  0.00000000000E+00  0.00000000000E+00  0.45593999997E+02  0.45594000000E+02  0.51100000000E-03 0. -1.
         11   -1    0    0    0    0 -0.00000000000E+00 -0.00000000000E+00 -0.45593999997E+02  0.45594000000E+02  0.51100000000E-03 0.  1.
    9900012    2    1    2    0    0  0.98218356406E+00  0.65435139962E+00 -0.16921550287E-02  0.90007803757E+02  0.90000065967E+02 0.  0.
        -12    1    1    2    0    0 -0.98218356406E+00 -0.65435139962E+00  0.16921550287E-02  0.11801962426E+01  0.00000000000E+00 0.  1.
         11    1    3    3    0    0 -0.45148246980E+01 -0.37858490842E+01 -0.10917886478E+02  0.12406310521E+02  0.51100000000E-03 0. -1.
        -11    1    3    3    0    0  0.46676999956E+01  0.18055462206E+02 -0.29525173555E+02  0.34921669669E+02  0.51100000000E-03 0.  1.
         12    1    3    3    0    0  0.82930826642E+00 -0.13615261722E+02  0.40441367878E+02  0.42679823568E+02  0.00000000000E+00 0. -1.
</event>
<event>
 7    1  0.2578619E-015  0.9000789E+02  0.7816164E-02  0.1186339E+00
        -11   -1    0    0    0    0  0.00000000000E+00  0.00000000000E+00  0.45593999997E+02  0.45594000000E+02  0.51100000000E-03 0. -1.
         11   -1    0    0    0    0 -0.00000000000E+00 -0.00000000000E+00 -0.45593999997E+02  0.45594000000E+02  0.51100000000E-03 0.  1.
    9900012    2    1    2    0    0 -0.76565696299E+00 -0.54344276565E-02  0.89799912164E+00  0.90007888759E+02  0.90000152091E+02 0.  0.
        -12    1    1    2    0    0  0.76565696299E+00  0.54344276565E-02 -0.89799912164E+00  0.11801112407E+01  0.00000000000E+00 0.  1.
         11    1    3    3    0    0  0.66265979553E+01 -0.20308376557E+02 -0.71373634991E+01  0.22522964211E+02  0.51100000000E-03 0. -1.
        -11    1    3    3    0    0 -0.26641843015E+01  0.19895835593E+02 -0.26153158266E+02  0.32968619011E+02  0.51100000000E-03 0.  1.
         12    1    3    3    0    0 -0.47280706168E+01  0.40710653662E+00  0.34188520887E+02  0.34516305537E+02  0.00000000000E+00 0. -1.
</event>
<event>
 7    1  0.2578619E-015  0.9000773E+02  0.7816164E-02  0.1186339E+00
        -11   -1    0    0    0    0  0.00000000000E+00  0.00000000000E+00  0.45593999997E+02  0.45594000000E+02  0.51100000000E-03 0. -1.
         11   -1    0    0    0    0 -0.00000000000E+00 -0.00000000000E+00 -0.45593999997E+02  0.45594000000E+02  0.51100000000E-03 0.  1.
    9900012    2    1    2    0    0  0.50250491753E+00  0.10524612876E+01 -0.18123166059E+00  0.90007732713E+02  0.89999993985E+02 0.  0.
        -12    1    1    2    0    0 -0.50250491753E+00 -0.10524612876E+01  0.18123166059E+00  0.11802672870E+01  0.00000000000E+00 0.  1.
         11    1    3    3    0    0  0.33724859617E+02 -0.16462378329E+02 -0.11160989528E+01  0.37544929533E+02  0.51100000000E-03 0. -1.
        -11    1    3    3    0    0 -0.41265779988E+00  0.23933982926E+01 -0.13383553115E+02  0.13602137188E+02  0.51100000000E-03 0.  1.
        -12    1    3    3    0    0 -0.32809696900E+02  0.15121441324E+02  0.14318420407E+02  0.38860665992E+02  0.00000000000E+00 0.  1.
</event>
<event>
 7    1  0.2578619E-015  0.9000776E+02  0.7816164E-02  0.1186339E+00
        -11   -1    0    0    0    0  0.00000000000E+00  0.00000000000E+00  0.45593999997E+02  0.45594000000E+02  0.51100000000E-03 0.  1.
         11   -1    0    0    0    0 -0.00000000000E+00 -0.00000000000E+00 -0.45593999997E+02  0.45594000000E+02  0.51100000000E-03 0. -1.
    9900012    2    1    2    0    0 -0.80592441611E+00  0.85460644803E+00  0.11450250284E+00  0.90007755462E+02  0.90000017034E+02 0.  0.
        -12    1    1    2    0    0  0.80592441611E+00 -0.85460644803E+00 -0.11450250284E+00  0.11802445376E+01  0.00000000000E+00 0.  1.
         11    1    3    3    0    0  0.76487582947E+01 -0.14265624080E+01  0.60319517712E+01  0.98449492729E+01  0.51100000000E-03 0. -1.
        -11    1    3    3    0    0  0.26546396820E+02  0.10635650868E+02  0.20785117687E+02  0.35353208780E+02  0.51100000000E-03 0.  1.
         12    1    3    3    0    0 -0.35001079531E+02 -0.83544820117E+01 -0.26702566956E+02  0.44809597410E+02  0.00000000000E+00 0. -1.
</event>
<event>
 7    1  0.2578619E-015  0.9000769E+02  0.7816164E-02  0.1186339E+00
        -11   -1    0    0    0    0  0.00000000000E+00  0.00000000000E+00  0.45593999997E+02  0.45594000000E+02  0.51100000000E-03 0. -1.
         11   -1    0    0    0    0 -0.00000000000E+00 -0.00000000000E+00 -0.45593999997E+02  0.45594000000E+02  0.51100000000E-03 0.  1.
    9900012    2    1    2    0    0  0.88695435805E+00 -0.41367963986E+00  0.65978605352E+00  0.90007687959E+02  0.89999948640E+02 0.  0.
        -12    1    1    2    0    0 -0.88695435805E+00  0.41367963986E+00 -0.65978605352E+00  0.11803120410E+01  0.00000000000E+00 0.  1.
         11    1    3    3    0    0 -0.95148978857E+01  0.81951899553E+01 -0.47398430062E+01  0.13422389212E+02  0.51100000000E-03 0. -1.
        -11    1    3    3    0    0 -0.31283760960E+02 -0.71749329210E+01 -0.74332926679E+01  0.32945518699E+02  0.51100000000E-03 0.  1.
         12    1    3    3    0    0  0.41685613204E+02 -0.14339366741E+01  0.12832921728E+02  0.43639780048E+02  0.00000000000E+00 0. -1.
</event>
<event>
 7    1  0.2578619E-015  0.9000727E+02  0.7816164E-02  0.1186340E+00
        -11   -1    0    0    0    0  0.00000000000E+00  0.00000000000E+00  0.45593999997E+02  0.45594000000E+02  0.51100000000E-03 0. -1.
         11   -1    0    0    0    0 -0.00000000000E+00 -0.00000000000E+00 -0.45593999997E+02  0.45594000000E+02  0.51100000000E-03 0.  1.
    9900012    2    1    2    0    0 -0.11062090923E+01 -0.41193883285E+00 -0.26953940813E-01  0.90007271973E+02  0.89999527162E+02 0.  0.
        -12    1    1    2    0    0  0.11062090923E+01  0.41193883285E+00  0.26953940813E-01  0.11807280266E+01  0.00000000000E+00 0.  1.
         11    1    3    3    0    0  0.94372438519E+00  0.41285186876E+02 -0.27643326544E+01  0.41388389754E+02  0.51100000000E-03 0. -1.
        -11    1    3    3    0    0 -0.92182081451E+01 -0.58776220148E+01  0.49946113249E+01  0.12019481873E+02  0.51100000000E-03 0.  1.
        -12    1    3    3    0    0  0.71682746676E+01 -0.35819503695E+02 -0.22572326113E+01  0.36599400346E+02  0.00000000000E+00 0.  1.
</event>
<event>
 7    1  0.2578619E-015  0.9000779E+02  0.7816164E-02  0.1186339E+00
        -11   -1    0    0    0    0  0.00000000000E+00  0.00000000000E+00  0.45593999997E+02  0.45594000000E+02  0.51100000000E-03 0.  1.
         11   -1    0    0    0    0 -0.00000000000E+00 -0.00000000000E+00 -0.45593999997E+02  0.45594000000E+02  0.51100000000E-03 0. -1.
    9900012    2    1    2    0    0 -0.89094139444E+00 -0.77339245711E+00 -0.31467202146E-01  0.90007787034E+02  0.90000049023E+02 0.  0.
        -12    1    1    2    0    0  0.89094139444E+00  0.77339245711E+00  0.31467202146E-01  0.11802129663E+01  0.00000000000E+00 0.  1.
         11    1    3    3    0    0 -0.12506599101E+02  0.36172942303E+02 -0.10780232144E+02  0.39763176197E+02  0.51100000000E-03 0. -1.
        -11    1    3    3    0    0 -0.77375100507E+01 -0.27719533195E+01 -0.28254127967E+01  0.86911302327E+01  0.51100000000E-03 0.  1.
        -12    1    3    3    0    0  0.19353167757E+02 -0.34174381440E+02  0.13574177738E+02  0.41553480604E+02  0.00000000000E+00 0.  1.
</event>
<event>
 7    1  0.2578619E-015  0.9000777E+02  0.7816164E-02  0.1186339E+00
        -11   -1    0    0    0    0  0.00000000000E+00  0.00000000000E+00  0.45593999997E+02  0.45594000000E+02  0.51100000000E-03 0. -1.
         11   -1    0    0    0    0 -0.00000000000E+00 -0.00000000000E+00 -0.45593999997E+02  0.45594000000E+02  0.51100000000E-03 0.  1.
    9900012    2    1    2    0    0 -0.10817705341E+01  0.43850379817E+00 -0.17445156318E+00  0.90007768490E+02  0.90000030234E+02 0.  0.
        -12    1    1    2    0    0  0.10817705341E+01 -0.43850379817E+00  0.17445156318E+00  0.11802315101E+01  0.00000000000E+00 0.  1.
         11    1    3    3    0    0  0.69228521605E+01 -0.26301433268E+01 -0.13375083357E+02  0.15288439784E+02  0.51100000000E-03 0. -1.
        -11    1    3    3    0    0 -0.17190745284E+00  0.44795801636E+01 -0.30232485829E+02  0.30563039612E+02  0.51100000000E-03 0.  1.
         12    1    3    3    0    0 -0.78327152418E+01 -0.14109330386E+01  0.43433117623E+02  0.44156289094E+02  0.00000000000E+00 0. -1.
</event>
<event>
 7    1  0.2578619E-015  0.9000776E+02  0.7816164E-02  0.1186339E+00
        -11   -1    0    0    0    0  0.00000000000E+00  0.00000000000E+00  0.45593999997E+02  0.45594000000E+02  0.51100000000E-03 0. -1.
         11   -1    0    0    0    0 -0.00000000000E+00 -0.00000000000E+00 -0.45593999997E+02  0.45594000000E+02  0.51100000000E-03 0.  1.
    9900012    2    1    2    0    0  0.68715690588E+00  0.28125337604E+00  0.91742507525E+00  0.90007764073E+02  0.90000025759E+02 0.  0.
        -12    1    1    2    0    0 -0.68715690588E+00 -0.28125337604E+00 -0.91742507525E+00  0.11802359271E+01  0.00000000000E+00 0.  1.
         11    1    3    3    0    0  0.25899424864E+02 -0.24218220334E+02 -0.55230894170E+01  0.35886026827E+02  0.51100000000E-03 0. -1.
        -11    1    3    3    0    0 -0.11438174070E+02 -0.45920272221E+01  0.16320603395E+02  0.20451910314E+02  0.51100000000E-03 0.  1.
        -12    1    3    3    0    0 -0.13774093888E+02  0.29091500932E+02 -0.98800889023E+01  0.33669826932E+02  0.00000000000E+00 0.  1.
</event>
<event>
 7    1  0.2578619E-015  0.9000796E+02  0.7816164E-02  0.1186339E+00
        -11   -1    0    0    0    0  0.00000000000E+00  0.00000000000E+00  0.45593999997E+02  0.45594000000E+02  0.51100000000E-03 0.  1.
         11   -1    0    0    0    0 -0.00000000000E+00 -0.00000000000E+00 -0.45593999997E+02  0.45594000000E+02  0.51100000000E-03 0. -1.
    9900012    2    1    2    0    0  0.83656198952E+00 -0.42555500832E+00 -0.71523882311E+00  0.90007957797E+02  0.90000222039E+02 0.  0.
        -12    1    1    2    0    0 -0.83656198952E+00  0.42555500832E+00  0.71523882311E+00  0.11800422033E+01  0.00000000000E+00 0.  1.
         11    1    3    3    0    0 -0.24908711985E+02 -0.23796588148E+02 -0.11398728362E+02  0.36285707225E+02  0.51100000000E-03 0. -1.
        -11    1    3    3    0    0 -0.10563149121E+02  0.53588017409E+01  0.15233166588E+00  0.11845677720E+02  0.51100000000E-03 0.  1.
        -12    1    3    3    0    0  0.36308423096E+02  0.18012231399E+02  0.10531157873E+02  0.41876572852E+02  0.00000000000E+00 0.  1.
</event>
<event>
 7    1  0.2578619E-015  0.9000775E+02  0.7816164E-02  0.1186339E+00
        -11   -1    0    0    0    0  0.00000000000E+00  0.00000000000E+00  0.45593999997E+02  0.45594000000E+02  0.51100000000E-03 0. -1.
         11   -1    0    0    0    0 -0.00000000000E+00 -0.00000000000E+00 -0.45593999997E+02  0.45594000000E+02  0.51100000000E-03 0.  1.
    9900012    2    1    2    0    0  0.43140906189E+00  0.99307315019E+00  0.46977989768E+00  0.90007745276E+02  0.90000006714E+02 0.  0.
        -12    1    1    2    0    0 -0.43140906189E+00 -0.99307315019E+00 -0.46977989768E+00  0.11802547236E+01  0.00000000000E+00 0.  1.
         11    1    3    3    0    0 -0.70205109633E+01  0.29414799784E+01 -0.29000942812E+01  0.81455770667E+01  0.51100000000E-03 0. -1.
        -11    1    3    3    0    0 -0.28517697810E+02  0.65751101724E+01 -0.22354266449E+02  0.36826680422E+02  0.51100000000E-03 0.  1.
         12    1    3    3    0    0  0.35969617835E+02 -0.85235170006E+01  0.25724140627E+02  0.45035487788E+02  0.00000000000E+00 0. -1.
</event>
<event>
 7    1  0.2578619E-015  0.9000773E+02  0.7816164E-02  0.1186339E+00
        -11   -1    0    0    0    0  0.00000000000E+00  0.00000000000E+00  0.45593999997E+02  0.45594000000E+02  0.51100000000E-03 0. -1.
         11   -1    0    0    0    0 -0.00000000000E+00 -0.00000000000E+00 -0.45593999997E+02  0.45594000000E+02  0.51100000000E-03 0.  1.
    9900012    2    1    2    0    0  0.18221313378E+00 -0.92947578691E+00  0.70420832966E+00  0.90007730439E+02  0.89999991681E+02 0.  0.
        -12    1    1    2    0    0 -0.18221313378E+00  0.92947578691E+00 -0.70420832966E+00  0.11802695608E+01  0.00000000000E+00 0.  1.
         11    1    3    3    0    0  0.48822161797E+01 -0.65667233293E+01  0.65279124526E+01  0.10467642111E+02  0.51100000000E-03 0. -1.
        -11    1    3    3    0    0 -0.39472386927E+02 -0.67014049288E+01 -0.12710257851E+02  0.42006294917E+02  0.51100000000E-03 0.  1.
         12    1    3    3    0    0  0.34772383881E+02  0.12338652471E+02  0.68865537283E+01  0.37533793411E+02  0.00000000000E+00 0. -1.
</event>
<event>
 7    1  0.2578619E-015  0.9000772E+02  0.7816164E-02  0.1186339E+00
        -11   -1    0    0    0    0  0.00000000000E+00  0.00000000000E+00  0.45593999997E+02  0.45594000000E+02  0.51100000000E-03 0.  1.
         11   -1    0    0    0    0 -0.00000000000E+00 -0.00000000000E+00 -0.45593999997E+02  0.45594000000E+02  0.51100000000E-03 0. -1.
    9900012    2    1    2    0    0  0.98543689662E+00 -0.64384508735E+00  0.86189525096E-01  0.90007724181E+02  0.89999985341E+02 0.  0.
        -12    1    1    2    0    0 -0.98543689662E+00  0.64384508735E+00 -0.86189525096E-01  0.11802758186E+01  0.00000000000E+00 0.  1.
         11    1    3    3    0    0 -0.74140866523E+01  0.79534951451E+01 -0.85109664156E+01  0.13808088771E+02  0.51100000000E-03 0. -1.
        -11    1    3    3    0    0  0.29050749254E+02  0.23619808144E+02  0.46536437788E+01  0.37729269403E+02  0.51100000000E-03 0.  1.
         12    1    3    3    0    0 -0.20651225705E+02 -0.32217148377E+02  0.39435121618E+01  0.38470366008E+02  0.00000000000E+00 0. -1.
</event>
<event>
 7    1  0.2578619E-015  0.9000779E+02  0.7816164E-02  0.1186339E+00
        -11   -1    0    0    0    0  0.00000000000E+00  0.00000000000E+00  0.45593999997E+02  0.45594000000E+02  0.51100000000E-03 0.  1.
         11   -1    0    0    0    0 -0.00000000000E+00 -0.00000000000E+00 -0.45593999997E+02  0.45594000000E+02  0.51100000000E-03 0. -1.
    9900012    2    1    2    0    0  0.45330246630E-01  0.84743333333E+00 -0.82018018793E+00  0.90007790855E+02  0.90000052894E+02 0.  0.
        -12    1    1    2    0    0 -0.45330246630E-01 -0.84743333333E+00  0.82018018793E+00  0.11802091452E+01  0.00000000000E+00 0.  1.
         11    1    3    3    0    0  0.17972776039E+02  0.31390249199E+01 -0.34381910085E+02  0.38922871135E+02  0.51100000000E-03 0. -1.
        -11    1    3    3    0    0  0.62192086394E+01 -0.73007474956E+01  0.19310254354E+00  0.95925366275E+01  0.51100000000E-03 0.  1.
        -12    1    3    3    0    0 -0.24146654432E+02  0.50091559091E+01  0.33368627354E+02  0.41492383092E+02  0.00000000000E+00 0.  1.
</event>
<event>
 7    1  0.2578619E-015  0.9000823E+02  0.7816164E-02  0.1186338E+00
        -11   -1    0    0    0    0  0.00000000000E+00  0.00000000000E+00  0.45593999997E+02  0.45594000000E+02  0.51100000000E-03 0.  1.
         11   -1    0    0    0    0 -0.00000000000E+00 -0.00000000000E+00 -0.45593999997E+02  0.45594000000E+02  0.51100000000E-03 0. -1.
    9900012    2    1    2    0    0 -0.36505028466E-01  0.48063208135E+00 -0.10768081779E+01  0.90008230672E+02  0.90000498516E+02 0.  0.
        -12    1    1    2    0    0  0.36505028466E-01 -0.48063208135E+00  0.10768081779E+01  0.11797693277E+01  0.00000000000E+00 0.  1.
         11    1    3    3    0    0  0.57304839167E+01  0.79320280267E+01  0.56479679995E+01  0.11298453758E+02  0.51100000000E-03 0. -1.
        -11    1    3    3    0    0 -0.24690705979E+02 -0.24755892152E+02  0.21126832270E+02  0.40851293737E+02  0.51100000000E-03 0.  1.
         12    1    3    3    0    0  0.18923717034E+02  0.17304496206E+02 -0.27851608447E+02  0.37858483177E+02  0.00000000000E+00 0. -1.
</event>
<event>
 7    1  0.2578619E-015  0.9000773E+02  0.7816164E-02  0.1186339E+00
        -11   -1    0    0    0    0  0.00000000000E+00  0.00000000000E+00  0.45593999997E+02  0.45594000000E+02  0.51100000000E-03 0. -1.
         11   -1    0    0    0    0 -0.00000000000E+00 -0.00000000000E+00 -0.45593999997E+02  0.45594000000E+02  0.51100000000E-03 0.  1.
    9900012    2    1    2    0    0 -0.38923485890E+00  0.48540925684E+00  0.10029554775E+01  0.90007726467E+02  0.89999987657E+02 0.  0.
        -12    1    1    2    0    0  0.38923485890E+00 -0.48540925684E+00 -0.10029554775E+01  0.11802735327E+01  0.00000000000E+00 0.  1.
         11    1    3    3    0    0 -0.24636377662E+01 -0.89110832322E+01  0.42938367978E+00  0.92553382445E+01  0.51100000000E-03 0. -1.
        -11    1    3    3    0    0 -0.18208175767E+02 -0.29578494764E+02 -0.87909066510E+01  0.35828829974E+02  0.51100000000E-03 0.  1.
         12    1    3    3    0    0  0.20282578675E+02  0.38974987254E+02  0.93644784487E+01  0.44923558249E+02  0.00000000000E+00 0. -1.
</event>
<event>
 7    1  0.2578619E-015  0.9000726E+02  0.7816164E-02  0.1186340E+00
        -11   -1    0    0    0    0  0.00000000000E+00  0.00000000000E+00  0.45593999997E+02  0.45594000000E+02  0.51100000000E-03 0.  1.
         11   -1    0    0    0    0 -0.00000000000E+00 -0.00000000000E+00 -0.45593999997E+02  0.45594000000E+02  0.51100000000E-03 0. -1.
    9900012    2    1    2    0    0  0.27552739748E+00  0.93169005747E-01 -0.11443559892E+01  0.90007260215E+02  0.89999515248E+02 0.  0.
        -12    1    1    2    0    0 -0.27552739748E+00 -0.93169005747E-01  0.11443559892E+01  0.11807397853E+01  0.00000000000E+00 0.  1.
         11    1    3    3    0    0  0.87497541255E+01  0.12711815139E+02 -0.33747782978E+02  0.37108776557E+02  0.51100000000E-03 0. -1.
        -11    1    3    3    0    0 -0.81364814493E+01  0.17160672409E+01 -0.69429434075E+01  0.10832898069E+02  0.51100000000E-03 0.  1.
        -12    1    3    3    0    0 -0.33774527880E+00 -0.14334713374E+02  0.39546370396E+02  0.42065585589E+02  0.00000000000E+00 0.  1.
</event>
<event>
 7    1  0.2578619E-015  0.9000721E+02  0.7816164E-02  0.1186340E+00
        -11   -1    0    0    0    0  0.00000000000E+00  0.00000000000E+00  0.45593999997E+02  0.45594000000E+02  0.51100000000E-03 0.  1.
         11   -1    0    0    0    0 -0.00000000000E+00 -0.00000000000E+00 -0.45593999997E+02  0.45594000000E+02  0.51100000000E-03 0. -1.
    9900012    2    1    2    0    0  0.99032537859E+00 -0.25375726660E+00 -0.59086821708E+00  0.90007211130E+02  0.89999465515E+02 0.  0.
        -12    1    1    2    0    0 -0.99032537859E+00  0.25375726660E+00  0.59086821708E+00  0.11807888701E+01  0.00000000000E+00 0.  1.
         11    1    3    3    0    0 -0.19353174123E+02  0.28749319691E+02  0.44224635871E+01  0.34937471514E+02  0.51100000000E-03 0. -1.
        -11    1    3    3    0    0 -0.71929333949E-01  0.10400545016E+02 -0.19824576144E+01  0.10588042733E+02  0.51100000000E-03 0.  1.
        -12    1    3    3    0    0  0.20415428835E+02 -0.39403621974E+02 -0.30308741898E+01  0.44481696883E+02  0.00000000000E+00 0.  1.
</event>
<event>
 7    1  0.2578619E-015  0.9000758E+02  0.7816164E-02  0.1186339E+00
        -11   -1    0    0    0    0  0.00000000000E+00  0.00000000000E+00  0.45593999997E+02  0.45594000000E+02  0.51100000000E-03 0.  1.
         11   -1    0    0    0    0 -0.00000000000E+00 -0.00000000000E+00 -0.45593999997E+02  0.45594000000E+02  0.51100000000E-03 0. -1.
    9900012    2    1    2    0    0 -0.47511094962E+00 -0.96680049284E+00 -0.48266000481E+00  0.90007578767E+02  0.89999838006E+02 0.  0.
        -12    1    1    2    0    0  0.47511094962E+00  0.96680049284E+00  0.48266000481E+00  0.11804212331E+01  0.00000000000E+00 0.  1.
         11    1    3    3    0    0 -0.20024371944E+02  0.63866135705E+01 -0.54427854588E+01  0.21711476653E+02  0.51100000000E-03 0. -1.
        -11    1    3    3    0    0 -0.19487661706E+02 -0.17388754151E+02 -0.54211810316E+01  0.26674462201E+02  0.51100000000E-03 0.  1.
        -12    1    3    3    0    0  0.39036922701E+02  0.10035340087E+02  0.10381306486E+02  0.41621639912E+02  0.00000000000E+00 0.  1.
</event>
<event>
 7    1  0.2578619E-015  0.9000770E+02  0.7816164E-02  0.1186339E+00
        -11   -1    0    0    0    0  0.00000000000E+00  0.00000000000E+00  0.45593999997E+02  0.45594000000E+02  0.51100000000E-03 0. -1.
         11   -1    0    0    0    0 -0.00000000000E+00 -0.00000000000E+00 -0.45593999997E+02  0.45594000000E+02  0.51100000000E-03 0.  1.
    9900012    2    1    2    0    0  0.59784179943E+00  0.96569498177E+00 -0.32114161822E+00  0.90007697685E+02  0.89999958495E+02 0.  0.
        -12    1    1    2    0    0 -0.59784179943E+00 -0.96569498177E+00  0.32114161822E+00  0.11803023146E+01  0.00000000000E+00 0.  1.
         11    1    3    3    0    0  0.15627301272E+02  0.22449246119E+02  0.15141103271E+02  0.31263944167E+02  0.51100000000E-03 0. -1.
        -11    1    3    3    0    0  0.10679658555E+02  0.85205651470E+01  0.46185234005E+01  0.14421716123E+02  0.51100000000E-03 0.  1.
        -12    1    3    3    0    0 -0.25709118028E+02 -0.30004116284E+02 -0.20080768290E+02  0.44322037395E+02  0.00000000000E+00 0.  1.
</event>
<event>
 7    1  0.2578619E-015  0.9000769E+02  0.7816164E-02  0.1186339E+00
        -11   -1    0    0    0    0  0.00000000000E+00  0.00000000000E+00  0.45593999997E+02  0.45594000000E+02  0.51100000000E-03 0.  1.
         11   -1    0    0    0    0 -0.00000000000E+00 -0.00000000000E+00 -0.45593999997E+02  0.45594000000E+02  0.51100000000E-03 0. -1.
    9900012    2    1    2    0    0 -0.11382500036E+01 -0.24216426643E+00 -0.19716815461E+00  0.90007689921E+02  0.89999950627E+02 0.  0.
        -12    1    1    2    0    0  0.11382500036E+01  0.24216426643E+00  0.19716815461E+00  0.11803100795E+01  0.00000000000E+00 0.  1.
         11    1    3    3    0    0  0.25772302899E+02 -0.41273375288E+01 -0.27379179258E+02  0.37826789037E+02  0.51100000000E-03 0. -1.
        -11    1    3    3    0    0  0.41429343227E+01  0.52267478394E+01 -0.43037503214E+01  0.79375729836E+01  0.51100000000E-03 0.  1.
        -12    1    3    3    0    0 -0.31053487225E+02 -0.13415745770E+01  0.31485761424E+02  0.44243327900E+02  0.00000000000E+00 0.  1.
</event>
<event>
 7    1  0.2578619E-015  0.9000771E+02  0.7816164E-02  0.1186339E+00
        -11   -1    0    0    0    0  0.00000000000E+00  0.00000000000E+00  0.45593999997E+02  0.45594000000E+02  0.51100000000E-03 0.  1.
         11   -1    0    0    0    0 -0.00000000000E+00 -0.00000000000E+00 -0.45593999997E+02  0.45594000000E+02  0.51100000000E-03 0. -1.
    9900012    2    1    2    0    0  0.57688576547E+00 -0.81373531934E+00 -0.63097118448E+00  0.90007708938E+02  0.89999969896E+02 0.  0.
        -12    1    1    2    0    0 -0.57688576547E+00  0.81373531934E+00  0.63097118448E+00  0.11802910624E+01  0.00000000000E+00 0.  1.
         11    1    3    3    0    0  0.17253120624E+01 -0.40999182540E+01 -0.91828596562E+01  0.10203477012E+02  0.51100000000E-03 0. -1.
        -11    1    3    3    0    0  0.37955673259E+02 -0.71954505554E+01  0.11511370109E+01  0.38648839024E+02  0.51100000000E-03 0.  1.
         12    1    3    3    0    0 -0.39104099556E+02  0.10481633490E+02  0.74007514609E+01  0.41155392902E+02  0.00000000000E+00 0. -1.
</event>
<event>
 7    1  0.2578619E-015  0.9000773E+02  0.7816164E-02  0.1186339E+00
        -11   -1    0    0    0    0  0.00000000000E+00  0.00000000000E+00  0.45593999997E+02  0.45594000000E+02  0.51100000000E-03 0.  1.
         11   -1    0    0    0    0 -0.00000000000E+00 -0.00000000000E+00 -0.45593999997E+02  0.45594000000E+02  0.51100000000E-03 0. -1.
    9900012    2    1    2    0    0  0.10406667932E+01  0.47674875617E+00  0.28768452525E+00  0.90007729210E+02  0.89999990436E+02 0.  0.
        -12    1    1    2    0    0 -0.10406667932E+01 -0.47674875617E+00 -0.28768452525E+00  0.11802707897E+01  0.00000000000E+00 0.  1.
         11    1    3    3    0    0 -0.79208624080E+01  0.33562261732E+00  0.26830877920E+01  0.83696872216E+01  0.51100000000E-03 0. -1.
        -11    1    3    3    0    0 -0.36246987186E+02  0.11618370075E+01  0.11077233956E+01  0.36282516405E+02  0.51100000000E-03 0.  1.
         12    1    3    3    0    0  0.45208516387E+02 -0.10207108686E+01 -0.35031266624E+01  0.45355525584E+02  0.00000000000E+00 0. -1.
</event>
<event>
 7    1  0.2578619E-015  0.9000776E+02  0.7816164E-02  0.1186339E+00
        -11   -1    0    0    0    0  0.00000000000E+00  0.00000000000E+00  0.45593999997E+02  0.45594000000E+02  0.51100000000E-03 0.  1.
         11   -1    0    0    0    0 -0.00000000000E+00 -0.00000000000E+00 -0.45593999997E+02  0.45594000000E+02  0.51100000000E-03 0. -1.
    9900012    2    1    2    0    0  0.96377971409E+00 -0.53522900288E+00 -0.42146748658E+00  0.90007755845E+02  0.90000017422E+02 0.  0.
        -12    1    1    2    0    0 -0.96377971409E+00  0.53522900288E+00  0.42146748658E+00  0.11802441548E+01  0.00000000000E+00 0.  1.
         11    1    3    3    0    0  0.71492667387E+01  0.16665386243E+01 -0.73964541890E+01  0.10420983673E+02  0.51100000000E-03 0. -1.
        -11    1    3    3    0    0  0.18391169938E+02  0.26657263637E+02  0.21631883723E+02  0.38945901324E+02  0.51100000000E-03 0.  1.
         12    1    3    3    0    0 -0.24576656963E+02 -0.28859031264E+02 -0.14656897020E+02  0.40640870847E+02  0.00000000000E+00 0. -1.
</event>
<event>
 7    1  0.2578619E-015  0.9000735E+02  0.7816164E-02  0.1186340E+00
        -11   -1    0    0    0    0  0.00000000000E+00  0.00000000000E+00  0.45593999997E+02  0.45594000000E+02  0.51100000000E-03 0.  1.
         11   -1    0    0    0    0 -0.00000000000E+00 -0.00000000000E+00 -0.45593999997E+02  0.45594000000E+02  0.51100000000E-03 0. -1.
    9900012    2    1    2    0    0 -0.30091874361E+00 -0.10404532635E+01  0.46994210183E+00  0.90007347357E+02  0.89999603542E+02 0.  0.
        -12    1    1    2    0    0  0.30091874361E+00  0.10404532635E+01 -0.46994210183E+00  0.11806526427E+01  0.00000000000E+00 0.  1.
         11    1    3    3    0    0 -0.10705891883E+01 -0.50878847051E+01 -0.87426132307E+01  0.10171824730E+02  0.51100000000E-03 0. -1.
        -11    1    3    3    0    0 -0.20237411875E+02 -0.30263072458E+02 -0.58586132518E+01  0.36874513468E+02  0.51100000000E-03 0.  1.
         12    1    3    3    0    0  0.21007082320E+02  0.34310503900E+02  0.15071168584E+02  0.42961009159E+02  0.00000000000E+00 0. -1.
</event>
<event>
 7    1  0.2578619E-015  0.9000788E+02  0.7816164E-02  0.1186339E+00
        -11   -1    0    0    0    0  0.00000000000E+00  0.00000000000E+00  0.45593999997E+02  0.45594000000E+02  0.51100000000E-03 0. -1.
         11   -1    0    0    0    0 -0.00000000000E+00 -0.00000000000E+00 -0.45593999997E+02  0.45594000000E+02  0.51100000000E-03 0.  1.
    9900012    2    1    2    0    0 -0.72658623484E+00 -0.54251676400E+00 -0.75527404541E+00  0.90007876752E+02  0.90000139925E+02 0.  0.
        -12    1    1    2    0    0  0.72658623484E+00  0.54251676400E+00  0.75527404541E+00  0.11801232476E+01  0.00000000000E+00 0.  1.
         11    1    3    3    0    0 -0.93806181250E+00  0.55035014650E+01 -0.10196688075E+02  0.11625013389E+02  0.51100000000E-03 0. -1.
        -11    1    3    3    0    0 -0.11387989157E+01  0.34230970976E+02  0.15564727286E+02  0.37620698727E+02  0.51100000000E-03 0.  1.
         12    1    3    3    0    0  0.13502744933E+01 -0.40276989205E+02 -0.61233132569E+01  0.40762164637E+02  0.00000000000E+00 0. -1.
</event>
<event>
 7    1  0.2578619E-015  0.9000774E+02  0.7816164E-02  0.1186339E+00
        -11   -1    0    0    0    0  0.00000000000E+00  0.00000000000E+00  0.45593999997E+02  0.45594000000E+02  0.51100000000E-03 0. -1.
         11   -1    0    0    0    0 -0.00000000000E+00 -0.00000000000E+00 -0.45593999997E+02  0.45594000000E+02  0.51100000000E-03 0.  1.
    9900012    2    1    2    0    0  0.40061631679E+00  0.97097283705E+00  0.53826838010E+00  0.90007739634E+02  0.90000000997E+02 0.  0.
        -12    1    1    2    0    0 -0.40061631679E+00 -0.97097283705E+00 -0.53826838010E+00  0.11802603664E+01  0.00000000000E+00 0.  1.
         11    1    3    3    0    0  0.18306447777E+02 -0.33048253484E+02 -0.11297262802E+02  0.39432743192E+02  0.51100000000E-03 0. -1.
        -11    1    3    3    0    0 -0.39081392832E+01  0.13954809898E+01 -0.86460561068E+01  0.95903704992E+01  0.51100000000E-03 0.  1.
        -12    1    3    3    0    0 -0.13997692177E+02  0.32623745331E+02  0.20481587289E+02  0.40984625942E+02  0.00000000000E+00 0.  1.
</event>
<event>
 7    1  0.2578619E-015  0.9000776E+02  0.7816164E-02  0.1186339E+00
        -11   -1    0    0    0    0  0.00000000000E+00  0.00000000000E+00  0.45593999997E+02  0.45594000000E+02  0.51100000000E-03 0.  1.
         11   -1    0    0    0    0 -0.00000000000E+00 -0.00000000000E+00 -0.45593999997E+02  0.45594000000E+02  0.51100000000E-03 0. -1.
    9900012    2    1    2    0    0  0.10482748539E+01 -0.39575769256E+00 -0.37077244457E+00  0.90007755735E+02  0.90000017310E+02 0.  0.
        -12    1    1    2    0    0 -0.10482748539E+01  0.39575769256E+00  0.37077244457E+00  0.11802442655E+01  0.00000000000E+00 0.  1.
         11    1    3    3    0    0  0.84708539579E+01 -0.37749707471E+02 -0.15198219958E+02  0.41566593210E+02  0.51100000000E-03 0. -1.
        -11    1    3    3    0    0  0.13801986116E+01 -0.75502565599E+00  0.87127368513E+01  0.88536317774E+01  0.51100000000E-03 0.  1.
        -12    1    3    3    0    0 -0.88027777156E+01  0.38108975434E+02  0.61147106626E+01  0.39587530747E+02  0.00000000000E+00 0.  1.
</event>
<event>
 7    1  0.2578619E-015  0.9000743E+02  0.7816164E-02  0.1186340E+00
        -11   -1    0    0    0    0  0.00000000000E+00  0.00000000000E+00  0.45593999997E+02  0.45594000000E+02  0.51100000000E-03 0.  1.
         11   -1    0    0    0    0 -0.00000000000E+00 -0.00000000000E+00 -0.45593999997E+02  0.45594000000E+02  0.51100000000E-03 0. -1.
    9900012    2    1    2    0    0 -0.61866822457E+00 -0.66727209511E+00 -0.75215561500E+00  0.90007432132E+02  0.89999689436E+02 0.  0.
        -12    1    1    2    0    0  0.61866822457E+00  0.66727209511E+00  0.75215561500E+00  0.11805678677E+01  0.00000000000E+00 0.  1.
         11    1    3    3    0    0 -0.13948510232E+01 -0.10357170566E+02  0.10451376716E+01  0.10502804603E+02  0.51100000000E-03 0. -1.
        -11    1    3    3    0    0  0.21053497718E+00 -0.39352852866E+01  0.37604120021E+02  0.37810060011E+02  0.51100000000E-03 0.  1.
         12    1    3    3    0    0  0.56564782144E+00  0.13625183758E+02 -0.39401413307E+02  0.41694567518E+02  0.00000000000E+00 0. -1.
</event>
<event>
 7    1  0.2578619E-015  0.9000776E+02  0.7816164E-02  0.1186339E+00
        -11   -1    0    0    0    0  0.00000000000E+00  0.00000000000E+00  0.45593999997E+02  0.45594000000E+02  0.51100000000E-03 0. -1.
         11   -1    0    0    0    0 -0.00000000000E+00 -0.00000000000E+00 -0.45593999997E+02  0.45594000000E+02  0.51100000000E-03 0.  1.
    9900012    2    1    2    0    0  0.22909537637E+00  0.11039882087E+01 -0.34882867989E+00  0.90007764386E+02  0.90000026076E+02 0.  0.
        -12    1    1    2    0    0 -0.22909537637E+00 -0.11039882087E+01  0.34882867989E+00  0.11802356139E+01  0.00000000000E+00 0.  1.
         11    1    3    3    0    0 -0.19620987004E+02 -0.26583218855E+02  0.15069304592E+02  0.36314385537E+02  0.51100000000E-03 0. -1.
        -11    1    3    3    0    0  0.26319260630E+01 -0.42431767888E+01  0.87701395028E+01  0.10091924059E+02  0.51100000000E-03 0.  1.
        -12    1    3    3    0    0  0.17218156318E+02  0.31930383853E+02 -0.24188272775E+02  0.43601454790E+02  0.00000000000E+00 0.  1.
</event>
<event>
 7    1  0.2578619E-015  0.9000779E+02  0.7816164E-02  0.1186339E+00
        -11   -1    0    0    0    0  0.00000000000E+00  0.00000000000E+00  0.45593999997E+02  0.45594000000E+02  0.51100000000E-03 0.  1.
         11   -1    0    0    0    0 -0.00000000000E+00 -0.00000000000E+00 -0.45593999997E+02  0.45594000000E+02  0.51100000000E-03 0. -1.
    9900012    2    1    2    0    0 -0.22494561386E+00  0.11565584621E+01 -0.68351591554E-01  0.90007788178E+02  0.90000050182E+02 0.  0.
        -12    1    1    2    0    0  0.22494561386E+00 -0.11565584621E+01  0.68351591554E-01  0.11802118223E+01  0.00000000000E+00 0.  1.
         11    1    3    3    0    0  0.12756762605E+02 -0.15919338444E+02 -0.30983251047E+02  0.37096120745E+02  0.51100000000E-03 0. -1.
        -11    1    3    3    0    0  0.11054199300E+01 -0.89202678634E+01 -0.14157988568E+01  0.90993196801E+01  0.51100000000E-03 0.  1.
        -12    1    3    3    0    0 -0.14087128149E+02  0.25996164770E+02  0.32330698312E+02  0.43812347752E+02  0.00000000000E+00 0.  1.
</event>
<event>
 7    1  0.2578619E-015  0.9000775E+02  0.7816164E-02  0.1186339E+00
        -11   -1    0    0    0    0  0.00000000000E+00  0.00000000000E+00  0.45593999997E+02  0.45594000000E+02  0.51100000000E-03 0.  1.
         11   -1    0    0    0    0 -0.00000000000E+00 -0.00000000000E+00 -0.45593999997E+02  0.45594000000E+02  0.51100000000E-03 0. -1.
    9900012    2    1    2    0    0  0.10940599470E+01 -0.23031106093E+00 -0.37812328994E+00  0.90007751054E+02  0.90000012568E+02 0.  0.
        -12    1    1    2    0    0 -0.10940599470E+01  0.23031106093E+00  0.37812328994E+00  0.11802489461E+01  0.00000000000E+00 0.  1.
         11    1    3    3    0    0  0.78709896549E+01  0.37716432564E+02  0.29509054284E+01  0.38641811638E+02  0.51100000000E-03 0. -1.
        -11    1    3    3    0    0  0.10739958914E+02 -0.15908084794E+01  0.17202668554E+00  0.10858498171E+02  0.51100000000E-03 0.  1.
        -12    1    3    3    0    0 -0.17516888621E+02 -0.36355935146E+02 -0.35010554039E+01  0.40507441245E+02  0.00000000000E+00 0.  1.
</event>
<event>
 7    1  0.2578619E-015  0.9000787E+02  0.7816164E-02  0.1186339E+00
        -11   -1    0    0    0    0  0.00000000000E+00  0.00000000000E+00  0.45593999997E+02  0.45594000000E+02  0.51100000000E-03 0. -1.
         11   -1    0    0    0    0 -0.00000000000E+00 -0.00000000000E+00 -0.45593999997E+02  0.45594000000E+02  0.51100000000E-03 0.  1.
    9900012    2    1    2    0    0  0.10623004860E+01  0.47716961636E+00  0.19115174578E+00  0.90007867738E+02  0.90000130792E+02 0.  0.
        -12    1    1    2    0    0 -0.10623004860E+01 -0.47716961636E+00 -0.19115174578E+00  0.11801322618E+01  0.00000000000E+00 0.  1.
         11    1    3    3    0    0  0.71445995659E+01  0.50523074620E+01  0.35364061676E+02  0.36430591158E+02  0.51100000000E-03 0. -1.
        -11    1    3    3    0    0 -0.54839017091E+00  0.14687769711E+02 -0.20186595435E+01  0.14835979828E+02  0.51100000000E-03 0.  1.
        -12    1    3    3    0    0 -0.55339089090E+01 -0.19262907556E+02 -0.33154250386E+02  0.38741296752E+02  0.00000000000E+00 0.  1.
</event>
<event>
 7    1  0.2578619E-015  0.9000762E+02  0.7816164E-02  0.1186339E+00
        -11   -1    0    0    0    0  0.00000000000E+00  0.00000000000E+00  0.45593999997E+02  0.45594000000E+02  0.51100000000E-03 0.  1.
         11   -1    0    0    0    0 -0.00000000000E+00 -0.00000000000E+00 -0.45593999997E+02  0.45594000000E+02  0.51100000000E-03 0. -1.
    9900012    2    1    2    0    0  0.36091334761E+00  0.10962045885E+01  0.24774128336E+00  0.90007619261E+02  0.89999879036E+02 0.  0.
        -12    1    1    2    0    0 -0.36091334761E+00 -0.10962045885E+01 -0.24774128336E+00  0.11803807385E+01  0.00000000000E+00 0.  1.
         11    1    3    3    0    0  0.35090120993E+02  0.76718716858E+01  0.16262867156E+02  0.39429114305E+02  0.51100000000E-03 0. -1.
        -11    1    3    3    0    0  0.17193367281E+01 -0.10784864992E+02 -0.11156291888E+01  0.10977889616E+02  0.51100000000E-03 0.  1.
        -12    1    3    3    0    0 -0.36448544374E+02  0.42091978945E+01 -0.14899496684E+02  0.39600615340E+02  0.00000000000E+00 0.  1.
</event>
<event>
 7    1  0.2578619E-015  0.9000769E+02  0.7816164E-02  0.1186339E+00
        -11   -1    0    0    0    0  0.00000000000E+00  0.00000000000E+00  0.45593999997E+02  0.45594000000E+02  0.51100000000E-03 0. -1.
         11   -1    0    0    0    0 -0.00000000000E+00 -0.00000000000E+00 -0.45593999997E+02  0.45594000000E+02  0.51100000000E-03 0.  1.
    9900012    2    1    2    0    0 -0.23185165506E+00 -0.10775193810E+01  0.42228807095E+00  0.90007690540E+02  0.89999951255E+02 0.  0.
        -12    1    1    2    0    0  0.23185165506E+00  0.10775193810E+01 -0.42228807095E+00  0.11803094599E+01  0.00000000000E+00 0.  1.
         11    1    3    3    0    0 -0.24717126642E+02 -0.18336475620E+02  0.23926571988E+02  0.38982605543E+02  0.51100000000E-03 0. -1.
        -11    1    3    3    0    0 -0.86509526051E+01  0.32332541444E+01 -0.36669759424E+01  0.99367814790E+01  0.51100000000E-03 0.  1.
        -12    1    3    3    0    0  0.33136227592E+02  0.14025702095E+02 -0.19837307975E+02  0.41088303518E+02  0.00000000000E+00 0.  1.
</event>
<event>
 7    1  0.2578619E-015  0.9000773E+02  0.7816164E-02  0.1186339E+00
        -11   -1    0    0    0    0  0.00000000000E+00  0.00000000000E+00  0.45593999997E+02  0.45594000000E+02  0.51100000000E-03 0. -1.
         11   -1    0    0    0    0 -0.00000000000E+00 -0.00000000000E+00 -0.45593999997E+02  0.45594000000E+02  0.51100000000E-03 0.  1.
    9900012    2    1    2    0    0 -0.82280684949E+00  0.65444403772E+00  0.53641158131E+00  0.90007726517E+02  0.89999987707E+02 0.  0.
        -12    1    1    2    0    0  0.82280684949E+00 -0.65444403772E+00 -0.53641158131E+00  0.11802734830E+01  0.00000000000E+00 0.  1.
         11    1    3    3    0    0  0.16649712547E+02  0.15982371422E+01  0.37928070024E+02  0.41452452109E+02  0.51100000000E-03 0. -1.
        -11    1    3    3    0    0 -0.75123524869E+01  0.52432832278E+00  0.20858921768E+01  0.78141734376E+01  0.51100000000E-03 0.  1.
        -12    1    3    3    0    0 -0.99601669097E+01 -0.14681214272E+01 -0.39477550619E+02  0.40741100970E+02  0.00000000000E+00 0.  1.
</event>
<event>
 7    1  0.2578619E-015  0.9000740E+02  0.7816164E-02  0.1186340E+00
        -11   -1    0    0    0    0  0.00000000000E+00  0.00000000000E+00  0.45593999997E+02  0.45594000000E+02  0.51100000000E-03 0. -1.
         11   -1    0    0    0    0 -0.00000000000E+00 -0.00000000000E+00 -0.45593999997E+02  0.45594000000E+02  0.51100000000E-03 0.  1.
    9900012    2    1    2    0    0  0.10187994479E+01  0.20711601226E+00  0.55943634910E+00  0.90007399142E+02  0.89999656010E+02 0.  0.
        -12    1    1    2    0    0 -0.10187994479E+01 -0.20711601226E+00 -0.55943634910E+00  0.11806008582E+01  0.00000000000E+00 0.  1.
         11    1    3    3    0    0 -0.11143301673E+02  0.23990051416E+01 -0.18314711082E+01  0.11544812018E+02  0.51100000000E-03 0. -1.
        -11    1    3    3    0    0 -0.11831923106E+02 -0.29643678844E+02 -0.18045612750E+02  0.36665872955E+02  0.51100000000E-03 0.  1.
         12    1    3    3    0    0  0.23994024227E+02  0.27451789714E+02  0.20436520207E+02  0.41796714169E+02  0.00000000000E+00 0. -1.
</event>
<event>
 7    1  0.2578619E-015  0.9000771E+02  0.7816164E-02  0.1186339E+00
        -11   -1    0    0    0    0  0.00000000000E+00  0.00000000000E+00  0.45593999997E+02  0.45594000000E+02  0.51100000000E-03 0.  1.
         11   -1    0    0    0    0 -0.00000000000E+00 -0.00000000000E+00 -0.45593999997E+02  0.45594000000E+02  0.51100000000E-03 0. -1.
    9900012    2    1    2    0    0 -0.86427794598E+00 -0.71362569679E+00 -0.36993655889E+00  0.90007707214E+02  0.89999968149E+02 0.  0.
        -12    1    1    2    0    0  0.86427794598E+00  0.71362569679E+00  0.36993655889E+00  0.11802927860E+01  0.00000000000E+00 0.  1.
         11    1    3    3    0    0 -0.11780388315E+02  0.59234694473E+01  0.10062533468E+02  0.16586730215E+02  0.51100000000E-03 0. -1.
        -11    1    3    3    0    0  0.31394267663E+02  0.19528689824E+02  0.40138294886E+01  0.37189791553E+02  0.51100000000E-03 0.  1.
         12    1    3    3    0    0 -0.20478157294E+02 -0.26165784968E+02 -0.14446299516E+02  0.36231185446E+02  0.00000000000E+00 0. -1.
</event>
<event>
 7    1  0.2578619E-015  0.9000774E+02  0.7816164E-02  0.1186339E+00
        -11   -1    0    0    0    0  0.00000000000E+00  0.00000000000E+00  0.45593999997E+02  0.45594000000E+02  0.51100000000E-03 0. -1.
         11   -1    0    0    0    0 -0.00000000000E+00 -0.00000000000E+00 -0.45593999997E+02  0.45594000000E+02  0.51100000000E-03 0.  1.
    9900012    2    1    2    0    0 -0.53251373570E+00 -0.82505446502E+00 -0.65477931479E+00  0.90007736597E+02  0.89999997920E+02 0.  0.
        -12    1    1    2    0    0  0.53251373570E+00  0.82505446502E+00  0.65477931479E+00  0.11802634028E+01  0.00000000000E+00 0.  1.
         11    1    3    3    0    0  0.36648624128E+01 -0.13663336557E+01 -0.81376565264E+01  0.90288170967E+01  0.51100000000E-03 0. -1.
        -11    1    3    3    0    0 -0.58948386748E+01  0.63420671521E+01 -0.36026172495E+02  0.37052072056E+02  0.51100000000E-03 0.  1.
         12    1    3    3    0    0  0.16974625263E+01 -0.58007879614E+01  0.43509049707E+02  0.43926847444E+02  0.00000000000E+00 0. -1.
</event>
<event>
 7    1  0.2578619E-015  0.9000776E+02  0.7816164E-02  0.1186339E+00
        -11   -1    0    0    0    0  0.00000000000E+00  0.00000000000E+00  0.45593999997E+02  0.45594000000E+02  0.51100000000E-03 0.  1.
         11   -1    0    0    0    0 -0.00000000000E+00 -0.00000000000E+00 -0.45593999997E+02  0.45594000000E+02  0.51100000000E-03 0. -1.
    9900012    2    1    2    0    0 -0.39297093412E+00 -0.45079452613E+00  0.10175083349E+01  0.90007760587E+02  0.90000022227E+02 0.  0.
        -12    1    1    2    0    0  0.39297093412E+00  0.45079452613E+00 -0.10175083349E+01  0.11802394128E+01  0.00000000000E+00 0.  1.
         11    1    3    3    0    0 -0.15412641859E+01  0.92210486387E+01  0.33842297898E+01  0.99426477771E+01  0.51100000000E-03 0. -1.
        -11    1    3    3    0    0 -0.13198157526E+02  0.26758348609E+02  0.19087251285E+02  0.35419256687E+02  0.51100000000E-03 0.  1.
         12    1    3    3    0    0  0.14346450778E+02 -0.36430191774E+02 -0.21453972740E+02  0.44645856123E+02  0.00000000000E+00 0. -1.
</event>
<event>
 7    1  0.3734316E-015  0.9000772E+02  0.7816164E-02  0.1186339E+00
        -11   -1    0    0    0    0  0.00000000000E+00  0.00000000000E+00  0.45593999997E+02  0.45594000000E+02  0.51100000000E-03 0. -1.
         11   -1    0    0    0    0 -0.00000000000E+00 -0.00000000000E+00 -0.45593999997E+02  0.45594000000E+02  0.51100000000E-03 0.  1.
    9900012    2    1    2    0    0  0.31750747809E+00 -0.86387222010E+00  0.73889979746E+00  0.90007720744E+02  0.89999981858E+02 0.  0.
        -12    1    1    2    0    0 -0.31750747809E+00  0.86387222010E+00 -0.73889979746E+00  0.11802792559E+01  0.00000000000E+00 0.  1.
         11    1    3    3    0    0 -0.49087440683E+01  0.39072092067E+01 -0.72726760972E+01  0.96048878176E+01  0.51100000000E-03 0. -1.
        -11    1    3    3    0    0 -0.15393189008E+02  0.16019923109E+01 -0.31660320107E+02  0.35240495410E+02  0.51100000000E-03 0.  1.
         12    1    3    3    0    0  0.20619440554E+02 -0.63730737377E+01  0.39671896001E+02  0.45162337517E+02  0.00000000000E+00 0. -1.
</event>
<event>
 7    1  0.5005574E-015  0.9000774E+02  0.7816164E-02  0.1186339E+00
        -11   -1    0    0    0    0  0.00000000000E+00  0.00000000000E+00  0.45593999997E+02  0.45594000000E+02  0.51100000000E-03 0. -1.
         11   -1    0    0    0    0 -0.00000000000E+00 -0.00000000000E+00 -0.45593999997E+02  0.45594000000E+02  0.51100000000E-03 0.  1.
    9900012    2    1    2    0    0 -0.43543808391E+00 -0.49426789293E+00  0.97934346721E+00  0.90007737020E+02  0.89999998349E+02 0.  0.
        -12    1    1    2    0    0  0.43543808391E+00  0.49426789293E+00 -0.97934346721E+00  0.11802629799E+01  0.00000000000E+00 0.  1.
         11    1    3    3    0    0  0.75223397995E+01 -0.63352560707E+01 -0.15616052707E+01  0.99578952004E+01  0.51100000000E-03 0. -1.
        -11    1    3    3    0    0  0.13038897476E+02 -0.28358293370E+02 -0.16861004176E+02  0.35475331039E+02  0.51100000000E-03 0.  1.
         12    1    3    3    0    0 -0.20996675359E+02  0.34199281547E+02  0.19401952914E+02  0.44574510781E+02  0.00000000000E+00 0. -1.
</event>
<event>
 7    1  0.2578619E-015  0.9000795E+02  0.7816164E-02  0.1186339E+00
        -11   -1    0    0    0    0  0.00000000000E+00  0.00000000000E+00  0.45593999997E+02  0.45594000000E+02  0.51100000000E-03 0. -1.
         11   -1    0    0    0    0 -0.00000000000E+00 -0.00000000000E+00 -0.45593999997E+02  0.45594000000E+02  0.51100000000E-03 0.  1.
    9900012    2    1    2    0    0  0.37081322122E+00  0.77587309903E+00  0.80810397165E+00  0.90007951891E+02  0.90000216056E+02 0.  0.
        -12    1    1    2    0    0 -0.37081322122E+00 -0.77587309903E+00 -0.80810397165E+00  0.11800481091E+01  0.00000000000E+00 0.  1.
         11    1    3    3    0    0 -0.98840046543E+01 -0.12142841794E+02 -0.65004942951E+01  0.16952834016E+02  0.51100000000E-03 0. -1.
        -11    1    3    3    0    0 -0.13340453326E+02 -0.23436153893E+02 -0.61759114120E+01  0.27665192684E+02  0.51100000000E-03 0.  1.
        -12    1    3    3    0    0  0.23595271202E+02  0.36354868786E+02  0.13484509679E+02  0.45389925190E+02  0.00000000000E+00 0.  1.
</event>
<event>
 7    1  0.2578619E-015  0.9000790E+02  0.7816164E-02  0.1186339E+00
        -11   -1    0    0    0    0  0.00000000000E+00  0.00000000000E+00  0.45593999997E+02  0.45594000000E+02  0.51100000000E-03 0.  1.
         11   -1    0    0    0    0 -0.00000000000E+00 -0.00000000000E+00 -0.45593999997E+02  0.45594000000E+02  0.51100000000E-03 0. -1.
    9900012    2    1    2    0    0  0.72712550066E+00  0.67022235652E+00 -0.64399107299E+00  0.90007900850E+02  0.90000164341E+02 0.  0.
        -12    1    1    2    0    0 -0.72712550066E+00 -0.67022235652E+00  0.64399107299E+00  0.11800991496E+01  0.00000000000E+00 0.  1.
         11    1    3    3    0    0 -0.16629766214E+02  0.20275866092E+02  0.24814765198E+02  0.36103080786E+02  0.51100000000E-03 0. -1.
        -11    1    3    3    0    0  0.87027216470E+01  0.84602876072E+01  0.35278951749E+01  0.12639615306E+02  0.51100000000E-03 0.  1.
        -12    1    3    3    0    0  0.86541700679E+01 -0.28065931343E+02 -0.28986651446E+02  0.41265204758E+02  0.00000000000E+00 0.  1.
</event>
<event>
 7    1  0.2578619E-015  0.9000775E+02  0.7816164E-02  0.1186339E+00
        -11   -1    0    0    0    0  0.00000000000E+00  0.00000000000E+00  0.45593999997E+02  0.45594000000E+02  0.51100000000E-03 0.  1.
         11   -1    0    0    0    0 -0.00000000000E+00 -0.00000000000E+00 -0.45593999997E+02  0.45594000000E+02  0.51100000000E-03 0. -1.
    9900012    2    1    2    0    0  0.29350597020E+00 -0.13624317504E+00 -0.11350264637E+01  0.90007748743E+02  0.90000010226E+02 0.  0.
        -12    1    1    2    0    0 -0.29350597020E+00  0.13624317504E+00  0.11350264637E+01  0.11802512574E+01  0.00000000000E+00 0.  1.
         11    1    3    3    0    0 -0.37922266786E+01 -0.61646727001E+01 -0.60474935746E+01  0.94316674813E+01  0.51100000000E-03 0. -1.
        -11    1    3    3    0    0  0.36166756429E+02  0.14146249552E+02  0.20592744289E+02  0.43956930791E+02  0.51100000000E-03 0.  1.
         12    1    3    3    0    0 -0.32081023780E+02 -0.81178200268E+01 -0.15680277179E+02  0.36619150470E+02  0.00000000000E+00 0. -1.
</event>
<event>
 7    1  0.2578619E-015  0.9000774E+02  0.7816164E-02  0.1186339E+00
        -11   -1    0    0    0    0  0.00000000000E+00  0.00000000000E+00  0.45593999997E+02  0.45594000000E+02  0.51100000000E-03 0.  1.
         11   -1    0    0    0    0 -0.00000000000E+00 -0.00000000000E+00 -0.45593999997E+02  0.45594000000E+02  0.51100000000E-03 0. -1.
    9900012    2    1    2    0    0 -0.42554678505E+00 -0.10944347978E+01 -0.11891257973E+00  0.90007738252E+02  0.89999999597E+02 0.  0.
        -12    1    1    2    0    0  0.42554678505E+00  0.10944347978E+01  0.11891257973E+00  0.11802617483E+01  0.00000000000E+00 0.  1.
         11    1    3    3    0    0  0.32764301032E+02 -0.18318446480E+02 -0.21998229446E+02  0.43508470469E+02  0.51100000000E-03 0. -1.
        -11    1    3    3    0    0 -0.80435806654E+01  0.50460970862E+01 -0.20483596860E+01  0.97138078727E+01  0.51100000000E-03 0.  1.
        -12    1    3    3    0    0 -0.25146267152E+02  0.12177914596E+02  0.23927676552E+02  0.36785459910E+02  0.00000000000E+00 0.  1.
</event>
<event>
 7    1  0.2578619E-015  0.9000780E+02  0.7816164E-02  0.1186339E+00
        -11   -1    0    0    0    0  0.00000000000E+00  0.00000000000E+00  0.45593999997E+02  0.45594000000E+02  0.51100000000E-03 0. -1.
         11   -1    0    0    0    0 -0.00000000000E+00 -0.00000000000E+00 -0.45593999997E+02  0.45594000000E+02  0.51100000000E-03 0.  1.
    9900012    2    1    2    0    0 -0.74187083608E+00  0.68057676441E+00  0.61588097966E+00  0.90007802368E+02  0.90000064559E+02 0.  0.
        -12    1    1    2    0    0  0.74187083608E+00 -0.68057676441E+00 -0.61588097966E+00  0.11801976321E+01  0.00000000000E+00 0.  1.
         11    1    3    3    0    0 -0.31845042010E+02  0.16469747785E+02 -0.42775753334E+01  0.36106189825E+02  0.51100000000E-03 0. -1.
        -11    1    3    3    0    0 -0.96744300175E+01  0.57412951013E+00 -0.22564561400E-02  0.96914511922E+01  0.51100000000E-03 0.  1.
        -12    1    3    3    0    0  0.40777601191E+02 -0.16363300530E+02  0.48957127692E+01  0.44210161351E+02  0.00000000000E+00 0.  1.
</event>
<event>
 7    1  0.2578619E-015  0.9000776E+02  0.7816164E-02  0.1186339E+00
        -11   -1    0    0    0    0  0.00000000000E+00  0.00000000000E+00  0.45593999997E+02  0.45594000000E+02  0.51100000000E-03 0. -1.
         11   -1    0    0    0    0 -0.00000000000E+00 -0.00000000000E+00 -0.45593999997E+02  0.45594000000E+02  0.51100000000E-03 0.  1.
    9900012    2    1    2    0    0 -0.36037563479E+00 -0.70916913843E+00  0.87187573664E+00  0.90007763259E+02  0.90000024934E+02 0.  0.
        -12    1    1    2    0    0  0.36037563479E+00  0.70916913843E+00 -0.87187573664E+00  0.11802367412E+01  0.00000000000E+00 0.  1.
         11    1    3    3    0    0 -0.57523162887E+01  0.48837547613E+01 -0.24558425407E+01  0.79354499620E+01  0.51100000000E-03 0. -1.
        -11    1    3    3    0    0  0.20662302488E+02  0.22730910747E+02 -0.24686143743E+02  0.39408511018E+02  0.51100000000E-03 0.  1.
         12    1    3    3    0    0 -0.15270361834E+02 -0.28323834646E+02  0.28013862020E+02  0.42663802279E+02  0.00000000000E+00 0. -1.
</event>
<event>
 7    1  0.2578619E-015  0.9000775E+02  0.7816164E-02  0.1186339E+00
        -11   -1    0    0    0    0  0.00000000000E+00  0.00000000000E+00  0.45593999997E+02  0.45594000000E+02  0.51100000000E-03 0.  1.
         11   -1    0    0    0    0 -0.00000000000E+00 -0.00000000000E+00 -0.45593999997E+02  0.45594000000E+02  0.51100000000E-03 0. -1.
    9900012    2    1    2    0    0  0.11450229379E+01  0.19272096915E+00  0.21159663465E+00  0.90007749164E+02  0.90000010653E+02 0.  0.
        -12    1    1    2    0    0 -0.11450229379E+01 -0.19272096915E+00 -0.21159663465E+00  0.11802508361E+01  0.00000000000E+00 0.  1.
         11    1    3    3    0    0 -0.28694708996E+02 -0.22222982966E+02  0.66888303880E+01  0.36905118189E+02  0.51100000000E-03 0. -1.
        -11    1    3    3    0    0 -0.62835209991E+01 -0.24684312776E+01  0.42082739282E+01  0.79552095406E+01  0.51100000000E-03 0.  1.
        -12    1    3    3    0    0  0.36123252933E+02  0.24884135213E+02 -0.10685507682E+02  0.45147421435E+02  0.00000000000E+00 0.  1.
</event>
<event>
 7    1  0.2578619E-015  0.9000777E+02  0.7816164E-02  0.1186339E+00
        -11   -1    0    0    0    0  0.00000000000E+00  0.00000000000E+00  0.45593999997E+02  0.45594000000E+02  0.51100000000E-03 0.  1.
         11   -1    0    0    0    0 -0.00000000000E+00 -0.00000000000E+00 -0.45593999997E+02  0.45594000000E+02  0.51100000000E-03 0. -1.
    9900012    2    1    2    0    0  0.80596248023E+00 -0.60335274512E-01  0.86006903722E+00  0.90007773491E+02  0.90000035301E+02 0.  0.
        -12    1    1    2    0    0 -0.80596248023E+00  0.60335274512E-01 -0.86006903722E+00  0.11802265095E+01  0.00000000000E+00 0.  1.
         11    1    3    3    0    0  0.78523600200E+01  0.32423473713E+02 -0.21533839053E+02  0.39707019910E+02  0.51100000000E-03 0. -1.
        -11    1    3    3    0    0  0.63393385000E+01 -0.53168000774E+00 -0.33028901778E+01  0.71679132274E+01  0.51100000000E-03 0.  1.
        -12    1    3    3    0    0 -0.13385736040E+02 -0.31952128980E+02  0.25696798268E+02  0.43132840353E+02  0.00000000000E+00 0.  1.
</event>
<event>
 7    1  0.3379337E-015  0.9000777E+02  0.7816164E-02  0.1186339E+00
        -11   -1    0    0    0    0  0.00000000000E+00  0.00000000000E+00  0.45593999997E+02  0.45594000000E+02  0.51100000000E-03 0.  1.
         11   -1    0    0    0    0 -0.00000000000E+00 -0.00000000000E+00 -0.45593999997E+02  0.45594000000E+02  0.51100000000E-03 0. -1.
    9900012    2    1    2    0    0 -0.98331177706E+00  0.32137519223E+00 -0.56812892705E+00  0.90007765048E+02  0.90000026746E+02 0.  0.
        -12    1    1    2    0    0  0.98331177706E+00 -0.32137519223E+00  0.56812892705E+00  0.11802349524E+01  0.00000000000E+00 0.  1.
         11    1    3    3    0    0  0.97286320147E+00  0.95396108740E+01  0.34080862182E+00  0.95951440434E+01  0.51100000000E-03 0. -1.
        -11    1    3    3    0    0 -0.90079665364E+01  0.18073632761E+02  0.31526889240E+02  0.37439877239E+02  0.51100000000E-03 0.  1.
         12    1    3    3    0    0  0.70517915579E+01 -0.27291868442E+02 -0.32435826788E+02  0.42972743765E+02  0.00000000000E+00 0. -1.
</event>
<event>
 7    1  0.2578619E-015  0.9000778E+02  0.7816164E-02  0.1186339E+00
        -11   -1    0    0    0    0  0.00000000000E+00  0.00000000000E+00  0.45593999997E+02  0.45594000000E+02  0.51100000000E-03 0.  1.
         11   -1    0    0    0    0 -0.00000000000E+00 -0.00000000000E+00 -0.45593999997E+02  0.45594000000E+02  0.51100000000E-03 0. -1.
    9900012    2    1    2    0    0 -0.67857668694E+00 -0.19975693969E+00  0.94474990107E+00  0.90007779033E+02  0.90000040916E+02 0.  0.
        -12    1    1    2    0    0  0.67857668694E+00  0.19975693969E+00 -0.94474990107E+00  0.11802209668E+01  0.00000000000E+00 0.  1.
         11    1    3    3    0    0  0.26830710920E+01 -0.29913022033E+01 -0.13597141758E+02  0.14178470425E+02  0.51100000000E-03 0. -1.
        -11    1    3    3    0    0  0.12057574439E+02 -0.14447927190E+02 -0.24232083613E+02  0.30680964423E+02  0.51100000000E-03 0.  1.
         12    1    3    3    0    0 -0.15419222218E+02  0.17239472454E+02  0.38773975272E+02  0.45148344185E+02  0.00000000000E+00 0. -1.
</event>
<event>
 7    1  0.2578619E-015  0.9000772E+02  0.7816164E-02  0.1186339E+00
        -11   -1    0    0    0    0  0.00000000000E+00  0.00000000000E+00  0.45593999997E+02  0.45594000000E+02  0.51100000000E-03 0. -1.
         11   -1    0    0    0    0 -0.00000000000E+00 -0.00000000000E+00 -0.45593999997E+02  0.45594000000E+02  0.51100000000E-03 0.  1.
    9900012    2    1    2    0    0  0.71757184708E+00 -0.19653042979E+00  0.91626059717E+00  0.90007717387E+02  0.89999978456E+02 0.  0.
        -12    1    1    2    0    0 -0.71757184708E+00  0.19653042979E+00 -0.91626059717E+00  0.11802826134E+01  0.00000000000E+00 0.  1.
         11    1    3    3    0    0 -0.59157669386E+01  0.52948183626E+01  0.20913596788E+01  0.82100661101E+01  0.51100000000E-03 0. -1.
        -11    1    3    3    0    0  0.16868728065E+02  0.23776744618E+02 -0.28278941660E+02  0.40615097105E+02  0.51100000000E-03 0.  1.
         12    1    3    3    0    0 -0.10235389279E+02 -0.29268093410E+02  0.27103842579E+02  0.41182554172E+02  0.00000000000E+00 0. -1.
</event>
<event>
 7    1  0.2578619E-015  0.9000777E+02  0.7816164E-02  0.1186339E+00
        -11   -1    0    0    0    0  0.00000000000E+00  0.00000000000E+00  0.45593999997E+02  0.45594000000E+02  0.51100000000E-03 0.  1.
         11   -1    0    0    0    0 -0.00000000000E+00 -0.00000000000E+00 -0.45593999997E+02  0.45594000000E+02  0.51100000000E-03 0. -1.
    9900012    2    1    2    0    0 -0.26726643524E+00  0.78219709609E+00 -0.84242936177E+00  0.90007766602E+02  0.90000028321E+02 0.  0.
        -12    1    1    2    0    0  0.26726643524E+00 -0.78219709609E+00  0.84242936177E+00  0.11802333982E+01  0.00000000000E+00 0.  1.
         11    1    3    3    0    0  0.10723202446E+02  0.12854526936E+02 -0.30008064375E+02  0.34361458951E+02  0.51100000000E-03 0. -1.
        -11    1    3    3    0    0  0.10481782600E+02  0.48561879033E+01 -0.43926228208E+01  0.12359023543E+02  0.51100000000E-03 0.  1.
        -12    1    3    3    0    0 -0.21472251481E+02 -0.16928517743E+02  0.33558257834E+02  0.43287284108E+02  0.00000000000E+00 0.  1.
</event>
<event>
 7    1  0.2578619E-015  0.9000775E+02  0.7816164E-02  0.1186339E+00
        -11   -1    0    0    0    0  0.00000000000E+00  0.00000000000E+00  0.45593999997E+02  0.45594000000E+02  0.51100000000E-03 0.  1.
         11   -1    0    0    0    0 -0.00000000000E+00 -0.00000000000E+00 -0.45593999997E+02  0.45594000000E+02  0.51100000000E-03 0. -1.
    9900012    2    1    2    0    0 -0.88402683805E+00 -0.22456659396E-01 -0.78165696340E+00  0.90007747756E+02  0.90000009226E+02 0.  0.
        -12    1    1    2    0    0  0.88402683805E+00  0.22456659396E-01  0.78165696340E+00  0.11802522444E+01  0.00000000000E+00 0.  1.
         11    1    3    3    0    0  0.92815930356E+01  0.49683024411E+00 -0.26867229193E+01  0.96753961095E+01  0.51100000000E-03 0. -1.
        -11    1    3    3    0    0  0.26260477039E+02 -0.37079109335E+01 -0.23801261284E+02  0.35635113256E+02  0.51100000000E-03 0.  1.
         12    1    3    3    0    0 -0.36426096913E+02  0.31886240300E+01  0.25706327240E+02  0.44697238390E+02  0.00000000000E+00 0. -1.
</event>
<event>
 7    1  0.2578619E-015  0.9000761E+02  0.7816164E-02  0.1186339E+00
        -11   -1    0    0    0    0  0.00000000000E+00  0.00000000000E+00  0.45593999997E+02  0.45594000000E+02  0.51100000000E-03 0. -1.
         11   -1    0    0    0    0 -0.00000000000E+00 -0.00000000000E+00 -0.45593999997E+02  0.45594000000E+02  0.51100000000E-03 0.  1.
    9900012    2    1    2    0    0 -0.75029486522E+00 -0.19878305207E+00  0.88931018154E+00  0.90007606131E+02  0.89999865732E+02 0.  0.
        -12    1    1    2    0    0  0.75029486522E+00  0.19878305207E+00 -0.88931018154E+00  0.11803938688E+01  0.00000000000E+00 0.  1.
         11    1    3    3    0    0 -0.13042517394E+01 -0.78106927808E+01 -0.42965209861E+01  0.90093333361E+01  0.51100000000E-03 0. -1.
        -11    1    3    3    0    0 -0.17315861794E+02 -0.21390112123E+02 -0.23712085900E+02  0.36326835594E+02  0.51100000000E-03 0.  1.
         12    1    3    3    0    0  0.17869818668E+02  0.29002021852E+02  0.28897917068E+02  0.44671437201E+02  0.00000000000E+00 0. -1.
</event>
<event>
 7    1  0.2578619E-015  0.9000764E+02  0.7816164E-02  0.1186339E+00
        -11   -1    0    0    0    0  0.00000000000E+00  0.00000000000E+00  0.45593999997E+02  0.45594000000E+02  0.51100000000E-03 0. -1.
         11   -1    0    0    0    0 -0.00000000000E+00 -0.00000000000E+00 -0.45593999997E+02  0.45594000000E+02  0.51100000000E-03 0.  1.
    9900012    2    1    2    0    0  0.80192994459E+00 -0.21682801865E+00  0.83853996032E+00  0.90007637644E+02  0.89999897661E+02 0.  0.
        -12    1    1    2    0    0 -0.80192994459E+00  0.21682801865E+00 -0.83853996032E+00  0.11803623557E+01  0.00000000000E+00 0.  1.
         11    1    3    3    0    0 -0.11554779988E+01 -0.96325321054E+01  0.13372504312E+01  0.97933162485E+01  0.51100000000E-03 0. -1.
        -11    1    3    3    0    0 -0.62973487791E+01 -0.34547338792E+02  0.35739389535E+01  0.35297992282E+02  0.51100000000E-03 0.  1.
         12    1    3    3    0    0  0.82547567225E+01  0.43963042879E+02 -0.40726494244E+01  0.44916329114E+02  0.00000000000E+00 0. -1.
</event>
<event>
 7    1  0.2578619E-015  0.9000782E+02  0.7816164E-02  0.1186339E+00
        -11   -1    0    0    0    0  0.00000000000E+00  0.00000000000E+00  0.45593999997E+02  0.45594000000E+02  0.51100000000E-03 0.  1.
         11   -1    0    0    0    0 -0.00000000000E+00 -0.00000000000E+00 -0.45593999997E+02  0.45594000000E+02  0.51100000000E-03 0. -1.
    9900012    2    1    2    0    0 -0.71162777375E+00 -0.63024969780E+00 -0.69942149879E+00  0.90007822385E+02  0.90000084840E+02 0.  0.
        -12    1    1    2    0    0  0.71162777375E+00  0.63024969780E+00  0.69942149879E+00  0.11801776150E+01  0.00000000000E+00 0.  1.
         11    1    3    3    0    0 -0.61990992740E+00  0.15314981661E+02 -0.31548297886E+02  0.35074606930E+02  0.51100000000E-03 0. -1.
        -11    1    3    3    0    0  0.60518507306E+00  0.55738034800E+01 -0.84395798523E+01  0.10132129221E+02  0.51100000000E-03 0.  1.
        -12    1    3    3    0    0 -0.69690291941E+00 -0.21519034839E+02  0.39288456239E+02  0.44801086234E+02  0.00000000000E+00 0.  1.
</event>
<event>
 7    1  0.2578619E-015  0.9000772E+02  0.7816164E-02  0.1186339E+00
        -11   -1    0    0    0    0  0.00000000000E+00  0.00000000000E+00  0.45593999997E+02  0.45594000000E+02  0.51100000000E-03 0.  1.
         11   -1    0    0    0    0 -0.00000000000E+00 -0.00000000000E+00 -0.45593999997E+02  0.45594000000E+02  0.51100000000E-03 0. -1.
    9900012    2    1    2    0    0 -0.74978635187E+00 -0.26064864289E+00 -0.87346425361E+00  0.90007721605E+02  0.89999982730E+02 0.  0.
        -12    1    1    2    0    0  0.74978635187E+00  0.26064864289E+00  0.87346425361E+00  0.11802783955E+01  0.00000000000E+00 0.  1.
         11    1    3    3    0    0  0.12574913714E+02 -0.55417298865E+01 -0.54255893322E+01  0.14774174932E+02  0.51100000000E-03 0. -1.
        -11    1    3    3    0    0 -0.40053367384E+02  0.19553999505E+02 -0.13844558158E+00  0.44571855502E+02  0.51100000000E-03 0.  1.
         12    1    3    3    0    0  0.26728667319E+02 -0.14272918261E+02  0.46905706602E+01  0.30661691171E+02  0.00000000000E+00 0. -1.
</event>
<event>
 7    1  0.2578619E-015  0.9000772E+02  0.7816164E-02  0.1186339E+00
        -11   -1    0    0    0    0  0.00000000000E+00  0.00000000000E+00  0.45593999997E+02  0.45594000000E+02  0.51100000000E-03 0. -1.
         11   -1    0    0    0    0 -0.00000000000E+00 -0.00000000000E+00 -0.45593999997E+02  0.45594000000E+02  0.51100000000E-03 0.  1.
    9900012    2    1    2    0    0 -0.11108545234E+01  0.12489413605E+00 -0.37877561118E+00  0.90007717288E+02  0.89999978356E+02 0.  0.
        -12    1    1    2    0    0  0.11108545234E+01 -0.12489413605E+00  0.37877561118E+00  0.11802827123E+01  0.00000000000E+00 0.  1.
         11    1    3    3    0    0 -0.94566445778E+01 -0.14953943506E+00  0.31546325445E+01  0.99700649679E+01  0.51100000000E-03 0. -1.
        -11    1    3    3    0    0 -0.32781765398E+01 -0.28241466744E+02 -0.28602903026E+02  0.40329306305E+02  0.51100000000E-03 0.  1.
         12    1    3    3    0    0  0.11623966594E+02  0.28515900315E+02  0.25069494871E+02  0.39708346015E+02  0.00000000000E+00 0. -1.
</event>
<event>
 7    1  0.2578619E-015  0.9000775E+02  0.7816164E-02  0.1186339E+00
        -11   -1    0    0    0    0  0.00000000000E+00  0.00000000000E+00  0.45593999997E+02  0.45594000000E+02  0.51100000000E-03 0.  1.
         11   -1    0    0    0    0 -0.00000000000E+00 -0.00000000000E+00 -0.45593999997E+02  0.45594000000E+02  0.51100000000E-03 0. -1.
    9900012    2    1    2    0    0 -0.36550880792E+00 -0.11037732379E+01  0.20265167295E+00  0.90007754369E+02  0.90000015927E+02 0.  0.
        -12    1    1    2    0    0  0.36550880792E+00  0.11037732379E+01 -0.20265167295E+00  0.11802456312E+01  0.00000000000E+00 0.  1.
         11    1    3    3    0    0  0.17626195746E+02  0.21381764348E+02  0.22064042607E+02  0.35421527345E+02  0.51100000000E-03 0. -1.
        -11    1    3    3    0    0  0.66935836289E+01 -0.25842453963E+01  0.81978197310E+01  0.10894339570E+02  0.51100000000E-03 0.  1.
        -12    1    3    3    0    0 -0.24685288182E+02 -0.19901292189E+02 -0.30059210665E+02  0.43691887453E+02  0.00000000000E+00 0.  1.
</event>
<event>
 7    1  0.2578619E-015  0.9000771E+02  0.7816164E-02  0.1186339E+00
        -11   -1    0    0    0    0  0.00000000000E+00  0.00000000000E+00  0.45593999997E+02  0.45594000000E+02  0.51100000000E-03 0. -1.
         11   -1    0    0    0    0 -0.00000000000E+00 -0.00000000000E+00 -0.45593999997E+02  0.45594000000E+02  0.51100000000E-03 0.  1.
    9900012    2    1    2    0    0  0.74790667012E+00  0.42166409471E+00  0.80988516162E+00  0.90007712335E+02  0.89999973338E+02 0.  0.
        -12    1    1    2    0    0 -0.74790667012E+00 -0.42166409471E+00 -0.80988516162E+00  0.11802876645E+01  0.00000000000E+00 0.  1.
         11    1    3    3    0    0 -0.16547443905E+02 -0.31454794950E+02 -0.42046118650E+01  0.35789674298E+02  0.51100000000E-03 0. -1.
        -11    1    3    3    0    0 -0.47729059303E+01 -0.56410221933E+01 -0.57700524682E+01  0.93752476315E+01  0.51100000000E-03 0.  1.
        -12    1    3    3    0    0  0.22068256506E+02  0.37517481238E+02  0.10784549495E+02  0.44842790406E+02  0.00000000000E+00 0.  1.
</event>
<event>
 7    1  0.2578619E-015  0.9000775E+02  0.7816164E-02  0.1186339E+00
        -11   -1    0    0    0    0  0.00000000000E+00  0.00000000000E+00  0.45593999997E+02  0.45594000000E+02  0.51100000000E-03 0.  1.
         11   -1    0    0    0    0 -0.00000000000E+00 -0.00000000000E+00 -0.45593999997E+02  0.45594000000E+02  0.51100000000E-03 0. -1.
    9900012    2    1    2    0    0  0.10588333393E+00  0.14779135030E+00 -0.11661617322E+01  0.90007751404E+02  0.90000012922E+02 0.  0.
        -12    1    1    2    0    0 -0.10588333393E+00 -0.14779135030E+00  0.11661617322E+01  0.11802485964E+01  0.00000000000E+00 0.  1.
         11    1    3    3    0    0 -0.51797912595E+01  0.11459856795E+02 -0.81443577721E+00  0.12602454568E+02  0.51100000000E-03 0. -1.
        -11    1    3    3    0    0 -0.31928913370E+02 -0.10043477963E+02  0.15560753952E+02  0.36911570305E+02  0.51100000000E-03 0.  1.
         12    1    3    3    0    0  0.37214587964E+02 -0.12685874813E+01 -0.15912479907E+02  0.40493726530E+02  0.00000000000E+00 0. -1.
</event>
<event>
 7    1  0.2578619E-015  0.9000771E+02  0.7816164E-02  0.1186339E+00
        -11   -1    0    0    0    0  0.00000000000E+00  0.00000000000E+00  0.45593999997E+02  0.45594000000E+02  0.51100000000E-03 0. -1.
         11   -1    0    0    0    0 -0.00000000000E+00 -0.00000000000E+00 -0.45593999997E+02  0.45594000000E+02  0.51100000000E-03 0.  1.
    9900012    2    1    2    0    0 -0.29243161236E+00 -0.86573457955E+00  0.74704655159E+00  0.90007707172E+02  0.89999968106E+02 0.  0.
        -12    1    1    2    0    0  0.29243161236E+00  0.86573457955E+00 -0.74704655159E+00  0.11802928282E+01  0.00000000000E+00 0.  1.
         11    1    3    3    0    0 -0.71108720031E+01 -0.11399706588E+01  0.43007995747E+01  0.83881410926E+01  0.51100000000E-03 0. -1.
        -11    1    3    3    0    0 -0.38313058616E+01  0.39254786833E+02 -0.10025231048E+02  0.40695484414E+02  0.51100000000E-03 0.  1.
         12    1    3    3    0    0  0.10649746252E+02 -0.38980550753E+02  0.64714780254E+01  0.40924081665E+02  0.00000000000E+00 0. -1.
</event>
<event>
 7    1  0.2578619E-015  0.9000771E+02  0.7816164E-02  0.1186339E+00
        -11   -1    0    0    0    0  0.00000000000E+00  0.00000000000E+00  0.45593999997E+02  0.45594000000E+02  0.51100000000E-03 0. -1.
         11   -1    0    0    0    0 -0.00000000000E+00 -0.00000000000E+00 -0.45593999997E+02  0.45594000000E+02  0.51100000000E-03 0.  1.
    9900012    2    1    2    0    0 -0.42657746773E+00 -0.95116288364E+00  0.55352861696E+00  0.90007714824E+02  0.89999975860E+02 0.  0.
        -12    1    1    2    0    0  0.42657746773E+00  0.95116288364E+00 -0.55352861696E+00  0.11802851761E+01  0.00000000000E+00 0.  1.
         11    1    3    3    0    0  0.17728374439E+02  0.61857010967E+01  0.47905061046E+01  0.19378005761E+02  0.51100000000E-03 0. -1.
        -11    1    3    3    0    0  0.12953071639E+02  0.22332532272E+02 -0.93875564092E+01  0.27470898750E+02  0.51100000000E-03 0.  1.
        -12    1    3    3    0    0 -0.31108023545E+02 -0.29469396252E+02  0.51505789216E+01  0.43158810312E+02  0.00000000000E+00 0.  1.
</event>
<event>
 7    1  0.2578619E-015  0.9000773E+02  0.7816164E-02  0.1186339E+00
        -11   -1    0    0    0    0  0.00000000000E+00  0.00000000000E+00  0.45593999997E+02  0.45594000000E+02  0.51100000000E-03 0. -1.
         11   -1    0    0    0    0 -0.00000000000E+00 -0.00000000000E+00 -0.45593999997E+02  0.45594000000E+02  0.51100000000E-03 0.  1.
    9900012    2    1    2    0    0  0.69001835670E+00 -0.76098012197E+00  0.58122909845E+00  0.90007727428E+02  0.89999988630E+02 0.  0.
        -12    1    1    2    0    0 -0.69001835670E+00  0.76098012197E+00 -0.58122909845E+00  0.11802725717E+01  0.00000000000E+00 0.  1.
         11    1    3    3    0    0  0.69236700988E+01  0.10179388665E+02  0.34561767611E+02  0.36688866729E+02  0.51100000000E-03 0. -1.
        -11    1    3    3    0    0  0.33941801662E+01  0.12817760947E+02 -0.39508659681E+01  0.13835635036E+02  0.51100000000E-03 0.  1.
        -12    1    3    3    0    0 -0.96278319084E+01 -0.23758129734E+02 -0.30029672544E+02  0.39483225664E+02  0.00000000000E+00 0.  1.
</event>
<event>
 7    1  0.3029029E-015  0.9000769E+02  0.7816164E-02  0.1186339E+00
        -11   -1    0    0    0    0  0.00000000000E+00  0.00000000000E+00  0.45593999997E+02  0.45594000000E+02  0.51100000000E-03 0.  1.
         11   -1    0    0    0    0 -0.00000000000E+00 -0.00000000000E+00 -0.45593999997E+02  0.45594000000E+02  0.51100000000E-03 0. -1.
    9900012    2    1    2    0    0 -0.86662065014E+00 -0.46805154041E+00  0.65041342581E+00  0.90007685965E+02  0.89999946620E+02 0.  0.
        -12    1    1    2    0    0  0.86662065014E+00  0.46805154041E+00 -0.65041342581E+00  0.11803140346E+01  0.00000000000E+00 0.  1.
         11    1    3    3    0    0 -0.29354474284E+01  0.88163993586E+01  0.23128787542E+01  0.95757588550E+01  0.51100000000E-03 0. -1.
        -11    1    3    3    0    0 -0.29787123766E+02  0.14957057236E+02 -0.17180449073E+02  0.37498721765E+02  0.51100000000E-03 0.  1.
         12    1    3    3    0    0  0.31855950544E+02 -0.24241508135E+02  0.15517983744E+02  0.42933205345E+02  0.00000000000E+00 0. -1.
</event>
<event>
 7    1  0.2578619E-015  0.9000776E+02  0.7816164E-02  0.1186339E+00
        -11   -1    0    0    0    0  0.00000000000E+00  0.00000000000E+00  0.45593999997E+02  0.45594000000E+02  0.51100000000E-03 0. -1.
         11   -1    0    0    0    0 -0.00000000000E+00 -0.00000000000E+00 -0.45593999997E+02  0.45594000000E+02  0.51100000000E-03 0.  1.
    9900012    2    1    2    0    0  0.29306155882E+00 -0.87516933061E+00  0.73564136573E+00  0.90007756528E+02  0.90000018114E+02 0.  0.
        -12    1    1    2    0    0 -0.29306155882E+00  0.87516933061E+00 -0.73564136573E+00  0.11802434721E+01  0.00000000000E+00 0.  1.
         11    1    3    3    0    0  0.14796395925E+02  0.21775318602E+02  0.23915483674E+02  0.35567515969E+02  0.51100000000E-03 0. -1.
        -11    1    3    3    0    0  0.82346973477E+00  0.63848827798E+01  0.72353729122E+01  0.96848052100E+01  0.51100000000E-03 0.  1.
        -12    1    3    3    0    0 -0.15326804101E+02 -0.29035370713E+02 -0.30415215220E+02  0.44755435349E+02  0.00000000000E+00 0.  1.
</event>
<event>
 7    1  0.2901704E-015  0.9000786E+02  0.7816164E-02  0.1186339E+00
        -11   -1    0    0    0    0  0.00000000000E+00  0.00000000000E+00  0.45593999997E+02  0.45594000000E+02  0.51100000000E-03 0.  1.
         11   -1    0    0    0    0 -0.00000000000E+00 -0.00000000000E+00 -0.45593999997E+02  0.45594000000E+02  0.51100000000E-03 0. -1.
    9900012    2    1    2    0    0  0.11193060699E+01  0.16031586248E+00 -0.33792186673E+00  0.90007856601E+02  0.90000119508E+02 0.  0.
        -12    1    1    2    0    0 -0.11193060699E+01 -0.16031586248E+00  0.33792186673E+00  0.11801433989E+01  0.00000000000E+00 0.  1.
         11    1    3    3    0    0 -0.23468040514E+01  0.84703192069E+01  0.38450776951E+01  0.95936655906E+01  0.51100000000E-03 0. -1.
        -11    1    3    3    0    0  0.16948510337E+02 -0.84552658436E+01  0.34550219870E+02  0.39401284452E+02  0.51100000000E-03 0.  1.
         12    1    3    3    0    0 -0.13482400216E+02  0.14526249918E+00 -0.38733219432E+02  0.41012906558E+02  0.00000000000E+00 0. -1.
</event>
<event>
 7    1  0.2578619E-015  0.9000777E+02  0.7816164E-02  0.1186339E+00
        -11   -1    0    0    0    0  0.00000000000E+00  0.00000000000E+00  0.45593999997E+02  0.45594000000E+02  0.51100000000E-03 0.  1.
         11   -1    0    0    0    0 -0.00000000000E+00 -0.00000000000E+00 -0.45593999997E+02  0.45594000000E+02  0.51100000000E-03 0. -1.
    9900012    2    1    2    0    0  0.59400512838E-01  0.65889959426E+00 -0.97737294555E+00  0.90007773339E+02  0.90000035147E+02 0.  0.
        -12    1    1    2    0    0 -0.59400512838E-01 -0.65889959426E+00  0.97737294555E+00  0.11802266608E+01  0.00000000000E+00 0.  1.
         11    1    3    3    0    0  0.29056527265E+02  0.11813496804E+02 -0.30045848187E+02  0.43434933832E+02  0.51100000000E-03 0. -1.
        -11    1    3    3    0    0 -0.93506270944E+01 -0.45479161774E+01 -0.56081532030E+00  0.10413082286E+02  0.51100000000E-03 0.  1.
        -12    1    3    3    0    0 -0.19646499658E+02 -0.66066810324E+01  0.29629290562E+02  0.36159757221E+02  0.00000000000E+00 0.  1.
</event>
<event>
 7    1  0.2578619E-015  0.9000781E+02  0.7816164E-02  0.1186339E+00
        -11   -1    0    0    0    0  0.00000000000E+00  0.00000000000E+00  0.45593999997E+02  0.45594000000E+02  0.51100000000E-03 0. -1.
         11   -1    0    0    0    0 -0.00000000000E+00 -0.00000000000E+00 -0.45593999997E+02  0.45594000000E+02  0.51100000000E-03 0.  1.
    9900012    2    1    2    0    0  0.52999531734E+00  0.64658588953E+00  0.83300124971E+00  0.90007805342E+02  0.90000067572E+02 0.  0.
        -12    1    1    2    0    0 -0.52999531734E+00 -0.64658588953E+00 -0.83300124971E+00  0.11801946581E+01  0.00000000000E+00 0.  1.
         11    1    3    3    0    0 -0.10142963303E+02  0.41237637550E+01  0.39722066652E+02  0.41203491496E+02  0.51100000000E-03 0. -1.
        -11    1    3    3    0    0 -0.37611969955E+01  0.78869396946E+01 -0.45298982208E+01  0.98422760953E+01  0.51100000000E-03 0.  1.
        -12    1    3    3    0    0  0.14434155616E+02 -0.11364117560E+02 -0.34359167182E+02  0.38962037751E+02  0.00000000000E+00 0.  1.
</event>
<event>
 7    1  0.2578619E-015  0.9000771E+02  0.7816164E-02  0.1186339E+00
        -11   -1    0    0    0    0  0.00000000000E+00  0.00000000000E+00  0.45593999997E+02  0.45594000000E+02  0.51100000000E-03 0. -1.
         11   -1    0    0    0    0 -0.00000000000E+00 -0.00000000000E+00 -0.45593999997E+02  0.45594000000E+02  0.51100000000E-03 0.  1.
    9900012    2    1    2    0    0  0.73208976210E+00 -0.91810354007E-01  0.92125434175E+00  0.90007705917E+02  0.89999966835E+02 0.  0.
        -12    1    1    2    0    0 -0.73208976210E+00  0.91810354007E-01 -0.92125434175E+00  0.11802940833E+01  0.00000000000E+00 0.  1.
         11    1    3    3    0    0  0.16522989803E+02  0.80574489244E+00  0.46198483427E+01  0.17175605253E+02  0.51100000000E-03 0. -1.
        -11    1    3    3    0    0  0.25623224443E+02 -0.13210811224E+02 -0.64415098139E+01  0.29539265614E+02  0.51100000000E-03 0.  1.
        -12    1    3    3    0    0 -0.41414124483E+02  0.12313255978E+02  0.27429158129E+01  0.43292835050E+02  0.00000000000E+00 0.  1.
</event>
<event>
 7    1  0.2578619E-015  0.9000778E+02  0.7816164E-02  0.1186339E+00
        -11   -1    0    0    0    0  0.00000000000E+00  0.00000000000E+00  0.45593999997E+02  0.45594000000E+02  0.51100000000E-03 0. -1.
         11   -1    0    0    0    0 -0.00000000000E+00 -0.00000000000E+00 -0.45593999997E+02  0.45594000000E+02  0.51100000000E-03 0.  1.
    9900012    2    1    2    0    0  0.75579282948E+00  0.45255297575E+00 -0.78543164079E+00  0.90007775505E+02  0.90000037341E+02 0.  0.
        -12    1    1    2    0    0 -0.75579282948E+00 -0.45255297575E+00  0.78543164079E+00  0.11802244953E+01  0.00000000000E+00 0.  1.
         11    1    3    3    0    0  0.37834541280E+00  0.11153551025E+02 -0.62476471361E+01  0.12789759213E+02  0.51100000000E-03 0. -1.
        -11    1    3    3    0    0 -0.34527945734E+02  0.26766022601E+01 -0.11050972617E+02  0.36351990761E+02  0.51100000000E-03 0.  1.
         12    1    3    3    0    0  0.34905393151E+02 -0.13377600310E+02  0.16513188112E+02  0.40866025531E+02  0.00000000000E+00 0. -1.
</event>
<event>
 7    1  0.2578619E-015  0.9000768E+02  0.7816164E-02  0.1186339E+00
        -11   -1    0    0    0    0  0.00000000000E+00  0.00000000000E+00  0.45593999997E+02  0.45594000000E+02  0.51100000000E-03 0. -1.
         11   -1    0    0    0    0 -0.00000000000E+00 -0.00000000000E+00 -0.45593999997E+02  0.45594000000E+02  0.51100000000E-03 0.  1.
    9900012    2    1    2    0    0  0.97935902112E+00 -0.57621935927E+00  0.31933598991E+00  0.90007682959E+02  0.89999943574E+02 0.  0.
        -12    1    1    2    0    0 -0.97935902112E+00  0.57621935927E+00 -0.31933598991E+00  0.11803170408E+01  0.00000000000E+00 0.  1.
         11    1    3    3    0    0 -0.16363253265E+02 -0.89145794332E+01  0.33027706684E+02  0.37921698182E+02  0.51100000000E-03 0. -1.
        -11    1    3    3    0    0  0.61274983323E+00  0.58076480168E+01  0.68853415102E+01  0.90284088198E+01  0.51100000000E-03 0.  1.
        -12    1    3    3    0    0  0.16729862453E+02  0.25307120571E+01 -0.39593712205E+02  0.43057575958E+02  0.00000000000E+00 0.  1.
</event>
<event>
 7    1  0.2578619E-015  0.9000768E+02  0.7816164E-02  0.1186339E+00
        -11   -1    0    0    0    0  0.00000000000E+00  0.00000000000E+00  0.45593999997E+02  0.45594000000E+02  0.51100000000E-03 0. -1.
         11   -1    0    0    0    0 -0.00000000000E+00 -0.00000000000E+00 -0.45593999997E+02  0.45594000000E+02  0.51100000000E-03 0.  1.
    9900012    2    1    2    0    0 -0.16002836813E+00 -0.25885119448E+00  0.11404136878E+01  0.90007679536E+02  0.89999940105E+02 0.  0.
        -12    1    1    2    0    0  0.16002836813E+00  0.25885119448E+00 -0.11404136878E+01  0.11803204644E+01  0.00000000000E+00 0.  1.
         11    1    3    3    0    0  0.11229600878E+02 -0.14979779605E+02 -0.39545159300E+01  0.19134678712E+02  0.51100000000E-03 0. -1.
        -11    1    3    3    0    0  0.24002214087E+02 -0.83299381919E+00 -0.13953632933E+02  0.27775961407E+02  0.51100000000E-03 0.  1.
        -12    1    3    3    0    0 -0.35391843333E+02  0.15553922230E+02  0.19048562551E+02  0.43097039417E+02  0.00000000000E+00 0.  1.
</event>
<event>
 7    1  0.2578619E-015  0.9000775E+02  0.7816164E-02  0.1186339E+00
        -11   -1    0    0    0    0  0.00000000000E+00  0.00000000000E+00  0.45593999997E+02  0.45594000000E+02  0.51100000000E-03 0. -1.
         11   -1    0    0    0    0 -0.00000000000E+00 -0.00000000000E+00 -0.45593999997E+02  0.45594000000E+02  0.51100000000E-03 0.  1.
    9900012    2    1    2    0    0  0.25370139365E+00 -0.81373328314E+00  0.81636928506E+00  0.90007752118E+02  0.90000013646E+02 0.  0.
        -12    1    1    2    0    0 -0.25370139365E+00  0.81373328314E+00 -0.81636928506E+00  0.11802478819E+01  0.00000000000E+00 0.  1.
         11    1    3    3    0    0  0.78099668666E+01 -0.71500870478E+00  0.52297092476E+01  0.94263820727E+01  0.51100000000E-03 0. -1.
        -11    1    3    3    0    0 -0.32467092754E+02 -0.26634498580E+02 -0.11414348169E+02  0.43517766152E+02  0.51100000000E-03 0.  1.
         12    1    3    3    0    0  0.24910827281E+02  0.26535774002E+02  0.70010082063E+01  0.37063603893E+02  0.00000000000E+00 0. -1.
</event>
<event>
 7    1  0.2578619E-015  0.9000848E+02  0.7816164E-02  0.1186338E+00
        -11   -1    0    0    0    0  0.00000000000E+00  0.00000000000E+00  0.45593999997E+02  0.45594000000E+02  0.51100000000E-03 0.  1.
         11   -1    0    0    0    0 -0.00000000000E+00 -0.00000000000E+00 -0.45593999997E+02  0.45594000000E+02  0.51100000000E-03 0. -1.
    9900012    2    1    2    0    0 -0.61845188632E-01 -0.11546366341E+01  0.23294706557E+00  0.90008476825E+02  0.90000747916E+02 0.  0.
        -12    1    1    2    0    0  0.61845188632E-01  0.11546366341E+01 -0.23294706557E+00  0.11795231746E+01  0.00000000000E+00 0.  1.
         11    1    3    3    0    0 -0.42320060872E+01  0.94051551842E+00 -0.36472298841E+02  0.36729048830E+02  0.51100000000E-03 0. -1.
        -11    1    3    3    0    0 -0.51834033618E+01 -0.13916248493E+02  0.14306777764E+01  0.14918997342E+02  0.51100000000E-03 0.  1.
        -12    1    3    3    0    0  0.93535642604E+01  0.11821096341E+02  0.35274568130E+02  0.38360430653E+02  0.00000000000E+00 0.  1.
</event>
<event>
 7    1  0.2578619E-015  0.9000756E+02  0.7816164E-02  0.1186339E+00
        -11   -1    0    0    0    0  0.00000000000E+00  0.00000000000E+00  0.45593999997E+02  0.45594000000E+02  0.51100000000E-03 0.  1.
         11   -1    0    0    0    0 -0.00000000000E+00 -0.00000000000E+00 -0.45593999997E+02  0.45594000000E+02  0.51100000000E-03 0. -1.
    9900012    2    1    2    0    0 -0.32917565349E-01  0.57747480499E+00 -0.10290163881E+01  0.90007561334E+02  0.89999820344E+02 0.  0.
        -12    1    1    2    0    0  0.32917565349E-01 -0.57747480499E+00  0.10290163881E+01  0.11804386657E+01  0.00000000000E+00 0.  1.
         11    1    3    3    0    0  0.24070284435E+01  0.20088265677E+01  0.96961861240E+01  0.10190446296E+02  0.51100000000E-03 0. -1.
        -11    1    3    3    0    0  0.95173635441E+00  0.66608278823E+01  0.33785937455E+02  0.34449412189E+02  0.51100000000E-03 0.  1.
         12    1    3    3    0    0 -0.33916823632E+01 -0.80921796449E+01 -0.44511139967E+02  0.45367702849E+02  0.00000000000E+00 0. -1.
</event>
<event>
 7    1  0.2578619E-015  0.9000773E+02  0.7816164E-02  0.1186339E+00
        -11   -1    0    0    0    0  0.00000000000E+00  0.00000000000E+00  0.45593999997E+02  0.45594000000E+02  0.51100000000E-03 0. -1.
         11   -1    0    0    0    0 -0.00000000000E+00 -0.00000000000E+00 -0.45593999997E+02  0.45594000000E+02  0.51100000000E-03 0.  1.
    9900012    2    1    2    0    0 -0.34801837597E+00  0.15493809342E-01  0.11276909325E+01  0.90007727283E+02  0.89999988483E+02 0.  0.
        -12    1    1    2    0    0  0.34801837597E+00 -0.15493809342E-01 -0.11276909325E+01  0.11802727174E+01  0.00000000000E+00 0.  1.
         11    1    3    3    0    0 -0.61206134478E+01  0.14622373741E+02 -0.11701175419E+01  0.15894807269E+02  0.51100000000E-03 0. -1.
        -11    1    3    3    0    0 -0.13620890878E+02  0.13136892642E+02  0.26455307438E+02  0.32526756809E+02  0.51100000000E-03 0.  1.
         12    1    3    3    0    0  0.19393485950E+02 -0.27743772574E+02 -0.24157498964E+02  0.41586163205E+02  0.00000000000E+00 0. -1.
</event>
<event>
 7    1  0.2578619E-015  0.9000779E+02  0.7816164E-02  0.1186339E+00
        -11   -1    0    0    0    0  0.00000000000E+00  0.00000000000E+00  0.45593999997E+02  0.45594000000E+02  0.51100000000E-03 0.  1.
         11   -1    0    0    0    0 -0.00000000000E+00 -0.00000000000E+00 -0.45593999997E+02  0.45594000000E+02  0.51100000000E-03 0. -1.
    9900012    2    1    2    0    0  0.37184915930E+00  0.83355671403E+00 -0.74820475959E+00  0.90007788597E+02  0.90000050607E+02 0.  0.
        -12    1    1    2    0    0 -0.37184915930E+00 -0.83355671403E+00  0.74820475959E+00  0.11802114027E+01  0.00000000000E+00 0.  1.
         11    1    3    3    0    0 -0.26115558016E+01  0.20716092836E+01 -0.84496539455E+01  0.90834157005E+01  0.51100000000E-03 0. -1.
        -11    1    3    3    0    0  0.13607326849E+02  0.36001326414E+02 -0.76984814554E+01  0.39249477251E+02  0.51100000000E-03 0.  1.
         12    1    3    3    0    0 -0.10623921888E+02 -0.37239378983E+02  0.15399930641E+02  0.41674895646E+02  0.00000000000E+00 0. -1.
</event>
<event>
 7    1  0.2578619E-015  0.9000779E+02  0.7816164E-02  0.1186339E+00
        -11   -1    0    0    0    0  0.00000000000E+00  0.00000000000E+00  0.45593999997E+02  0.45594000000E+02  0.51100000000E-03 0.  1.
         11   -1    0    0    0    0 -0.00000000000E+00 -0.00000000000E+00 -0.45593999997E+02  0.45594000000E+02  0.51100000000E-03 0. -1.
    9900012    2    1    2    0    0  0.52080394640E-02  0.48543662397E+00 -0.10757381714E+01  0.90007793047E+02  0.90000055115E+02 0.  0.
        -12    1    1    2    0    0 -0.52080394640E-02 -0.48543662397E+00  0.10757381714E+01  0.11802069535E+01  0.00000000000E+00 0.  1.
         11    1    3    3    0    0 -0.14686899176E+02 -0.45188930874E+01  0.38703893739E+02  0.41642727973E+02  0.51100000000E-03 0. -1.
        -11    1    3    3    0    0  0.88916907982E+01  0.37990532484E+01 -0.16880326686E+01  0.98155196187E+01  0.51100000000E-03 0.  1.
        -12    1    3    3    0    0  0.58004164176E+01  0.12052764630E+01 -0.38091599242E+02  0.38549545455E+02  0.00000000000E+00 0.  1.
</event>
<event>
 7    1  0.2578619E-015  0.9000802E+02  0.7816164E-02  0.1186338E+00
        -11   -1    0    0    0    0  0.00000000000E+00  0.00000000000E+00  0.45593999997E+02  0.45594000000E+02  0.51100000000E-03 0. -1.
         11   -1    0    0    0    0 -0.00000000000E+00 -0.00000000000E+00 -0.45593999997E+02  0.45594000000E+02  0.51100000000E-03 0.  1.
    9900012    2    1    2    0    0  0.85520262912E+00  0.78398453465E+00  0.21527372633E+00  0.90008022854E+02  0.90000287955E+02 0.  0.
        -12    1    1    2    0    0 -0.85520262912E+00 -0.78398453465E+00 -0.21527372633E+00  0.11799771458E+01  0.00000000000E+00 0.  1.
         11    1    3    3    0    0 -0.39484012000E+01 -0.78744461150E+01  0.59461708135E+01  0.10627968821E+02  0.51100000000E-03 0. -1.
        -11    1    3    3    0    0 -0.16385570656E+02  0.29177840242E+02  0.21054850646E+02  0.39536565644E+02  0.51100000000E-03 0.  1.
         12    1    3    3    0    0  0.21189174485E+02 -0.20519409593E+02 -0.26785747733E+02  0.39843488389E+02  0.00000000000E+00 0. -1.
</event>
<event>
 7    1  0.2578619E-015  0.9000787E+02  0.7816164E-02  0.1186339E+00
        -11   -1    0    0    0    0  0.00000000000E+00  0.00000000000E+00  0.45593999997E+02  0.45594000000E+02  0.51100000000E-03 0.  1.
         11   -1    0    0    0    0 -0.00000000000E+00 -0.00000000000E+00 -0.45593999997E+02  0.45594000000E+02  0.51100000000E-03 0. -1.
    9900012    2    1    2    0    0  0.17720103145E+00 -0.11663861240E+01 -0.29167837198E-01  0.90007869686E+02  0.90000132766E+02 0.  0.
        -12    1    1    2    0    0 -0.17720103145E+00  0.11663861240E+01  0.29167837198E-01  0.11801303142E+01  0.00000000000E+00 0.  1.
         11    1    3    3    0    0  0.26080785321E+02 -0.24961411067E+02 -0.10173712404E+02  0.37507117055E+02  0.51100000000E-03 0. -1.
        -11    1    3    3    0    0  0.78727491533E+00 -0.70188626508E+01  0.93613463495E+01  0.11726851258E+02  0.51100000000E-03 0.  1.
        -12    1    3    3    0    0 -0.26690859205E+02  0.30813887593E+02  0.78319821765E+00  0.40773901373E+02  0.00000000000E+00 0.  1.
</event>
<event>
 7    1  0.2578619E-015  0.9000774E+02  0.7816164E-02  0.1186339E+00
        -11   -1    0    0    0    0  0.00000000000E+00  0.00000000000E+00  0.45593999997E+02  0.45594000000E+02  0.51100000000E-03 0. -1.
         11   -1    0    0    0    0 -0.00000000000E+00 -0.00000000000E+00 -0.45593999997E+02  0.45594000000E+02  0.51100000000E-03 0.  1.
    9900012    2    1    2    0    0  0.15189824173E+00  0.92176498447E+00 -0.72131478682E+00  0.90007737832E+02  0.89999999172E+02 0.  0.
        -12    1    1    2    0    0 -0.15189824173E+00 -0.92176498447E+00  0.72131478682E+00  0.11802621675E+01  0.00000000000E+00 0.  1.
         11    1    3    3    0    0  0.85157871978E+01 -0.19399007909E+02  0.32545196092E+02  0.38833361024E+02  0.51100000000E-03 0. -1.
        -11    1    3    3    0    0  0.23833728644E+01 -0.79448849435E+01 -0.44961172969E+01  0.94348679898E+01  0.51100000000E-03 0.  1.
        -12    1    3    3    0    0 -0.10747261821E+02  0.28265657837E+02 -0.28770393582E+02  0.41739508819E+02  0.00000000000E+00 0.  1.
</event>
<event>
 7    1  0.2578619E-015  0.9000771E+02  0.7816164E-02  0.1186339E+00
        -11   -1    0    0    0    0  0.00000000000E+00  0.00000000000E+00  0.45593999997E+02  0.45594000000E+02  0.51100000000E-03 0.  1.
         11   -1    0    0    0    0 -0.00000000000E+00 -0.00000000000E+00 -0.45593999997E+02  0.45594000000E+02  0.51100000000E-03 0. -1.
    9900012    2    1    2    0    0 -0.38899124840E+00  0.65852718217E+00 -0.89895074499E+00  0.90007709916E+02  0.89999970887E+02 0.  0.
        -12    1    1    2    0    0  0.38899124840E+00 -0.65852718217E+00  0.89895074499E+00  0.11802900842E+01  0.00000000000E+00 0.  1.
         11    1    3    3    0    0  0.30401988162E+02  0.14324459844E+02 -0.17754191836E+02  0.38008977387E+02  0.51100000000E-03 0. -1.
        -11    1    3    3    0    0  0.71101995033E+01 -0.80226644257E+01  0.54053457212E+01  0.12005658836E+02  0.51100000000E-03 0.  1.
        -12    1    3    3    0    0 -0.37901178914E+02 -0.56432682357E+01  0.11449895369E+02  0.39993073693E+02  0.00000000000E+00 0.  1.
</event>
<event>
 7    1  0.2578619E-015  0.9000773E+02  0.7816164E-02  0.1186339E+00
        -11   -1    0    0    0    0  0.00000000000E+00  0.00000000000E+00  0.45593999997E+02  0.45594000000E+02  0.51100000000E-03 0. -1.
         11   -1    0    0    0    0 -0.00000000000E+00 -0.00000000000E+00 -0.45593999997E+02  0.45594000000E+02  0.51100000000E-03 0.  1.
    9900012    2    1    2    0    0 -0.42950452082E+00  0.10686063132E+01  0.25817532629E+00  0.90007725420E+02  0.89999986595E+02 0.  0.
        -12    1    1    2    0    0  0.42950452082E+00 -0.10686063132E+01 -0.25817532629E+00  0.11802745804E+01  0.00000000000E+00 0.  1.
         11    1    3    3    0    0  0.13758094319E+02 -0.32719675669E+02 -0.16357201524E+02  0.39082225846E+02  0.51100000000E-03 0. -1.
        -11    1    3    3    0    0  0.58728830708E+01 -0.80168341978E+00  0.81094043563E+01  0.10044694676E+02  0.51100000000E-03 0.  1.
        -12    1    3    3    0    0 -0.20060481910E+02  0.34589965402E+02  0.85059724939E+01  0.40880804897E+02  0.00000000000E+00 0.  1.
</event>
<event>
 7    1  0.2578619E-015  0.9000782E+02  0.7816164E-02  0.1186339E+00
        -11   -1    0    0    0    0  0.00000000000E+00  0.00000000000E+00  0.45593999997E+02  0.45594000000E+02  0.51100000000E-03 0. -1.
         11   -1    0    0    0    0 -0.00000000000E+00 -0.00000000000E+00 -0.45593999997E+02  0.45594000000E+02  0.51100000000E-03 0.  1.
    9900012    2    1    2    0    0  0.11631599782E+01  0.19657650787E+00  0.35242250281E-01  0.90007819728E+02  0.90000082148E+02 0.  0.
        -12    1    1    2    0    0 -0.11631599782E+01 -0.19657650787E+00 -0.35242250281E-01  0.11801802721E+01  0.00000000000E+00 0.  1.
         11    1    3    3    0    0 -0.73212859340E+01 -0.39360873704E+01 -0.23874408907E+01  0.86483458408E+01  0.51100000000E-03 0. -1.
        -11    1    3    3    0    0  0.13906939009E+02 -0.14113249070E+02 -0.34519495016E+02  0.39801787502E+02  0.51100000000E-03 0.  1.
         12    1    3    3    0    0 -0.54224930963E+01  0.18245912948E+02  0.36942178157E+02  0.41557686385E+02  0.00000000000E+00 0. -1.
</event>
<event>
 7    1  0.2578619E-015  0.9000774E+02  0.7816164E-02  0.1186339E+00
        -11   -1    0    0    0    0  0.00000000000E+00  0.00000000000E+00  0.45593999997E+02  0.45594000000E+02  0.51100000000E-03 0. -1.
         11   -1    0    0    0    0 -0.00000000000E+00 -0.00000000000E+00 -0.45593999997E+02  0.45594000000E+02  0.51100000000E-03 0.  1.
    9900012    2    1    2    0    0 -0.50588729600E+00 -0.93855135304E+00  0.50617544255E+00  0.90007739784E+02  0.90000001149E+02 0.  0.
        -12    1    1    2    0    0  0.50588729600E+00  0.93855135304E+00 -0.50617544255E+00  0.11802602159E+01  0.00000000000E+00 0.  1.
         11    1    3    3    0    0  0.95206409904E+01 -0.52038341632E+01  0.40787590355E+02  0.42206042483E+02  0.51100000000E-03 0. -1.
        -11    1    3    3    0    0 -0.63995926831E+01 -0.60878475819E+01 -0.36399614919E+01  0.95533237470E+01  0.51100000000E-03 0.  1.
        -12    1    3    3    0    0 -0.36269356033E+01  0.10353130392E+02 -0.36641453420E+02  0.38248373554E+02  0.00000000000E+00 0.  1.
</event>
<event>
 7    1  0.2578619E-015  0.9000776E+02  0.7816164E-02  0.1186339E+00
        -11   -1    0    0    0    0  0.00000000000E+00  0.00000000000E+00  0.45593999997E+02  0.45594000000E+02  0.51100000000E-03 0. -1.
         11   -1    0    0    0    0 -0.00000000000E+00 -0.00000000000E+00 -0.45593999997E+02  0.45594000000E+02  0.51100000000E-03 0.  1.
    9900012    2    1    2    0    0 -0.88669495449E+00  0.67050105884E+00  0.39645394672E+00  0.90007756235E+02  0.90000017818E+02 0.  0.
        -12    1    1    2    0    0  0.88669495449E+00 -0.67050105884E+00 -0.39645394672E+00  0.11802437647E+01  0.00000000000E+00 0.  1.
         11    1    3    3    0    0 -0.26329779564E+02  0.63068308938E+01  0.59921934639E+01  0.27729763623E+02  0.51100000000E-03 0. -1.
        -11    1    3    3    0    0  0.25864849086E+01  0.11375209528E+01 -0.28842473525E+02  0.28980547569E+02  0.51100000000E-03 0.  1.
         12    1    3    3    0    0  0.22856599701E+02 -0.67738507878E+01  0.23246734008E+02  0.33297445043E+02  0.00000000000E+00 0. -1.
</event>
<event>
 7    1  0.2578619E-015  0.9000779E+02  0.7816164E-02  0.1186339E+00
        -11   -1    0    0    0    0  0.00000000000E+00  0.00000000000E+00  0.45593999997E+02  0.45594000000E+02  0.51100000000E-03 0. -1.
         11   -1    0    0    0    0 -0.00000000000E+00 -0.00000000000E+00 -0.45593999997E+02  0.45594000000E+02  0.51100000000E-03 0.  1.
    9900012    2    1    2    0    0 -0.26814687152E+00 -0.81199823258E+00  0.81341260638E+00  0.90007794957E+02  0.90000057051E+02 0.  0.
        -12    1    1    2    0    0  0.26814687152E+00  0.81199823258E+00 -0.81341260638E+00  0.11802050426E+01  0.00000000000E+00 0.  1.
         11    1    3    3    0    0  0.18821905450E+02 -0.29066174380E+02  0.95982496659E+01  0.35933730877E+02  0.51100000000E-03 0. -1.
        -11    1    3    3    0    0  0.43157565016E+01 -0.86189207487E+01 -0.76481789028E+00  0.96693585992E+01  0.51100000000E-03 0.  1.
        -12    1    3    3    0    0 -0.23405808823E+02  0.36873096896E+02 -0.80200191693E+01  0.44404705481E+02  0.00000000000E+00 0.  1.
</event>
<event>
 7    1  0.2578619E-015  0.9000774E+02  0.7816164E-02  0.1186339E+00
        -11   -1    0    0    0    0  0.00000000000E+00  0.00000000000E+00  0.45593999997E+02  0.45594000000E+02  0.51100000000E-03 0.  1.
         11   -1    0    0    0    0 -0.00000000000E+00 -0.00000000000E+00 -0.45593999997E+02  0.45594000000E+02  0.51100000000E-03 0. -1.
    9900012    2    1    2    0    0 -0.55083517793E+00 -0.20672957991E-01 -0.10436359846E+01  0.90007736117E+02  0.89999997434E+02 0.  0.
        -12    1    1    2    0    0  0.55083517793E+00  0.20672957991E-01  0.10436359846E+01  0.11802638827E+01  0.00000000000E+00 0.  1.
         11    1    3    3    0    0 -0.12889523835E+01  0.78250161728E+01 -0.12010869648E+01  0.80209030982E+01  0.51100000000E-03 0. -1.
        -11    1    3    3    0    0 -0.10787882777E+02  0.35358413060E+02 -0.34400905857E+01  0.37127213906E+02  0.51100000000E-03 0.  1.
         12    1    3    3    0    0  0.11525999982E+02 -0.43204102190E+02  0.35975415659E+01  0.44859619113E+02  0.00000000000E+00 0. -1.
</event>
<event>
 7    1  0.2578619E-015  0.9000777E+02  0.7816164E-02  0.1186339E+00
        -11   -1    0    0    0    0  0.00000000000E+00  0.00000000000E+00  0.45593999997E+02  0.45594000000E+02  0.51100000000E-03 0.  1.
         11   -1    0    0    0    0 -0.00000000000E+00 -0.00000000000E+00 -0.45593999997E+02  0.45594000000E+02  0.51100000000E-03 0. -1.
    9900012    2    1    2    0    0  0.96598865555E+00 -0.38095052297E-01  0.67701321283E+00  0.90007774511E+02  0.90000036334E+02 0.  0.
        -12    1    1    2    0    0 -0.96598865555E+00  0.38095052297E-01 -0.67701321283E+00  0.11802254895E+01  0.00000000000E+00 0.  1.
         11    1    3    3    0    0  0.80675342227E+01 -0.22890628148E+00  0.49561586497E+01  0.94710619966E+01  0.51100000000E-03 0. -1.
        -11    1    3    3    0    0 -0.27629039894E+01 -0.27429480076E+02  0.26996957210E+02  0.38585563551E+02  0.51100000000E-03 0.  1.
         12    1    3    3    0    0 -0.43386415778E+01  0.27620291305E+02 -0.31276102647E+02  0.41951148963E+02  0.00000000000E+00 0. -1.
</event>
<event>
 7    1  0.2578619E-015  0.9000772E+02  0.7816164E-02  0.1186339E+00
        -11   -1    0    0    0    0  0.00000000000E+00  0.00000000000E+00  0.45593999997E+02  0.45594000000E+02  0.51100000000E-03 0.  1.
         11   -1    0    0    0    0 -0.00000000000E+00 -0.00000000000E+00 -0.45593999997E+02  0.45594000000E+02  0.51100000000E-03 0. -1.
    9900012    2    1    2    0    0  0.93248038985E+00 -0.40583392051E+00 -0.59903766480E+00  0.90007717418E+02  0.89999978488E+02 0.  0.
        -12    1    1    2    0    0 -0.93248038985E+00  0.40583392051E+00  0.59903766480E+00  0.11802825816E+01  0.00000000000E+00 0.  1.
         11    1    3    3    0    0 -0.21217196140E+02  0.85016085592E+01  0.23280349377E+02  0.32625472066E+02  0.51100000000E-03 0. -1.
        -11    1    3    3    0    0 -0.69036414046E+01  0.56004353697E+01  0.79386788848E+01  0.11918379238E+02  0.51100000000E-03 0.  1.
        -12    1    3    3    0    0  0.29053317934E+02 -0.14507877849E+02 -0.31818065927E+02  0.45463866114E+02  0.00000000000E+00 0.  1.
</event>
<event>
 7    1  0.2578619E-015  0.9000766E+02  0.7816164E-02  0.1186339E+00
        -11   -1    0    0    0    0  0.00000000000E+00  0.00000000000E+00  0.45593999997E+02  0.45594000000E+02  0.51100000000E-03 0.  1.
         11   -1    0    0    0    0 -0.00000000000E+00 -0.00000000000E+00 -0.45593999997E+02  0.45594000000E+02  0.51100000000E-03 0. -1.
    9900012    2    1    2    0    0 -0.73523190312E+00  0.71494106587E+00 -0.58437622658E+00  0.90007660111E+02  0.89999920425E+02 0.  0.
        -12    1    1    2    0    0  0.73523190312E+00 -0.71494106587E+00  0.58437622658E+00  0.11803398889E+01  0.00000000000E+00 0.  1.
         11    1    3    3    0    0  0.96701115863E+01 -0.51172915813E+01 -0.21365828457E+01  0.11147318859E+02  0.51100000000E-03 0. -1.
        -11    1    3    3    0    0 -0.53581423684E+00 -0.21408289309E+02  0.30916209413E+02  0.37608695174E+02  0.51100000000E-03 0.  1.
         12    1    3    3    0    0 -0.98695292526E+01  0.27240521956E+02 -0.29364002793E+02  0.41251646078E+02  0.00000000000E+00 0. -1.
</event>
<event>
 7    1  0.2578619E-015  0.9000741E+02  0.7816164E-02  0.1186340E+00
        -11   -1    0    0    0    0  0.00000000000E+00  0.00000000000E+00  0.45593999997E+02  0.45594000000E+02  0.51100000000E-03 0.  1.
         11   -1    0    0    0    0 -0.00000000000E+00 -0.00000000000E+00 -0.45593999997E+02  0.45594000000E+02  0.51100000000E-03 0. -1.
    9900012    2    1    2    0    0  0.10949204162E+00 -0.93438846425E+00 -0.71325175542E+00  0.90007407617E+02  0.89999664596E+02 0.  0.
        -12    1    1    2    0    0 -0.10949204162E+00  0.93438846425E+00  0.71325175542E+00  0.11805923835E+01  0.00000000000E+00 0.  1.
         11    1    3    3    0    0 -0.57795900699E+01  0.65908465405E+01 -0.16788438923E+02  0.18939234441E+02  0.51100000000E-03 0. -1.
        -11    1    3    3    0    0 -0.20815695113E+02  0.15793874667E+02  0.23157761522E+02  0.34914489242E+02  0.51100000000E-03 0.  1.
        -12    1    3    3    0    0  0.26704777225E+02 -0.23319109671E+02 -0.70825743546E+01  0.36153683934E+02  0.00000000000E+00 0.  1.
</event>
<event>
 7    1  0.2578619E-015  0.9000777E+02  0.7816164E-02  0.1186339E+00
        -11   -1    0    0    0    0  0.00000000000E+00  0.00000000000E+00  0.45593999997E+02  0.45594000000E+02  0.51100000000E-03 0.  1.
         11   -1    0    0    0    0 -0.00000000000E+00 -0.00000000000E+00 -0.45593999997E+02  0.45594000000E+02  0.51100000000E-03 0. -1.
    9900012    2    1    2    0    0 -0.11451336014E+01 -0.35077117770E-01 -0.28352545700E+00  0.90007767797E+02  0.90000029532E+02 0.  0.
        -12    1    1    2    0    0  0.11451336014E+01  0.35077117770E-01  0.28352545700E+00  0.11802322034E+01  0.00000000000E+00 0.  1.
         11    1    3    3    0    0  0.30393732197E+02 -0.23448246566E+02 -0.69397613553E+00  0.38393760262E+02  0.51100000000E-03 0. -1.
        -11    1    3    3    0    0 -0.19947942979E+01 -0.49562107463E+01  0.83299240217E+01  0.98960024112E+01  0.51100000000E-03 0.  1.
        -12    1    3    3    0    0 -0.29544071501E+02  0.28369380195E+02 -0.79194733432E+01  0.41718005124E+02  0.00000000000E+00 0.  1.
</event>
<event>
 7    1  0.2578619E-015  0.9000768E+02  0.7816164E-02  0.1186339E+00
        -11   -1    0    0    0    0  0.00000000000E+00  0.00000000000E+00  0.45593999997E+02  0.45594000000E+02  0.51100000000E-03 0.  1.
         11   -1    0    0    0    0 -0.00000000000E+00 -0.00000000000E+00 -0.45593999997E+02  0.45594000000E+02  0.51100000000E-03 0. -1.
    9900012    2    1    2    0    0  0.11579111778E+00 -0.46767602308E+00 -0.10775092206E+01  0.90007680312E+02  0.89999940892E+02 0.  0.
        -12    1    1    2    0    0 -0.11579111778E+00  0.46767602308E+00  0.10775092206E+01  0.11803196880E+01  0.00000000000E+00 0.  1.
         11    1    3    3    0    0  0.82020300516E+01 -0.62283228077E+01  0.40909668597E+01  0.11081575343E+02  0.51100000000E-03 0. -1.
        -11    1    3    3    0    0  0.32282779381E+02  0.16527552832E+02 -0.76750367963E+01  0.37070797634E+02  0.51100000000E-03 0.  1.
         12    1    3    3    0    0 -0.40369018314E+02 -0.10766906047E+02  0.25065607160E+01  0.41855307335E+02  0.00000000000E+00 0. -1.
</event>
<event>
 7    1  0.2578619E-015  0.9000773E+02  0.7816164E-02  0.1186339E+00
        -11   -1    0    0    0    0  0.00000000000E+00  0.00000000000E+00  0.45593999997E+02  0.45594000000E+02  0.51100000000E-03 0.  1.
         11   -1    0    0    0    0 -0.00000000000E+00 -0.00000000000E+00 -0.45593999997E+02  0.45594000000E+02  0.51100000000E-03 0. -1.
    9900012    2    1    2    0    0  0.39898563975E+00 -0.32260194841E+00  0.10629052051E+01  0.90007733491E+02  0.89999994773E+02 0.  0.
        -12    1    1    2    0    0 -0.39898563975E+00  0.32260194841E+00 -0.10629052051E+01  0.11802665092E+01  0.00000000000E+00 0.  1.
         11    1    3    3    0    0 -0.33159069652E+02 -0.79154358408E+01 -0.32834408923E+01  0.34248489150E+02  0.51100000000E-03 0. -1.
        -11    1    3    3    0    0 -0.65679569340E+01 -0.13432281981E+01  0.12187022075E+02  0.13909199388E+02  0.51100000000E-03 0.  1.
        -12    1    3    3    0    0  0.40126012225E+02  0.89360620905E+01 -0.78406759779E+01  0.41850044953E+02  0.00000000000E+00 0.  1.
</event>
<event>
 7    1  0.2578619E-015  0.9000756E+02  0.7816164E-02  0.1186339E+00
        -11   -1    0    0    0    0  0.00000000000E+00  0.00000000000E+00  0.45593999997E+02  0.45594000000E+02  0.51100000000E-03 0.  1.
         11   -1    0    0    0    0 -0.00000000000E+00 -0.00000000000E+00 -0.45593999997E+02  0.45594000000E+02  0.51100000000E-03 0. -1.
    9900012    2    1    2    0    0 -0.30213545267E+00 -0.41059805434E+00 -0.10646862222E+01  0.90007562223E+02  0.89999821244E+02 0.  0.
        -12    1    1    2    0    0  0.30213545267E+00  0.41059805434E+00  0.10646862222E+01  0.11804377772E+01  0.00000000000E+00 0.  1.
         11    1    3    3    0    0 -0.32174707385E+01 -0.91094460338E+01  0.17200777340E+01  0.98128891091E+01  0.51100000000E-03 0. -1.
        -11    1    3    3    0    0 -0.23627000940E+01 -0.33762982780E+02  0.10422766632E+02  0.35414056848E+02  0.51100000000E-03 0.  1.
         12    1    3    3    0    0  0.52780353798E+01  0.42461830759E+02 -0.13207530589E+02  0.44780616266E+02  0.00000000000E+00 0. -1.
</event>
<event>
 7    1  0.2578619E-015  0.9000790E+02  0.7816164E-02  0.1186339E+00
        -11   -1    0    0    0    0  0.00000000000E+00  0.00000000000E+00  0.45593999997E+02  0.45594000000E+02  0.51100000000E-03 0.  1.
         11   -1    0    0    0    0 -0.00000000000E+00 -0.00000000000E+00 -0.45593999997E+02  0.45594000000E+02  0.51100000000E-03 0. -1.
    9900012    2    1    2    0    0 -0.81002447781E+00 -0.17042149982E+00 -0.84110387686E+00  0.90007898787E+02  0.90000162250E+02 0.  0.
        -12    1    1    2    0    0  0.81002447781E+00  0.17042149982E+00  0.84110387686E+00  0.11801012134E+01  0.00000000000E+00 0.  1.
         11    1    3    3    0    0 -0.12165642740E+02 -0.95405760733E+00  0.11323968037E+02  0.16647682768E+02  0.51100000000E-03 0. -1.
        -11    1    3    3    0    0 -0.19596354387E+02  0.10372507353E+02  0.18402501560E+02  0.28814199242E+02  0.51100000000E-03 0.  1.
         12    1    3    3    0    0  0.30951972649E+02 -0.95888712458E+01 -0.30567573473E+02  0.44546016776E+02  0.00000000000E+00 0. -1.
</event>
<event>
 7    1  0.2578619E-015  0.9000771E+02  0.7816164E-02  0.1186339E+00
        -11   -1    0    0    0    0  0.00000000000E+00  0.00000000000E+00  0.45593999997E+02  0.45594000000E+02  0.51100000000E-03 0.  1.
         11   -1    0    0    0    0 -0.00000000000E+00 -0.00000000000E+00 -0.45593999997E+02  0.45594000000E+02  0.51100000000E-03 0. -1.
    9900012    2    1    2    0    0 -0.74071391245E+00  0.20057924268E+00 -0.89676874235E+00  0.90007710497E+02  0.89999971476E+02 0.  0.
        -12    1    1    2    0    0  0.74071391245E+00 -0.20057924268E+00  0.89676874235E+00  0.11802895026E+01  0.00000000000E+00 0.  1.
         11    1    3    3    0    0 -0.58318294983E+01  0.31317789230E+02 -0.25671000235E+02  0.40912277019E+02  0.51100000000E-03 0. -1.
        -11    1    3    3    0    0 -0.87644451886E+01 -0.14703415311E+01  0.16852926940E+01  0.90453090278E+01  0.51100000000E-03 0.  1.
        -12    1    3    3    0    0  0.13855560774E+02 -0.29646868456E+02  0.23088938799E+02  0.40050124450E+02  0.00000000000E+00 0.  1.
</event>
<event>
 7    1  0.2578619E-015  0.9000773E+02  0.7816164E-02  0.1186339E+00
        -11   -1    0    0    0    0  0.00000000000E+00  0.00000000000E+00  0.45593999997E+02  0.45594000000E+02  0.51100000000E-03 0. -1.
         11   -1    0    0    0    0 -0.00000000000E+00 -0.00000000000E+00 -0.45593999997E+02  0.45594000000E+02  0.51100000000E-03 0.  1.
    9900012    2    1    2    0    0 -0.64660268711E+00 -0.98330904275E+00 -0.89752614920E-01  0.90007725777E+02  0.89999986958E+02 0.  0.
        -12    1    1    2    0    0  0.64660268711E+00  0.98330904275E+00  0.89752614920E-01  0.11802742226E+01  0.00000000000E+00 0.  1.
         11    1    3    3    0    0 -0.62117449260E+01 -0.82036421600E+01 -0.30260875653E+01  0.10725797216E+02  0.51100000000E-03 0. -1.
        -11    1    3    3    0    0 -0.17669224442E+02  0.37237597324E+02  0.97509530540E-01  0.41217103916E+02  0.51100000000E-03 0.  1.
         12    1    3    3    0    0  0.23234366681E+02 -0.30017264206E+02  0.28388254198E+01  0.38064824645E+02  0.00000000000E+00 0. -1.
</event>
<event>
 7    1  0.2578619E-015  0.9000775E+02  0.7816164E-02  0.1186339E+00
        -11   -1    0    0    0    0  0.00000000000E+00  0.00000000000E+00  0.45593999997E+02  0.45594000000E+02  0.51100000000E-03 0.  1.
         11   -1    0    0    0    0 -0.00000000000E+00 -0.00000000000E+00 -0.45593999997E+02  0.45594000000E+02  0.51100000000E-03 0. -1.
    9900012    2    1    2    0    0  0.20000710751E+00 -0.87327819959E+00 -0.76836366208E+00  0.90007745632E+02  0.90000007074E+02 0.  0.
        -12    1    1    2    0    0 -0.20000710751E+00  0.87327819959E+00  0.76836366208E+00  0.11802543684E+01  0.00000000000E+00 0.  1.
         11    1    3    3    0    0 -0.17029131659E+01  0.46554597635E+01 -0.26040609317E+02  0.26508235564E+02  0.51100000000E-03 0. -1.
        -11    1    3    3    0    0  0.10879379897E+02 -0.86414658799E+01 -0.15975349504E+02  0.21171859426E+02  0.51100000000E-03 0.  1.
        -12    1    3    3    0    0 -0.89764596232E+01  0.31127279169E+01  0.41247595159E+02  0.42327650642E+02  0.00000000000E+00 0.  1.
</event>
<event>
 7    1  0.2578619E-015  0.9000800E+02  0.7816164E-02  0.1186339E+00
        -11   -1    0    0    0    0  0.00000000000E+00  0.00000000000E+00  0.45593999997E+02  0.45594000000E+02  0.51100000000E-03 0.  1.
         11   -1    0    0    0    0 -0.00000000000E+00 -0.00000000000E+00 -0.45593999997E+02  0.45594000000E+02  0.51100000000E-03 0. -1.
    9900012    2    1    2    0    0  0.11509540849E+01  0.23264180433E+00  0.11649515299E+00  0.90008004816E+02  0.90000269679E+02 0.  0.
        -12    1    1    2    0    0 -0.11509540849E+01 -0.23264180433E+00 -0.11649515299E+00  0.11799951845E+01  0.00000000000E+00 0.  1.
         11    1    3    3    0    0 -0.70012210204E-02 -0.22646731648E+01  0.15155148691E+02  0.15323424084E+02  0.51100000000E-03 0. -1.
        -11    1    3    3    0    0  0.20832097921E+02  0.31404180892E+02 -0.12162975642E+02  0.39599707802E+02  0.51100000000E-03 0.  1.
         12    1    3    3    0    0 -0.19674142615E+02 -0.28906865923E+02 -0.28756778958E+01  0.35084872929E+02  0.00000000000E+00 0. -1.
</event>
<event>
 7    1  0.2578619E-015  0.9000705E+02  0.7816164E-02  0.1186340E+00
        -11   -1    0    0    0    0  0.00000000000E+00  0.00000000000E+00  0.45593999997E+02  0.45594000000E+02  0.51100000000E-03 0. -1.
         11   -1    0    0    0    0 -0.00000000000E+00 -0.00000000000E+00 -0.45593999997E+02  0.45594000000E+02  0.51100000000E-03 0.  1.
    9900012    2    1    2    0    0  0.94656185464E+00  0.70398667765E+00  0.55295064440E-01  0.90007053714E+02  0.89999306020E+02 0.  0.
        -12    1    1    2    0    0 -0.94656185464E+00 -0.70398667765E+00 -0.55295064440E-01  0.11809462863E+01  0.00000000000E+00 0.  1.
         11    1    3    3    0    0 -0.13992629325E+02 -0.16431412431E+02 -0.42051480338E+01  0.21987911682E+02  0.51100000000E-03 0. -1.
        -11    1    3    3    0    0  0.44864638474E+01 -0.21696540733E+02  0.14554272635E+02  0.26508396591E+02  0.51100000000E-03 0.  1.
         12    1    3    3    0    0  0.10452727332E+02  0.38831939841E+02 -0.10293829537E+02  0.41510745441E+02  0.00000000000E+00 0. -1.
</event>
<event>
 7    1  0.2578619E-015  0.9000773E+02  0.7816164E-02  0.1186339E+00
        -11   -1    0    0    0    0  0.00000000000E+00  0.00000000000E+00  0.45593999997E+02  0.45594000000E+02  0.51100000000E-03 0.  1.
         11   -1    0    0    0    0 -0.00000000000E+00 -0.00000000000E+00 -0.45593999997E+02  0.45594000000E+02  0.51100000000E-03 0. -1.
    9900012    2    1    2    0    0  0.12386203106E-01 -0.11533844528E+01  0.25015899798E+00  0.90007733658E+02  0.89999994942E+02 0.  0.
        -12    1    1    2    0    0 -0.12386203106E-01  0.11533844528E+01 -0.25015899798E+00  0.11802663421E+01  0.00000000000E+00 0.  1.
         11    1    3    3    0    0 -0.20138339779E+02 -0.23912653276E+02  0.15828634255E+02  0.35041594975E+02  0.51100000000E-03 0. -1.
        -11    1    3    3    0    0 -0.71822029363E+01 -0.59854205104E+01  0.46484614333E+01  0.10441144174E+02  0.51100000000E-03 0.  1.
        -12    1    3    3    0    0  0.27332928919E+02  0.28744689333E+02 -0.20226936691E+02  0.44524994509E+02  0.00000000000E+00 0.  1.
</event>
<event>
 7    1  0.2578619E-015  0.9000772E+02  0.7816164E-02  0.1186339E+00
        -11   -1    0    0    0    0  0.00000000000E+00  0.00000000000E+00  0.45593999997E+02  0.45594000000E+02  0.51100000000E-03 0.  1.
         11   -1    0    0    0    0 -0.00000000000E+00 -0.00000000000E+00 -0.45593999997E+02  0.45594000000E+02  0.51100000000E-03 0. -1.
    9900012    2    1    2    0    0 -0.46117470636E+00 -0.87795661924E+00 -0.63998041020E+00  0.90007718313E+02  0.89999979395E+02 0.  0.
        -12    1    1    2    0    0  0.46117470636E+00  0.87795661924E+00  0.63998041020E+00  0.11802816869E+01  0.00000000000E+00 0.  1.
         11    1    3    3    0    0  0.48615475686E+01  0.79208953322E+01  0.20572936980E+02  0.22574786020E+02  0.51100000000E-03 0. -1.
        -11    1    3    3    0    0  0.21346201672E+02  0.20581047094E+01  0.11103745938E+02  0.24149312515E+02  0.51100000000E-03 0.  1.
         12    1    3    3    0    0 -0.26668923947E+02 -0.10856956661E+02 -0.32316663328E+02  0.43283619778E+02  0.00000000000E+00 0. -1.
</event>
<event>
 7    1  0.2578619E-015  0.9000805E+02  0.7816164E-02  0.1186338E+00
        -11   -1    0    0    0    0  0.00000000000E+00  0.00000000000E+00  0.45593999997E+02  0.45594000000E+02  0.51100000000E-03 0.  1.
         11   -1    0    0    0    0 -0.00000000000E+00 -0.00000000000E+00 -0.45593999997E+02  0.45594000000E+02  0.51100000000E-03 0. -1.
    9900012    2    1    2    0    0 -0.56348611403E+00 -0.25669874953E+00  0.10044272947E+01  0.90008048713E+02  0.90000314156E+02 0.  0.
        -12    1    1    2    0    0  0.56348611403E+00  0.25669874953E+00 -0.10044272947E+01  0.11799512867E+01  0.00000000000E+00 0.  1.
         11    1    3    3    0    0 -0.66392247366E+00  0.86642062006E+01 -0.23186318142E-01  0.86896375071E+01  0.51100000000E-03 0. -1.
        -11    1    3    3    0    0 -0.22671580442E+02  0.22005821906E+02  0.21090536940E+02  0.37987728363E+02  0.51100000000E-03 0.  1.
         12    1    3    3    0    0  0.22772016802E+02 -0.30926726856E+02 -0.20062923327E+02  0.43330682843E+02  0.00000000000E+00 0. -1.
</event>
<event>
 7    1  0.2578619E-015  0.9000777E+02  0.7816164E-02  0.1186339E+00
        -11   -1    0    0    0    0  0.00000000000E+00  0.00000000000E+00  0.45593999997E+02  0.45594000000E+02  0.51100000000E-03 0.  1.
         11   -1    0    0    0    0 -0.00000000000E+00 -0.00000000000E+00 -0.45593999997E+02  0.45594000000E+02  0.51100000000E-03 0. -1.
    9900012    2    1    2    0    0  0.44755103490E-01 -0.84406832204E-01 -0.11763591427E+01  0.90007767665E+02  0.90000029398E+02 0.  0.
        -12    1    1    2    0    0 -0.44755103490E-01  0.84406832204E-01  0.11763591427E+01  0.11802323353E+01  0.00000000000E+00 0.  1.
         11    1    3    3    0    0  0.73587908008E+01 -0.24727888819E+01  0.63329621242E+01  0.10018627472E+02  0.51100000000E-03 0. -1.
        -11    1    3    3    0    0 -0.68248556582E+01  0.29157228493E+02  0.24190791820E+02  0.38495675566E+02  0.51100000000E-03 0.  1.
         12    1    3    3    0    0 -0.48918003910E+00 -0.26768846443E+02 -0.31700113086E+02  0.41493464626E+02  0.00000000000E+00 0. -1.
</event>
<event>
 7    1  0.2578619E-015  0.9000798E+02  0.7816164E-02  0.1186339E+00
        -11   -1    0    0    0    0  0.00000000000E+00  0.00000000000E+00  0.45593999997E+02  0.45594000000E+02  0.51100000000E-03 0.  1.
         11   -1    0    0    0    0 -0.00000000000E+00 -0.00000000000E+00 -0.45593999997E+02  0.45594000000E+02  0.51100000000E-03 0. -1.
    9900012    2    1    2    0    0  0.91776889179E+00 -0.19694343699E+00 -0.71509582210E+00  0.90007979453E+02  0.90000243982E+02 0.  0.
        -12    1    1    2    0    0 -0.91776889179E+00  0.19694343699E+00  0.71509582210E+00  0.11800205468E+01  0.00000000000E+00 0.  1.
         11    1    3    3    0    0  0.88026427542E+01  0.15278224586E+01 -0.35761901155E+01  0.96234036041E+01  0.51100000000E-03 0. -1.
        -11    1    3    3    0    0  0.33925042699E+02 -0.63473976552E+01  0.13393421420E+02  0.37021368380E+02  0.51100000000E-03 0.  1.
         12    1    3    3    0    0 -0.41809916562E+02  0.46226317596E+01 -0.10532327127E+02  0.43363207469E+02  0.00000000000E+00 0. -1.
</event>
<event>
 7    1  0.2578619E-015  0.9000772E+02  0.7816164E-02  0.1186339E+00
        -11   -1    0    0    0    0  0.00000000000E+00  0.00000000000E+00  0.45593999997E+02  0.45594000000E+02  0.51100000000E-03 0.  1.
         11   -1    0    0    0    0 -0.00000000000E+00 -0.00000000000E+00 -0.45593999997E+02  0.45594000000E+02  0.51100000000E-03 0. -1.
    9900012    2    1    2    0    0  0.35253791659E+00  0.10842455778E+01 -0.30526768040E+00  0.90007720452E+02  0.89999981562E+02 0.  0.
        -12    1    1    2    0    0 -0.35253791659E+00 -0.10842455778E+01  0.30526768040E+00  0.11802795484E+01  0.00000000000E+00 0.  1.
         11    1    3    3    0    0  0.10958464758E+02  0.30715456679E+01 -0.10119385274E+01  0.11425688710E+02  0.51100000000E-03 0. -1.
        -11    1    3    3    0    0  0.27267902415E+02 -0.11892169856E+02 -0.18443209631E+02  0.35001631216E+02  0.51100000000E-03 0.  1.
         12    1    3    3    0    0 -0.37873829257E+02  0.99048697656E+01  0.19149880478E+02  0.43580400526E+02  0.00000000000E+00 0. -1.
</event>
<event>
 7    1  0.2578619E-015  0.9000779E+02  0.7816164E-02  0.1186339E+00
        -11   -1    0    0    0    0  0.00000000000E+00  0.00000000000E+00  0.45593999997E+02  0.45594000000E+02  0.51100000000E-03 0. -1.
         11   -1    0    0    0    0 -0.00000000000E+00 -0.00000000000E+00 -0.45593999997E+02  0.45594000000E+02  0.51100000000E-03 0.  1.
    9900012    2    1    2    0    0  0.31801575050E+00  0.11344825243E+01  0.68625821791E-01  0.90007790646E+02  0.90000052683E+02 0.  0.
        -12    1    1    2    0    0 -0.31801575050E+00 -0.11344825243E+01 -0.68625821791E-01  0.11802093539E+01  0.00000000000E+00 0.  1.
         11    1    3    3    0    0  0.14492575401E+02  0.21169485335E+02  0.27691410276E+02  0.37749119915E+02  0.51100000000E-03 0. -1.
        -11    1    3    3    0    0  0.35938280477E+01 -0.35864188866E+01  0.78266733589E+01  0.93292452317E+01  0.51100000000E-03 0.  1.
        -12    1    3    3    0    0 -0.17768387698E+02 -0.16448583924E+02 -0.35449457813E+02  0.42929425499E+02  0.00000000000E+00 0.  1.
</event>
<event>
 7    1  0.2578619E-015  0.9000762E+02  0.7816164E-02  0.1186339E+00
        -11   -1    0    0    0    0  0.00000000000E+00  0.00000000000E+00  0.45593999997E+02  0.45594000000E+02  0.51100000000E-03 0. -1.
         11   -1    0    0    0    0 -0.00000000000E+00 -0.00000000000E+00 -0.45593999997E+02  0.45594000000E+02  0.51100000000E-03 0.  1.
    9900012    2    1    2    0    0  0.25220902264E+00 -0.10342716834E+01 -0.50986823025E+00  0.90007621705E+02  0.89999881512E+02 0.  0.
        -12    1    1    2    0    0 -0.25220902264E+00  0.10342716834E+01  0.50986823025E+00  0.11803782946E+01  0.00000000000E+00 0.  1.
         11    1    3    3    0    0  0.25129385585E+02  0.20709470593E+02 -0.21429296109E+02  0.38981828127E+02  0.51100000000E-03 0. -1.
        -11    1    3    3    0    0 -0.25927699575E+01  0.83489112975E+01  0.15899208391E+01  0.88856414761E+01  0.51100000000E-03 0.  1.
        -12    1    3    3    0    0 -0.22284406604E+02 -0.30092653574E+02  0.19329507040E+02  0.42140152103E+02  0.00000000000E+00 0.  1.
</event>
<event>
 7    1  0.2578619E-015  0.9000751E+02  0.7816164E-02  0.1186340E+00
        -11   -1    0    0    0    0  0.00000000000E+00  0.00000000000E+00  0.45593999997E+02  0.45594000000E+02  0.51100000000E-03 0.  1.
         11   -1    0    0    0    0 -0.00000000000E+00 -0.00000000000E+00 -0.45593999997E+02  0.45594000000E+02  0.51100000000E-03 0. -1.
    9900012    2    1    2    0    0  0.10473158903E+01 -0.43893258663E+00 -0.32253779200E+00  0.90007507299E+02  0.89999765595E+02 0.  0.
        -12    1    1    2    0    0 -0.10473158903E+01  0.43893258663E+00  0.32253779200E+00  0.11804927010E+01  0.00000000000E+00 0.  1.
         11    1    3    3    0    0  0.13711112605E+02 -0.32721314396E+02  0.42445016498E+01  0.35730866477E+02  0.51100000000E-03 0. -1.
        -11    1    3    3    0    0  0.12501407154E+02 -0.62169965807E+00  0.60105171656E+00  0.12531279053E+02  0.51100000000E-03 0.  1.
        -12    1    3    3    0    0 -0.25165203869E+02  0.32904081467E+02 -0.51680911584E+01  0.41745361769E+02  0.00000000000E+00 0.  1.
</event>
<event>
 7    1  0.2578619E-015  0.9000773E+02  0.7816164E-02  0.1186339E+00
        -11   -1    0    0    0    0  0.00000000000E+00  0.00000000000E+00  0.45593999997E+02  0.45594000000E+02  0.51100000000E-03 0. -1.
         11   -1    0    0    0    0 -0.00000000000E+00 -0.00000000000E+00 -0.45593999997E+02  0.45594000000E+02  0.51100000000E-03 0.  1.
    9900012    2    1    2    0    0 -0.10038970368E+01  0.41003455280E+00 -0.46595108465E+00  0.90007725452E+02  0.89999986628E+02 0.  0.
        -12    1    1    2    0    0  0.10038970368E+01 -0.41003455280E+00  0.46595108465E+00  0.11802745478E+01  0.00000000000E+00 0.  1.
         11    1    3    3    0    0  0.33154375208E+02 -0.34337763506E+01  0.20302451115E+02  0.39028104450E+02  0.51100000000E-03 0. -1.
        -11    1    3    3    0    0  0.33470695323E+01  0.80401391494E+01 -0.52876798633E+01  0.10188536234E+02  0.51100000000E-03 0.  1.
        -12    1    3    3    0    0 -0.37505341777E+02 -0.41963282459E+01 -0.15480722336E+02  0.40791084768E+02  0.00000000000E+00 0.  1.
</event>
<event>
 7    1  0.2578619E-015  0.9000771E+02  0.7816164E-02  0.1186339E+00
        -11   -1    0    0    0    0  0.00000000000E+00  0.00000000000E+00  0.45593999997E+02  0.45594000000E+02  0.51100000000E-03 0. -1.
         11   -1    0    0    0    0 -0.00000000000E+00 -0.00000000000E+00 -0.45593999997E+02  0.45594000000E+02  0.51100000000E-03 0.  1.
    9900012    2    1    2    0    0  0.62787174804E+00 -0.99807236807E+00  0.52010877133E-01  0.90007713376E+02  0.89999974392E+02 0.  0.
        -12    1    1    2    0    0 -0.62787174804E+00  0.99807236807E+00 -0.52010877133E-01  0.11802866242E+01  0.00000000000E+00 0.  1.
         11    1    3    3    0    0  0.33193923192E+01  0.33660215340E+01  0.79939546270E+01  0.92871834900E+01  0.51100000000E-03 0. -1.
        -11    1    3    3    0    0  0.36709717678E+02 -0.13383892328E+02 -0.97084787466E+01  0.40261476695E+02  0.51100000000E-03 0.  1.
         12    1    3    3    0    0 -0.39401238249E+02  0.90197984264E+01  0.17665349967E+01  0.40459053191E+02  0.00000000000E+00 0. -1.
</event>
<event>
 7    1  0.2578619E-015  0.9000769E+02  0.7816164E-02  0.1186339E+00
        -11   -1    0    0    0    0  0.00000000000E+00  0.00000000000E+00  0.45593999997E+02  0.45594000000E+02  0.51100000000E-03 0.  1.
         11   -1    0    0    0    0 -0.00000000000E+00 -0.00000000000E+00 -0.45593999997E+02  0.45594000000E+02  0.51100000000E-03 0. -1.
    9900012    2    1    2    0    0  0.66261726202E+00  0.39394881857E+00 -0.89380296960E+00  0.90007686035E+02  0.89999946691E+02 0.  0.
        -12    1    1    2    0    0 -0.66261726202E+00 -0.39394881857E+00  0.89380296960E+00  0.11803139650E+01  0.00000000000E+00 0.  1.
         11    1    3    3    0    0 -0.36009806276E+01 -0.28460631611E+02  0.18872944675E+01  0.28749547715E+02  0.51100000000E-03 0. -1.
        -11    1    3    3    0    0 -0.60691983133E-01 -0.61186538224E+01  0.18911674539E+02  0.19876947509E+02  0.51100000000E-03 0.  1.
         12    1    3    3    0    0  0.43242898727E+01  0.34973234252E+02 -0.21692771977E+02  0.41381190811E+02  0.00000000000E+00 0. -1.
</event>
<event>
 7    1  0.2578619E-015  0.9000767E+02  0.7816164E-02  0.1186339E+00
        -11   -1    0    0    0    0  0.00000000000E+00  0.00000000000E+00  0.45593999997E+02  0.45594000000E+02  0.51100000000E-03 0.  1.
         11   -1    0    0    0    0 -0.00000000000E+00 -0.00000000000E+00 -0.45593999997E+02  0.45594000000E+02  0.51100000000E-03 0. -1.
    9900012    2    1    2    0    0  0.76642519130E-01 -0.37311885760E+00 -0.11171794611E+01  0.90007668815E+02  0.89999929243E+02 0.  0.
        -12    1    1    2    0    0 -0.76642519130E-01  0.37311885760E+00  0.11171794611E+01  0.11803311849E+01  0.00000000000E+00 0.  1.
         11    1    3    3    0    0  0.41872939182E+01  0.21882862153E+02 -0.32391051562E+02  0.39313780127E+02  0.51100000000E-03 0. -1.
        -11    1    3    3    0    0  0.75819351214E+01  0.37849399792E+01  0.16894410464E+00  0.84758511786E+01  0.51100000000E-03 0.  1.
        -12    1    3    3    0    0 -0.11692586520E+02 -0.26040920990E+02  0.31104927996E+02  0.42218037509E+02  0.00000000000E+00 0.  1.
</event>
<event>
 7    1  0.2578619E-015  0.9000775E+02  0.7816164E-02  0.1186339E+00
        -11   -1    0    0    0    0  0.00000000000E+00  0.00000000000E+00  0.45593999997E+02  0.45594000000E+02  0.51100000000E-03 0.  1.
         11   -1    0    0    0    0 -0.00000000000E+00 -0.00000000000E+00 -0.45593999997E+02  0.45594000000E+02  0.51100000000E-03 0. -1.
    9900012    2    1    2    0    0 -0.99738918729E+00 -0.57064494014E+00 -0.26940107754E+00  0.90007746731E+02  0.90000008188E+02 0.  0.
        -12    1    1    2    0    0  0.99738918729E+00  0.57064494014E+00  0.26940107754E+00  0.11802532691E+01  0.00000000000E+00 0.  1.
         11    1    3    3    0    0  0.17297289934E+01  0.81065638496E+01  0.63711295775E+01  0.10454646440E+02  0.51100000000E-03 0. -1.
        -11    1    3    3    0    0  0.18971890736E+02  0.15060847622E+02  0.24736327016E+02  0.34621491067E+02  0.51100000000E-03 0.  1.
         12    1    3    3    0    0 -0.21699008917E+02 -0.23738056411E+02 -0.31376857671E+02  0.44931609224E+02  0.00000000000E+00 0. -1.
</event>
<event>
 7    1  0.2578619E-015  0.9000768E+02  0.7816164E-02  0.1186339E+00
        -11   -1    0    0    0    0  0.00000000000E+00  0.00000000000E+00  0.45593999997E+02  0.45594000000E+02  0.51100000000E-03 0. -1.
         11   -1    0    0    0    0 -0.00000000000E+00 -0.00000000000E+00 -0.45593999997E+02  0.45594000000E+02  0.51100000000E-03 0.  1.
    9900012    2    1    2    0    0 -0.74848668790E+00 -0.88701343822E+00 -0.21480161994E+00  0.90007675935E+02  0.89999936458E+02 0.  0.
        -12    1    1    2    0    0  0.74848668790E+00  0.88701343822E+00  0.21480161994E+00  0.11803240646E+01  0.00000000000E+00 0.  1.
         11    1    3    3    0    0  0.55743655552E+01 -0.85914143762E+01 -0.42179802054E+01  0.11075978945E+02  0.51100000000E-03 0. -1.
        -11    1    3    3    0    0  0.35952881031E+01 -0.32738586735E+02 -0.10917704452E+02  0.34697801497E+02  0.51100000000E-03 0.  1.
         12    1    3    3    0    0 -0.99181403462E+01  0.40442987673E+02  0.14920883037E+02  0.44233895493E+02  0.00000000000E+00 0. -1.
</event>
<event>
 7    1  0.2578619E-015  0.9000783E+02  0.7816164E-02  0.1186339E+00
        -11   -1    0    0    0    0  0.00000000000E+00  0.00000000000E+00  0.45593999997E+02  0.45594000000E+02  0.51100000000E-03 0.  1.
         11   -1    0    0    0    0 -0.00000000000E+00 -0.00000000000E+00 -0.45593999997E+02  0.45594000000E+02  0.51100000000E-03 0. -1.
    9900012    2    1    2    0    0 -0.55761433951E+00 -0.79704192556E+00 -0.66828374637E+00  0.90007825120E+02  0.90000087611E+02 0.  0.
        -12    1    1    2    0    0  0.55761433951E+00  0.79704192556E+00  0.66828374637E+00  0.11801748804E+01  0.00000000000E+00 0.  1.
         11    1    3    3    0    0  0.34851427379E+02 -0.18555181360E+02 -0.14550776702E+02  0.42078995337E+02  0.51100000000E-03 0. -1.
        -11    1    3    3    0    0 -0.59796084802E+01  0.67814836683E+01 -0.59114653328E+01  0.10802298874E+02  0.51100000000E-03 0.  1.
        -12    1    3    3    0    0 -0.29429433239E+02  0.10976655766E+02  0.19793958289E+02  0.37126530908E+02  0.00000000000E+00 0.  1.
</event>
<event>
 7    1  0.2578619E-015  0.9000766E+02  0.7816164E-02  0.1186339E+00
        -11   -1    0    0    0    0  0.00000000000E+00  0.00000000000E+00  0.45593999997E+02  0.45594000000E+02  0.51100000000E-03 0.  1.
         11   -1    0    0    0    0 -0.00000000000E+00 -0.00000000000E+00 -0.45593999997E+02  0.45594000000E+02  0.51100000000E-03 0. -1.
    9900012    2    1    2    0    0  0.13955709172E+00  0.76823060705E+00 -0.88517967740E+00  0.90007662121E+02  0.89999922461E+02 0.  0.
        -12    1    1    2    0    0 -0.13955709172E+00 -0.76823060705E+00  0.88517967740E+00  0.11803378791E+01  0.00000000000E+00 0.  1.
         11    1    3    3    0    0  0.14652556180E+02 -0.33803788166E+02 -0.17128033986E+02  0.40629583378E+02  0.51100000000E-03 0. -1.
        -11    1    3    3    0    0 -0.39805481029E+00 -0.45416411663E+01 -0.42611174315E+00  0.45789216629E+01  0.51100000000E-03 0.  1.
        -12    1    3    3    0    0 -0.14114944278E+02  0.39113659940E+02  0.16668966051E+02  0.44799157080E+02  0.00000000000E+00 0.  1.
</event>
<event>
 7    1  0.2578619E-015  0.9000769E+02  0.7816164E-02  0.1186339E+00
        -11   -1    0    0    0    0  0.00000000000E+00  0.00000000000E+00  0.45593999997E+02  0.45594000000E+02  0.51100000000E-03 0.  1.
         11   -1    0    0    0    0 -0.00000000000E+00 -0.00000000000E+00 -0.45593999997E+02  0.45594000000E+02  0.51100000000E-03 0. -1.
    9900012    2    1    2    0    0  0.97079134943E+00 -0.54103160336E+00 -0.39746959039E+00  0.90007689399E+02  0.89999950099E+02 0.  0.
        -12    1    1    2    0    0 -0.97079134943E+00  0.54103160336E+00  0.39746959039E+00  0.11803106012E+01  0.00000000000E+00 0.  1.
         11    1    3    3    0    0  0.53376374199E+01 -0.41648621331E+02 -0.58879707443E+01  0.42400073487E+02  0.51100000000E-03 0. -1.
        -11    1    3    3    0    0  0.16359274383E+01  0.75296358772E+01  0.10612654702E+02  0.13114881437E+02  0.51100000000E-03 0.  1.
        -12    1    3    3    0    0 -0.60027735088E+01  0.33577953850E+02 -0.51221535481E+01  0.34492734474E+02  0.00000000000E+00 0.  1.
</event>
<event>
 7    1  0.2578619E-015  0.9000758E+02  0.7816164E-02  0.1186339E+00
        -11   -1    0    0    0    0  0.00000000000E+00  0.00000000000E+00  0.45593999997E+02  0.45594000000E+02  0.51100000000E-03 0.  1.
         11   -1    0    0    0    0 -0.00000000000E+00 -0.00000000000E+00 -0.45593999997E+02  0.45594000000E+02  0.51100000000E-03 0. -1.
    9900012    2    1    2    0    0  0.35133878795E+00  0.11083044146E+01 -0.20401903744E+00  0.90007575760E+02  0.89999834960E+02 0.  0.
        -12    1    1    2    0    0 -0.35133878795E+00 -0.11083044146E+01  0.20401903744E+00  0.11804242403E+01  0.00000000000E+00 0.  1.
         11    1    3    3    0    0  0.48278818715E-01  0.86178127104E+01  0.24691963236E+01  0.89647062138E+01  0.51100000000E-03 0. -1.
        -11    1    3    3    0    0 -0.27872096879E+02 -0.24954240183E+02  0.18482352660E+02  0.41727272229E+02  0.51100000000E-03 0.  1.
         12    1    3    3    0    0  0.28175156849E+02  0.17444731887E+02 -0.21155568021E+02  0.39315597317E+02  0.00000000000E+00 0. -1.
</event>
<event>
 7    1  0.2578619E-015  0.9000769E+02  0.7816164E-02  0.1186339E+00
        -11   -1    0    0    0    0  0.00000000000E+00  0.00000000000E+00  0.45593999997E+02  0.45594000000E+02  0.51100000000E-03 0.  1.
         11   -1    0    0    0    0 -0.00000000000E+00 -0.00000000000E+00 -0.45593999997E+02  0.45594000000E+02  0.51100000000E-03 0. -1.
    9900012    2    1    2    0    0 -0.88517891414E+00 -0.61954685341E+00  0.47514409927E+00  0.90007685665E+02  0.89999946316E+02 0.  0.
        -12    1    1    2    0    0  0.88517891414E+00  0.61954685341E+00 -0.47514409927E+00  0.11803143347E+01  0.00000000000E+00 0.  1.
         11    1    3    3    0    0  0.41393901986E+02 -0.19378579766E+01  0.23185210868E+01  0.41504047458E+02  0.51100000000E-03 0. -1.
        -11    1    3    3    0    0 -0.39576745638E+01  0.27158777498E+01  0.76205140173E+01  0.90061875426E+01  0.51100000000E-03 0.  1.
        -12    1    3    3    0    0 -0.38321406336E+02 -0.13975666266E+01 -0.94638910048E+01  0.39497450664E+02  0.00000000000E+00 0.  1.
</event>
<event>
 7    1  0.2578619E-015  0.9000777E+02  0.7816164E-02  0.1186339E+00
        -11   -1    0    0    0    0  0.00000000000E+00  0.00000000000E+00  0.45593999997E+02  0.45594000000E+02  0.51100000000E-03 0. -1.
         11   -1    0    0    0    0 -0.00000000000E+00 -0.00000000000E+00 -0.45593999997E+02  0.45594000000E+02  0.51100000000E-03 0.  1.
    9900012    2    1    2    0    0 -0.61215309632E+00 -0.37915598134E+00 -0.93511875565E+00  0.90007772158E+02  0.90000033951E+02 0.  0.
        -12    1    1    2    0    0  0.61215309632E+00  0.37915598134E+00  0.93511875565E+00  0.11802278419E+01  0.00000000000E+00 0.  1.
         11    1    3    3    0    0 -0.88329069553E+01 -0.38271293767E+02 -0.15374728830E+01  0.39307454700E+02  0.51100000000E-03 0. -1.
        -11    1    3    3    0    0 -0.58949882990E+01 -0.25781289076E+00  0.73937121853E+01  0.94596159897E+01  0.51100000000E-03 0.  1.
        -12    1    3    3    0    0  0.14115742158E+02  0.38149950677E+02 -0.67913580580E+01  0.41240701468E+02  0.00000000000E+00 0.  1.
</event>
<event>
 7    1  0.2578619E-015  0.9000769E+02  0.7816164E-02  0.1186339E+00
        -11   -1    0    0    0    0  0.00000000000E+00  0.00000000000E+00  0.45593999997E+02  0.45594000000E+02  0.51100000000E-03 0.  1.
         11   -1    0    0    0    0 -0.00000000000E+00 -0.00000000000E+00 -0.45593999997E+02  0.45594000000E+02  0.51100000000E-03 0. -1.
    9900012    2    1    2    0    0  0.33856865110E+00  0.96818031954E+00 -0.58405503831E+00  0.90007694044E+02  0.89999954805E+02 0.  0.
        -12    1    1    2    0    0 -0.33856865110E+00 -0.96818031954E+00  0.58405503831E+00  0.11803059563E+01  0.00000000000E+00 0.  1.
         11    1    3    3    0    0 -0.25920500894E+02 -0.29963740938E+02 -0.72823442481E+01  0.40283131403E+02  0.51100000000E-03 0. -1.
        -11    1    3    3    0    0  0.53484951100E+01 -0.50546493344E+01  0.29748598558E+01  0.79376111808E+01  0.51100000000E-03 0.  1.
        -12    1    3    3    0    0  0.20910574435E+02  0.35986570592E+02  0.37234293540E+01  0.41786951460E+02  0.00000000000E+00 0.  1.
</event>
<event>
 7    1  0.2578619E-015  0.9000773E+02  0.7816164E-02  0.1186339E+00
        -11   -1    0    0    0    0  0.00000000000E+00  0.00000000000E+00  0.45593999997E+02  0.45594000000E+02  0.51100000000E-03 0. -1.
         11   -1    0    0    0    0 -0.00000000000E+00 -0.00000000000E+00 -0.45593999997E+02  0.45594000000E+02  0.51100000000E-03 0.  1.
    9900012    2    1    2    0    0 -0.13891447127E+00 -0.55290577285E-01  0.11707624223E+01  0.90007729299E+02  0.89999990526E+02 0.  0.
        -12    1    1    2    0    0  0.13891447127E+00  0.55290577285E-01 -0.11707624223E+01  0.11802707010E+01  0.00000000000E+00 0.  1.
         11    1    3    3    0    0  0.85559230739E+00  0.35687160123E+02  0.16522765422E+02  0.39335826079E+02  0.51100000000E-03 0. -1.
        -11    1    3    3    0    0 -0.24088276196E+01  0.44751861790E+01 -0.84226019916E+01  0.98371726836E+01  0.51100000000E-03 0.  1.
        -12    1    3    3    0    0  0.14143208409E+01 -0.40217636880E+02 -0.69294010084E+01  0.40834730536E+02  0.00000000000E+00 0.  1.
</event>
<event>
 7    1  0.2578619E-015  0.9000775E+02  0.7816164E-02  0.1186339E+00
        -11   -1    0    0    0    0  0.00000000000E+00  0.00000000000E+00  0.45593999997E+02  0.45594000000E+02  0.51100000000E-03 0.  1.
         11   -1    0    0    0    0 -0.00000000000E+00 -0.00000000000E+00 -0.45593999997E+02  0.45594000000E+02  0.51100000000E-03 0. -1.
    9900012    2    1    2    0    0  0.70513473074E-01  0.42585642287E+00 -0.10984870569E+01  0.90007745935E+02  0.90000007382E+02 0.  0.
        -12    1    1    2    0    0 -0.70513473074E-01 -0.42585642287E+00  0.10984870569E+01  0.11802540645E+01  0.00000000000E+00 0.  1.
         11    1    3    3    0    0  0.81781207203E+01 -0.77520205055E+01 -0.13828232439E+00  0.11269188200E+02  0.51100000000E-03 0. -1.
        -11    1    3    3    0    0  0.61664726935E+01  0.34200404825E+02  0.22073000843E+02  0.41169290037E+02  0.51100000000E-03 0.  1.
         12    1    3    3    0    0 -0.14274079941E+02 -0.26022527896E+02 -0.23033205576E+02  0.37569267698E+02  0.00000000000E+00 0. -1.
</event>
<event>
 7    1  0.2578619E-015  0.9000770E+02  0.7816164E-02  0.1186339E+00
        -11   -1    0    0    0    0  0.00000000000E+00  0.00000000000E+00  0.45593999997E+02  0.45594000000E+02  0.51100000000E-03 0.  1.
         11   -1    0    0    0    0 -0.00000000000E+00 -0.00000000000E+00 -0.45593999997E+02  0.45594000000E+02  0.51100000000E-03 0. -1.
    9900012    2    1    2    0    0 -0.83851276237E+00 -0.43381459740E+00 -0.70838383396E+00  0.90007700710E+02  0.89999961559E+02 0.  0.
        -12    1    1    2    0    0  0.83851276237E+00  0.43381459740E+00  0.70838383396E+00  0.11802992899E+01  0.00000000000E+00 0.  1.
         11    1    3    3    0    0 -0.15362005561E+02  0.20467544749E+02 -0.32060627834E+02  0.41021890014E+02  0.51100000000E-03 0. -1.
        -11    1    3    3    0    0 -0.70728559938E+01  0.58863879437E+00  0.71680552178E+01  0.10087259460E+02  0.51100000000E-03 0.  1.
        -12    1    3    3    0    0  0.21596348793E+02 -0.21489998141E+02  0.24184188782E+02  0.38898551237E+02  0.00000000000E+00 0.  1.
</event>
<event>
 7    1  0.2578619E-015  0.9000771E+02  0.7816164E-02  0.1186339E+00
        -11   -1    0    0    0    0  0.00000000000E+00  0.00000000000E+00  0.45593999997E+02  0.45594000000E+02  0.51100000000E-03 0. -1.
         11   -1    0    0    0    0 -0.00000000000E+00 -0.00000000000E+00 -0.45593999997E+02  0.45594000000E+02  0.51100000000E-03 0.  1.
    9900012    2    1    2    0    0 -0.51796102623E+00  0.10409142850E+01  0.20320311559E+00  0.90007712883E+02  0.89999973893E+02 0.  0.
        -12    1    1    2    0    0  0.51796102623E+00 -0.10409142850E+01 -0.20320311559E+00  0.11802871175E+01  0.00000000000E+00 0.  1.
         11    1    3    3    0    0  0.85503658640E+00  0.97274121647E+01 -0.18663686031E+00  0.97667020311E+01  0.51100000000E-03 0. -1.
        -11    1    3    3    0    0 -0.11918967086E+02 -0.75247459643E+01 -0.37937940488E+02  0.40471853268E+02  0.51100000000E-03 0.  1.
         12    1    3    3    0    0  0.10545969473E+02 -0.11617519153E+01  0.38327780464E+02  0.39769157584E+02  0.00000000000E+00 0. -1.
</event>
<event>
 7    1  0.2578619E-015  0.9000776E+02  0.7816164E-02  0.1186339E+00
        -11   -1    0    0    0    0  0.00000000000E+00  0.00000000000E+00  0.45593999997E+02  0.45594000000E+02  0.51100000000E-03 0.  1.
         11   -1    0    0    0    0 -0.00000000000E+00 -0.00000000000E+00 -0.45593999997E+02  0.45594000000E+02  0.51100000000E-03 0. -1.
    9900012    2    1    2    0    0 -0.10976055732E+01 -0.31073031387E+00 -0.30279829132E+00  0.90007755056E+02  0.90000016623E+02 0.  0.
        -12    1    1    2    0    0  0.10976055732E+01  0.31073031387E+00  0.30279829132E+00  0.11802449438E+01  0.00000000000E+00 0.  1.
         11    1    3    3    0    0  0.11737476493E+02  0.35948380898E+02  0.39880905971E+01  0.38025771663E+02  0.51100000000E-03 0. -1.
        -11    1    3    3    0    0 -0.37576915424E+01  0.54977930844E+01 -0.63482217628E+01  0.92003203389E+01  0.51100000000E-03 0.  1.
        -12    1    3    3    0    0 -0.90773905242E+01 -0.41756904297E+02  0.20573328744E+01  0.42781663055E+02  0.00000000000E+00 0.  1.
</event>
<event>
 7    1  0.2578619E-015  0.9000779E+02  0.7816164E-02  0.1186339E+00
        -11   -1    0    0    0    0  0.00000000000E+00  0.00000000000E+00  0.45593999997E+02  0.45594000000E+02  0.51100000000E-03 0. -1.
         11   -1    0    0    0    0 -0.00000000000E+00 -0.00000000000E+00 -0.45593999997E+02  0.45594000000E+02  0.51100000000E-03 0.  1.
    9900012    2    1    2    0    0 -0.96599932375E+00 -0.59947831515E+00  0.31680103597E+00  0.90007791612E+02  0.90000053661E+02 0.  0.
        -12    1    1    2    0    0  0.96599932375E+00  0.59947831515E+00 -0.31680103597E+00  0.11802083885E+01  0.00000000000E+00 0.  1.
         11    1    3    3    0    0 -0.14208265458E+02  0.13083339298E+02  0.31376417529E+02  0.36844648888E+02  0.51100000000E-03 0. -1.
        -11    1    3    3    0    0 -0.23783701878E+01  0.89219993012E+01  0.27140386696E+01  0.96241738576E+01  0.51100000000E-03 0.  1.
        -12    1    3    3    0    0  0.15620636322E+02 -0.22604816914E+02 -0.33773655162E+02  0.43538968865E+02  0.00000000000E+00 0.  1.
</event>
<event>
 7    1  0.2578619E-015  0.9000771E+02  0.7816164E-02  0.1186339E+00
        -11   -1    0    0    0    0  0.00000000000E+00  0.00000000000E+00  0.45593999997E+02  0.45594000000E+02  0.51100000000E-03 0. -1.
         11   -1    0    0    0    0 -0.00000000000E+00 -0.00000000000E+00 -0.45593999997E+02  0.45594000000E+02  0.51100000000E-03 0.  1.
    9900012    2    1    2    0    0 -0.91898486747E+00  0.49123674352E+00  0.55428486571E+00  0.90007712562E+02  0.89999973567E+02 0.  0.
        -12    1    1    2    0    0  0.91898486747E+00 -0.49123674352E+00 -0.55428486571E+00  0.11802874384E+01  0.00000000000E+00 0.  1.
         11    1    3    3    0    0  0.18220038986E+02  0.87375956295E+01  0.34665922594E+02  0.40125323520E+02  0.51100000000E-03 0. -1.
        -11    1    3    3    0    0 -0.44527487140E+01 -0.62415364822E+01  0.42433067649E+01  0.87629561982E+01  0.51100000000E-03 0.  1.
        -12    1    3    3    0    0 -0.14686275139E+02 -0.20048224038E+01 -0.38354944493E+02  0.41119432844E+02  0.00000000000E+00 0.  1.
</event>
<event>
 7    1  0.2578619E-015  0.9000778E+02  0.7816164E-02  0.1186339E+00
        -11   -1    0    0    0    0  0.00000000000E+00  0.00000000000E+00  0.45593999997E+02  0.45594000000E+02  0.51100000000E-03 0.  1.
         11   -1    0    0    0    0 -0.00000000000E+00 -0.00000000000E+00 -0.45593999997E+02  0.45594000000E+02  0.51100000000E-03 0. -1.
    9900012    2    1    2    0    0 -0.14031736233E+00  0.10772776873E+01 -0.46120114148E+00  0.90007778550E+02  0.90000040427E+02 0.  0.
        -12    1    1    2    0    0  0.14031736233E+00 -0.10772776873E+01  0.46120114148E+00  0.11802214498E+01  0.00000000000E+00 0.  1.
         11    1    3    3    0    0  0.16125643176E+01 -0.44812511522E+01 -0.13127895635E+02  0.13965085736E+02  0.51100000000E-03 0. -1.
        -11    1    3    3    0    0  0.15839814199E+02 -0.25882101168E+02  0.23545596150E+02  0.38408045681E+02  0.51100000000E-03 0.  1.
         12    1    3    3    0    0 -0.17592695879E+02  0.31440630007E+02 -0.10878901656E+02  0.37634647133E+02  0.00000000000E+00 0. -1.
</event>
<event>
 7    1  0.2578619E-015  0.9000767E+02  0.7816164E-02  0.1186339E+00
        -11   -1    0    0    0    0  0.00000000000E+00  0.00000000000E+00  0.45593999997E+02  0.45594000000E+02  0.51100000000E-03 0. -1.
         11   -1    0    0    0    0 -0.00000000000E+00 -0.00000000000E+00 -0.45593999997E+02  0.45594000000E+02  0.51100000000E-03 0.  1.
    9900012    2    1    2    0    0  0.44055979048E+00  0.32343102204E+00 -0.10461738792E+01  0.90007669394E+02  0.89999929830E+02 0.  0.
        -12    1    1    2    0    0 -0.44055979048E+00 -0.32343102204E+00  0.10461738792E+01  0.11803306064E+01  0.00000000000E+00 0.  1.
         11    1    3    3    0    0  0.26450555920E+01 -0.11640271270E+02  0.77592817276E+00  0.11962202937E+02  0.51100000000E-03 0. -1.
        -11    1    3    3    0    0 -0.31312389020E+02 -0.10045574917E+02 -0.18710671421E+02  0.37834752633E+02  0.51100000000E-03 0.  1.
         12    1    3    3    0    0  0.29107893218E+02  0.22009277209E+02  0.16888569369E+02  0.40210713823E+02  0.00000000000E+00 0. -1.
</event>
<event>
 7    1  0.2578619E-015  0.9000769E+02  0.7816164E-02  0.1186339E+00
        -11   -1    0    0    0    0  0.00000000000E+00  0.00000000000E+00  0.45593999997E+02  0.45594000000E+02  0.51100000000E-03 0.  1.
         11   -1    0    0    0    0 -0.00000000000E+00 -0.00000000000E+00 -0.45593999997E+02  0.45594000000E+02  0.51100000000E-03 0. -1.
    9900012    2    1    2    0    0 -0.87290467204E+00  0.23280367247E+00 -0.75957935220E+00  0.90007694570E+02  0.89999955338E+02 0.  0.
        -12    1    1    2    0    0  0.87290467204E+00 -0.23280367247E+00  0.75957935220E+00  0.11803054302E+01  0.00000000000E+00 0.  1.
         11    1    3    3    0    0 -0.76862301437E+01  0.57015431028E+01 -0.32361306637E+01  0.10102389297E+02  0.51100000000E-03 0. -1.
        -11    1    3    3    0    0  0.19581927874E+02  0.25325292203E+02  0.24187003163E+02  0.40122729801E+02  0.51100000000E-03 0.  1.
         12    1    3    3    0    0 -0.12768602402E+02 -0.30794031634E+02 -0.21710451851E+02  0.39782575472E+02  0.00000000000E+00 0. -1.
</event>
<event>
 7    1  0.2578619E-015  0.9000773E+02  0.7816164E-02  0.1186339E+00
        -11   -1    0    0    0    0  0.00000000000E+00  0.00000000000E+00  0.45593999997E+02  0.45594000000E+02  0.51100000000E-03 0.  1.
         11   -1    0    0    0    0 -0.00000000000E+00 -0.00000000000E+00 -0.45593999997E+02  0.45594000000E+02  0.51100000000E-03 0. -1.
    9900012    2    1    2    0    0  0.44650075294E+00 -0.10417375412E+01  0.32931383756E+00  0.90007734085E+02  0.89999995375E+02 0.  0.
        -12    1    1    2    0    0 -0.44650075294E+00  0.10417375412E+01 -0.32931383756E+00  0.11802659153E+01  0.00000000000E+00 0.  1.
         11    1    3    3    0    0 -0.18775287673E+02  0.34027951865E+00  0.12871794890E+02  0.22766429700E+02  0.51100000000E-03 0. -1.
        -11    1    3    3    0    0 -0.30045858080E+01  0.62123657049E+01  0.23349003943E+02  0.24347423045E+02  0.51100000000E-03 0.  1.
         12    1    3    3    0    0  0.22226374234E+02 -0.75943827648E+01 -0.35891484995E+02  0.42893881339E+02  0.00000000000E+00 0. -1.
</event>
<event>
 7    1  0.2578619E-015  0.9000774E+02  0.7816164E-02  0.1186339E+00
        -11   -1    0    0    0    0  0.00000000000E+00  0.00000000000E+00  0.45593999997E+02  0.45594000000E+02  0.51100000000E-03 0. -1.
         11   -1    0    0    0    0 -0.00000000000E+00 -0.00000000000E+00 -0.45593999997E+02  0.45594000000E+02  0.51100000000E-03 0.  1.
    9900012    2    1    2    0    0  0.71206313566E-01 -0.11615632068E+01 -0.19677710756E+00  0.90007737041E+02  0.89999998370E+02 0.  0.
        -12    1    1    2    0    0 -0.71206313566E-01  0.11615632068E+01  0.19677710756E+00  0.11802629590E+01  0.00000000000E+00 0.  1.
         11    1    3    3    0    0 -0.47717324798E+01  0.14477664476E+01  0.29839472205E+01  0.58111444502E+01  0.51100000000E-03 0. -1.
        -11    1    3    3    0    0 -0.68067100215E+01  0.54805855593E+00  0.39374760476E+02  0.39962525349E+02  0.51100000000E-03 0.  1.
        -12    1    3    3    0    0  0.11649648815E+02 -0.31573882103E+01 -0.42555484804E+02  0.44234067241E+02  0.00000000000E+00 0.  1.
</event>
<event>
 7    1  0.2578619E-015  0.9000771E+02  0.7816164E-02  0.1186339E+00
        -11   -1    0    0    0    0  0.00000000000E+00  0.00000000000E+00  0.45593999997E+02  0.45594000000E+02  0.51100000000E-03 0. -1.
         11   -1    0    0    0    0 -0.00000000000E+00 -0.00000000000E+00 -0.45593999997E+02  0.45594000000E+02  0.51100000000E-03 0.  1.
    9900012    2    1    2    0    0  0.57281817754E+00  0.10311478232E+01 -0.41258820557E-01  0.90007708177E+02  0.89999969125E+02 0.  0.
        -12    1    1    2    0    0 -0.57281817754E+00 -0.10311478232E+01  0.41258820557E-01  0.11802918233E+01  0.00000000000E+00 0.  1.
         11    1    3    3    0    0  0.20972659547E+02 -0.27787285842E+02  0.19760967665E+02  0.40031007310E+02  0.51100000000E-03 0. -1.
        -11    1    3    3    0    0  0.43961673040E+01 -0.77948696002E+00 -0.87351932140E+01  0.98100707251E+01  0.51100000000E-03 0.  1.
        -12    1    3    3    0    0 -0.24796008673E+02  0.29597920625E+02 -0.11067033272E+02  0.40166630141E+02  0.00000000000E+00 0.  1.
</event>
<event>
 7    1  0.2578619E-015  0.9000772E+02  0.7816164E-02  0.1186339E+00
        -11   -1    0    0    0    0  0.00000000000E+00  0.00000000000E+00  0.45593999997E+02  0.45594000000E+02  0.51100000000E-03 0.  1.
         11   -1    0    0    0    0 -0.00000000000E+00 -0.00000000000E+00 -0.45593999997E+02  0.45594000000E+02  0.51100000000E-03 0. -1.
    9900012    2    1    2    0    0  0.11497510956E+01 -0.17659580057E+00 -0.19986452155E+00  0.90007720590E+02  0.89999981702E+02 0.  0.
        -12    1    1    2    0    0 -0.11497510956E+01  0.17659580057E+00  0.19986452155E+00  0.11802794100E+01  0.00000000000E+00 0.  1.
         11    1    3    3    0    0 -0.19879468155E+02  0.21921058548E+02 -0.34122232936E+01  0.29788745023E+02  0.51100000000E-03 0. -1.
        -11    1    3    3    0    0  0.54288029116E+01  0.13837742483E+02 -0.11056550430E+02  0.18525720654E+02  0.51100000000E-03 0.  1.
        -12    1    3    3    0    0  0.15600416339E+02 -0.35935396832E+02  0.14268909202E+02  0.41693254913E+02  0.00000000000E+00 0.  1.
</event>
<event>
 7    1  0.2578619E-015  0.9000768E+02  0.7816164E-02  0.1186339E+00
        -11   -1    0    0    0    0  0.00000000000E+00  0.00000000000E+00  0.45593999997E+02  0.45594000000E+02  0.51100000000E-03 0. -1.
         11   -1    0    0    0    0 -0.00000000000E+00 -0.00000000000E+00 -0.45593999997E+02  0.45594000000E+02  0.51100000000E-03 0.  1.
    9900012    2    1    2    0    0  0.76255937758E+00  0.63873141378E+00  0.63535784316E+00  0.90007680462E+02  0.89999941044E+02 0.  0.
        -12    1    1    2    0    0 -0.76255937758E+00 -0.63873141378E+00 -0.63535784316E+00  0.11803195382E+01  0.00000000000E+00 0.  1.
         11    1    3    3    0    0 -0.32574127104E+02 -0.97041899845E+00  0.15581368878E+02  0.36121939677E+02  0.51100000000E-03 0. -1.
        -11    1    3    3    0    0  0.59468954932E+00  0.15998672963E+01  0.11605915199E+02  0.11730750142E+02  0.51100000000E-03 0.  1.
        -12    1    3    3    0    0  0.32741996933E+02  0.92831159088E-02 -0.26551926235E+02  0.42154990643E+02  0.00000000000E+00 0.  1.
</event>
<event>
 7    1  0.2578619E-015  0.9000779E+02  0.7816164E-02  0.1186339E+00
        -11   -1    0    0    0    0  0.00000000000E+00  0.00000000000E+00  0.45593999997E+02  0.45594000000E+02  0.51100000000E-03 0.  1.
         11   -1    0    0    0    0 -0.00000000000E+00 -0.00000000000E+00 -0.45593999997E+02  0.45594000000E+02  0.51100000000E-03 0. -1.
    9900012    2    1    2    0    0  0.97749618072E+00  0.66093752668E+00  0.23619103605E-01  0.90007790248E+02  0.90000052279E+02 0.  0.
        -12    1    1    2    0    0 -0.97749618072E+00 -0.66093752668E+00 -0.23619103605E-01  0.11802097524E+01  0.00000000000E+00 0.  1.
         11    1    3    3    0    0  0.52813057072E+00 -0.77791517121E+01 -0.64240432425E+01  0.10102596453E+02  0.51100000000E-03 0. -1.
        -11    1    3    3    0    0  0.12240367151E+02 -0.33712883343E+02  0.34464836094E+01  0.36031421576E+02  0.51100000000E-03 0.  1.
         12    1    3    3    0    0 -0.11791001541E+02  0.42152972582E+02  0.30011787367E+01  0.43873772218E+02  0.00000000000E+00 0. -1.
</event>
<event>
 7    1  0.2578619E-015  0.9000673E+02  0.7816164E-02  0.1186341E+00
        -11   -1    0    0    0    0  0.00000000000E+00  0.00000000000E+00  0.45593999997E+02  0.45594000000E+02  0.51100000000E-03 0.  1.
         11   -1    0    0    0    0 -0.00000000000E+00 -0.00000000000E+00 -0.45593999997E+02  0.45594000000E+02  0.51100000000E-03 0. -1.
    9900012    2    1    2    0    0  0.28926616531E+00 -0.88243751470E-02 -0.11452754445E+01  0.90006725846E+02  0.89998973821E+02 0.  0.
        -12    1    1    2    0    0 -0.28926616531E+00  0.88243751470E-02  0.11452754445E+01  0.11812741544E+01  0.00000000000E+00 0.  1.
         11    1    3    3    0    0  0.15227749170E+00  0.94885743151E+01  0.43454405241E+01  0.10437388782E+02  0.51100000000E-03 0. -1.
        -11    1    3    3    0    0  0.65152913195E+01  0.38845758736E+01  0.35332636812E+02  0.36137711259E+02  0.51100000000E-03 0.  1.
         12    1    3    3    0    0 -0.63783026459E+01 -0.13381974564E+02 -0.40823352780E+02  0.43431625805E+02  0.00000000000E+00 0. -1.
</event>
<event>
 7    1  0.2578619E-015  0.9000785E+02  0.7816164E-02  0.1186339E+00
        -11   -1    0    0    0    0  0.00000000000E+00  0.00000000000E+00  0.45593999997E+02  0.45594000000E+02  0.51100000000E-03 0.  1.
         11   -1    0    0    0    0 -0.00000000000E+00 -0.00000000000E+00 -0.45593999997E+02  0.45594000000E+02  0.51100000000E-03 0. -1.
    9900012    2    1    2    0    0  0.69786008090E+00  0.87401708286E+00 -0.37662508445E+00  0.90007847040E+02  0.90000109821E+02 0.  0.
        -12    1    1    2    0    0 -0.69786008090E+00 -0.87401708286E+00  0.37662508445E+00  0.11801529595E+01  0.00000000000E+00 0.  1.
         11    1    3    3    0    0  0.68615741361E+01  0.86016415128E+01  0.74059977093E+01  0.13263417307E+02  0.51100000000E-03 0. -1.
        -11    1    3    3    0    0 -0.28971181957E+02  0.22390818175E+02  0.47909954912E+01  0.36927384968E+02  0.51100000000E-03 0.  1.
         12    1    3    3    0    0  0.22807467902E+02 -0.30118442605E+02 -0.12573618285E+02  0.39817044765E+02  0.00000000000E+00 0. -1.
</event>
<event>
 7    1  0.2578619E-015  0.9000782E+02  0.7816164E-02  0.1186339E+00
        -11   -1    0    0    0    0  0.00000000000E+00  0.00000000000E+00  0.45593999997E+02  0.45594000000E+02  0.51100000000E-03 0.  1.
         11   -1    0    0    0    0 -0.00000000000E+00 -0.00000000000E+00 -0.45593999997E+02  0.45594000000E+02  0.51100000000E-03 0. -1.
    9900012    2    1    2    0    0  0.17235683126E+00  0.88475145203E+00 -0.76179574008E+00  0.90007820031E+02  0.90000082456E+02 0.  0.
        -12    1    1    2    0    0 -0.17235683126E+00 -0.88475145203E+00  0.76179574008E+00  0.11801799688E+01  0.00000000000E+00 0.  1.
         11    1    3    3    0    0 -0.36114732835E+01  0.57156431593E+01 -0.34446822537E+01  0.75879609970E+01  0.51100000000E-03 0. -1.
        -11    1    3    3    0    0 -0.62228739047E+00  0.18445151249E+02  0.36634434145E+02  0.41020636411E+02  0.51100000000E-03 0.  1.
         12    1    3    3    0    0  0.44061175053E+01 -0.23276042956E+02 -0.33951547632E+02  0.41399222623E+02  0.00000000000E+00 0. -1.
</event>
<event>
 7    1  0.2578619E-015  0.9000776E+02  0.7816164E-02  0.1186339E+00
        -11   -1    0    0    0    0  0.00000000000E+00  0.00000000000E+00  0.45593999997E+02  0.45594000000E+02  0.51100000000E-03 0. -1.
         11   -1    0    0    0    0 -0.00000000000E+00 -0.00000000000E+00 -0.45593999997E+02  0.45594000000E+02  0.51100000000E-03 0.  1.
    9900012    2    1    2    0    0  0.62249018869E+00  0.10027371632E+01 -0.10799121208E-02  0.90007755525E+02  0.90000017098E+02 0.  0.
        -12    1    1    2    0    0 -0.62249018869E+00 -0.10027371632E+01  0.10799121208E-02  0.11802444745E+01  0.00000000000E+00 0.  1.
         11    1    3    3    0    0  0.81361809935E+01  0.39313552896E+01 -0.17901528537E+01  0.92118208338E+01  0.51100000000E-03 0. -1.
        -11    1    3    3    0    0 -0.10244676024E+02  0.31928458462E+02 -0.20528303588E+02  0.39316549888E+02  0.51100000000E-03 0.  1.
         12    1    3    3    0    0  0.27309852189E+01 -0.34857076588E+02  0.22317376530E+02  0.41479384804E+02  0.00000000000E+00 0. -1.
</event>
<event>
 7    1  0.2578619E-015  0.9000769E+02  0.7816164E-02  0.1186339E+00
        -11   -1    0    0    0    0  0.00000000000E+00  0.00000000000E+00  0.45593999997E+02  0.45594000000E+02  0.51100000000E-03 0.  1.
         11   -1    0    0    0    0 -0.00000000000E+00 -0.00000000000E+00 -0.45593999997E+02  0.45594000000E+02  0.51100000000E-03 0. -1.
    9900012    2    1    2    0    0  0.11659422997E+01  0.18338922066E+00 -0.85663250498E-02  0.90007692229E+02  0.89999952966E+02 0.  0.
        -12    1    1    2    0    0 -0.11659422997E+01 -0.18338922066E+00  0.85663250498E-02  0.11803077711E+01  0.00000000000E+00 0.  1.
         11    1    3    3    0    0  0.80710361638E+01  0.31009945001E+02  0.12526750630E+02  0.34404618808E+02  0.51100000000E-03 0. -1.
        -11    1    3    3    0    0  0.46364717872E+01  0.10158949528E+02  0.17030643495E+00  0.11168264444E+02  0.51100000000E-03 0.  1.
        -12    1    3    3    0    0 -0.11541565651E+02 -0.40985505309E+02 -0.12705623390E+02  0.44434808977E+02  0.00000000000E+00 0.  1.
</event>
<event>
 7    1  0.2578619E-015  0.9000777E+02  0.7816164E-02  0.1186339E+00
        -11   -1    0    0    0    0  0.00000000000E+00  0.00000000000E+00  0.45593999997E+02  0.45594000000E+02  0.51100000000E-03 0.  1.
         11   -1    0    0    0    0 -0.00000000000E+00 -0.00000000000E+00 -0.45593999997E+02  0.45594000000E+02  0.51100000000E-03 0. -1.
    9900012    2    1    2    0    0  0.38893568168E+00  0.55280167079E+00 -0.96751754049E+00  0.90007766615E+02  0.90000028334E+02 0.  0.
        -12    1    1    2    0    0 -0.38893568168E+00 -0.55280167079E+00  0.96751754049E+00  0.11802333849E+01  0.00000000000E+00 0.  1.
         11    1    3    3    0    0  0.97222551525E+01 -0.40144533564E+02 -0.39833673376E+01  0.41496662949E+02  0.51100000000E-03 0. -1.
        -11    1    3    3    0    0  0.59894534074E+01  0.41440517771E+01  0.49871731273E+01  0.88271520500E+01  0.51100000000E-03 0.  1.
        -12    1    3    3    0    0 -0.15322772878E+02  0.36553283457E+02 -0.19713233302E+01  0.39683951616E+02  0.00000000000E+00 0.  1.
</event>
<event>
 7    1  0.2578619E-015  0.9000783E+02  0.7816164E-02  0.1186339E+00
        -11   -1    0    0    0    0  0.00000000000E+00  0.00000000000E+00  0.45593999997E+02  0.45594000000E+02  0.51100000000E-03 0.  1.
         11   -1    0    0    0    0 -0.00000000000E+00 -0.00000000000E+00 -0.45593999997E+02  0.45594000000E+02  0.51100000000E-03 0. -1.
    9900012    2    1    2    0    0 -0.11208759603E+01 -0.18111538405E+00  0.32193732540E+00  0.90007826563E+02  0.90000089073E+02 0.  0.
        -12    1    1    2    0    0  0.11208759603E+01  0.18111538405E+00 -0.32193732540E+00  0.11801734373E+01  0.00000000000E+00 0.  1.
         11    1    3    3    0    0 -0.26544948936E+02 -0.13206172615E+02 -0.19999255570E+02  0.35763214799E+02  0.51100000000E-03 0. -1.
        -11    1    3    3    0    0 -0.18661664100E+01 -0.20620640892E+01 -0.10223014355E+02  0.10594560309E+02  0.51100000000E-03 0.  1.
        -12    1    3    3    0    0  0.27290239386E+02  0.15087121320E+02  0.30544207250E+02  0.43650051455E+02  0.00000000000E+00 0.  1.
</event>
<event>
 7    1  0.2578619E-015  0.9000721E+02  0.7816164E-02  0.1186340E+00
        -11   -1    0    0    0    0  0.00000000000E+00  0.00000000000E+00  0.45593999997E+02  0.45594000000E+02  0.51100000000E-03 0.  1.
         11   -1    0    0    0    0 -0.00000000000E+00 -0.00000000000E+00 -0.45593999997E+02  0.45594000000E+02  0.51100000000E-03 0. -1.
    9900012    2    1    2    0    0  0.27235250254E+00  0.43997678912E-01 -0.11481103100E+01  0.90007208331E+02  0.89999462679E+02 0.  0.
        -12    1    1    2    0    0 -0.27235250254E+00 -0.43997678912E-01  0.11481103100E+01  0.11807916689E+01  0.00000000000E+00 0.  1.
         11    1    3    3    0    0  0.10006852082E+01  0.10013920100E+02 -0.34298710885E+01  0.10632214379E+02  0.51100000000E-03 0. -1.
        -11    1    3    3    0    0  0.99577244506E+01  0.18807883610E+02  0.30824965847E+02  0.37457593114E+02  0.51100000000E-03 0.  1.
         12    1    3    3    0    0 -0.10686057156E+02 -0.28777806031E+02 -0.28543205069E+02  0.41917400839E+02  0.00000000000E+00 0. -1.
</event>
<event>
 7    1  0.2578619E-015  0.9000757E+02  0.7816164E-02  0.1186339E+00
        -11   -1    0    0    0    0  0.00000000000E+00  0.00000000000E+00  0.45593999997E+02  0.45594000000E+02  0.51100000000E-03 0.  1.
         11   -1    0    0    0    0 -0.00000000000E+00 -0.00000000000E+00 -0.45593999997E+02  0.45594000000E+02  0.51100000000E-03 0. -1.
    9900012    2    1    2    0    0  0.11111645204E+01 -0.35280397054E+00  0.18507961106E+00  0.90007571393E+02  0.89999830536E+02 0.  0.
        -12    1    1    2    0    0 -0.11111645204E+01  0.35280397054E+00 -0.18507961106E+00  0.11804286067E+01  0.00000000000E+00 0.  1.
         11    1    3    3    0    0  0.23313475984E+01 -0.44334237186E+01 -0.96333755773E+01  0.10857824495E+02  0.51100000000E-03 0. -1.
        -11    1    3    3    0    0 -0.24647961208E+02  0.25809186902E+01  0.36177720163E+02  0.43852144411E+02  0.51100000000E-03 0.  1.
         12    1    3    3    0    0  0.23427778130E+02  0.14997010578E+01 -0.26359264974E+02  0.35297602487E+02  0.00000000000E+00 0. -1.
</event>
<event>
 7    1  0.2578619E-015  0.9000787E+02  0.7816164E-02  0.1186339E+00
        -11   -1    0    0    0    0  0.00000000000E+00  0.00000000000E+00  0.45593999997E+02  0.45594000000E+02  0.51100000000E-03 0.  1.
         11   -1    0    0    0    0 -0.00000000000E+00 -0.00000000000E+00 -0.45593999997E+02  0.45594000000E+02  0.51100000000E-03 0. -1.
    9900012    2    1    2    0    0 -0.67435015382E+00 -0.95419696874E+00  0.16574566656E+00  0.90007867969E+02  0.90000131026E+02 0.  0.
        -12    1    1    2    0    0  0.67435015382E+00  0.95419696874E+00 -0.16574566656E+00  0.11801320312E+01  0.00000000000E+00 0.  1.
         11    1    3    3    0    0  0.20438282257E+01  0.60733662585E+01 -0.71405575538E+00  0.64477040417E+01  0.51100000000E-03 0. -1.
        -11    1    3    3    0    0  0.28470258118E+02  0.23436699327E+02 -0.10799643425E+02  0.38424819727E+02  0.51100000000E-03 0.  1.
         12    1    3    3    0    0 -0.31188436497E+02 -0.30464262555E+02  0.11679444847E+02  0.45135344200E+02  0.00000000000E+00 0. -1.
</event>
<event>
 7    1  0.2578619E-015  0.9000793E+02  0.7816164E-02  0.1186339E+00
        -11   -1    0    0    0    0  0.00000000000E+00  0.00000000000E+00  0.45593999997E+02  0.45594000000E+02  0.51100000000E-03 0.  1.
         11   -1    0    0    0    0 -0.00000000000E+00 -0.00000000000E+00 -0.45593999997E+02  0.45594000000E+02  0.51100000000E-03 0. -1.
    9900012    2    1    2    0    0  0.52031729610E+00 -0.94168050116E+00 -0.48485250209E+00  0.90007926187E+02  0.90000190013E+02 0.  0.
        -12    1    1    2    0    0 -0.52031729610E+00  0.94168050116E+00  0.48485250209E+00  0.11800738128E+01  0.00000000000E+00 0.  1.
         11    1    3    3    0    0 -0.46986663159E+01  0.53344557540E+01 -0.29759797372E+01  0.77065127649E+01  0.51100000000E-03 0. -1.
        -11    1    3    3    0    0  0.16845837426E+02  0.23195952427E+02  0.29157676194E+02  0.40890151979E+02  0.51100000000E-03 0.  1.
         12    1    3    3    0    0 -0.11626853814E+02 -0.29472088682E+02 -0.26666548959E+02  0.41411261443E+02  0.00000000000E+00 0. -1.
</event>
<event>
 7    1  0.2578619E-015  0.9000774E+02  0.7816164E-02  0.1186339E+00
        -11   -1    0    0    0    0  0.00000000000E+00  0.00000000000E+00  0.45593999997E+02  0.45594000000E+02  0.51100000000E-03 0. -1.
         11   -1    0    0    0    0 -0.00000000000E+00 -0.00000000000E+00 -0.45593999997E+02  0.45594000000E+02  0.51100000000E-03 0.  1.
    9900012    2    1    2    0    0  0.43472592230E+00  0.87648333217E+00  0.66016180488E+00  0.90007735933E+02  0.89999997247E+02 0.  0.
        -12    1    1    2    0    0 -0.43472592230E+00 -0.87648333217E+00 -0.66016180488E+00  0.11802640669E+01  0.00000000000E+00 0.  1.
         11    1    3    3    0    0  0.14593660560E+02 -0.29660926041E+02  0.24754523101E+02  0.41298085626E+02  0.51100000000E-03 0. -1.
        -11    1    3    3    0    0 -0.63135490755E+01  0.50866648079E+01  0.47932592408E+01  0.94186196020E+01  0.51100000000E-03 0.  1.
        -12    1    3    3    0    0 -0.78453855624E+01  0.25450744566E+02 -0.28887620537E+02  0.39291030705E+02  0.00000000000E+00 0.  1.
</event>
<event>
 7    1  0.2578619E-015  0.9000772E+02  0.7816164E-02  0.1186339E+00
        -11   -1    0    0    0    0  0.00000000000E+00  0.00000000000E+00  0.45593999997E+02  0.45594000000E+02  0.51100000000E-03 0.  1.
         11   -1    0    0    0    0 -0.00000000000E+00 -0.00000000000E+00 -0.45593999997E+02  0.45594000000E+02  0.51100000000E-03 0. -1.
    9900012    2    1    2    0    0  0.43811602832E+00  0.10959465577E+01 -0.35913812864E-02  0.90007721469E+02  0.89999982593E+02 0.  0.
        -12    1    1    2    0    0 -0.43811602832E+00 -0.10959465577E+01  0.35913812864E-02  0.11802785305E+01  0.00000000000E+00 0.  1.
         11    1    3    3    0    0  0.11734418444E+01  0.44673159954E+01 -0.43453942281E+02  0.43698729707E+02  0.51100000000E-03 0. -1.
        -11    1    3    3    0    0  0.39343018649E+01  0.38323235440E+01  0.71983195596E+01  0.90543492120E+01  0.51100000000E-03 0.  1.
        -12    1    3    3    0    0 -0.46696276810E+01 -0.72036929817E+01  0.36252031340E+02  0.37254642550E+02  0.00000000000E+00 0.  1.
</event>
<event>
 7    1  0.2578619E-015  0.9000760E+02  0.7816164E-02  0.1186339E+00
        -11   -1    0    0    0    0  0.00000000000E+00  0.00000000000E+00  0.45593999997E+02  0.45594000000E+02  0.51100000000E-03 0.  1.
         11   -1    0    0    0    0 -0.00000000000E+00 -0.00000000000E+00 -0.45593999997E+02  0.45594000000E+02  0.51100000000E-03 0. -1.
    9900012    2    1    2    0    0 -0.10874830304E+00  0.10149243581E+01  0.59281983308E+00  0.90007604727E+02  0.89999864309E+02 0.  0.
        -12    1    1    2    0    0  0.10874830304E+00 -0.10149243581E+01 -0.59281983308E+00  0.11803952730E+01  0.00000000000E+00 0.  1.
         11    1    3    3    0    0  0.45297993249E+01 -0.14248372581E+01  0.76944660560E+01  0.90417946938E+01  0.51100000000E-03 0. -1.
        -11    1    3    3    0    0 -0.33158665072E+02 -0.16033416202E+02  0.15706417923E+02  0.40040717635E+02  0.51100000000E-03 0.  1.
         12    1    3    3    0    0  0.28520117444E+02  0.18473177818E+02 -0.22808064146E+02  0.40925092398E+02  0.00000000000E+00 0. -1.
</event>
<event>
 7    1  0.2578619E-015  0.9000769E+02  0.7816164E-02  0.1186339E+00
        -11   -1    0    0    0    0  0.00000000000E+00  0.00000000000E+00  0.45593999997E+02  0.45594000000E+02  0.51100000000E-03 0.  1.
         11   -1    0    0    0    0 -0.00000000000E+00 -0.00000000000E+00 -0.45593999997E+02  0.45594000000E+02  0.51100000000E-03 0. -1.
    9900012    2    1    2    0    0  0.48242098373E+00  0.98898601615E+00 -0.42696950147E+00  0.90007692286E+02  0.89999953024E+02 0.  0.
        -12    1    1    2    0    0 -0.48242098373E+00 -0.98898601615E+00  0.42696950147E+00  0.11803077145E+01  0.00000000000E+00 0.  1.
         11    1    3    3    0    0 -0.94456543673E+01  0.74792896606E+00  0.75413245998E+00  0.95051828069E+01  0.51100000000E-03 0. -1.
        -11    1    3    3    0    0 -0.97416555013E+01  0.37018326825E+02 -0.50776780015E+01  0.38613976576E+02  0.51100000000E-03 0.  1.
         12    1    3    3    0    0  0.19669730852E+02 -0.36777269775E+02  0.38965760401E+01  0.41888532903E+02  0.00000000000E+00 0. -1.
</event>
<event>
 7    1  0.2578619E-015  0.9000769E+02  0.7816164E-02  0.1186339E+00
        -11   -1    0    0    0    0  0.00000000000E+00  0.00000000000E+00  0.45593999997E+02  0.45594000000E+02  0.51100000000E-03 0. -1.
         11   -1    0    0    0    0 -0.00000000000E+00 -0.00000000000E+00 -0.45593999997E+02  0.45594000000E+02  0.51100000000E-03 0.  1.
    9900012    2    1    2    0    0 -0.25203096185E+00 -0.77112132920E+00 -0.85731409385E+00  0.90007688530E+02  0.89999949219E+02 0.  0.
        -12    1    1    2    0    0  0.25203096185E+00  0.77112132920E+00  0.85731409385E+00  0.11803114697E+01  0.00000000000E+00 0.  1.
         11    1    3    3    0    0 -0.30841554787E+02 -0.17257887069E+01 -0.67669395360E+01  0.31622323117E+02  0.51100000000E-03 0. -1.
        -11    1    3    3    0    0  0.82828008105E+01 -0.21156371738E+02 -0.79285064162E+01  0.24063625426E+02  0.51100000000E-03 0.  1.
        -12    1    3    3    0    0  0.22306723015E+02  0.22111039116E+02  0.13838131858E+02  0.34321739988E+02  0.00000000000E+00 0.  1.
</event>
<event>
 7    1  0.2578619E-015  0.9000766E+02  0.7816164E-02  0.1186339E+00
        -11   -1    0    0    0    0  0.00000000000E+00  0.00000000000E+00  0.45593999997E+02  0.45594000000E+02  0.51100000000E-03 0.  1.
         11   -1    0    0    0    0 -0.00000000000E+00 -0.00000000000E+00 -0.45593999997E+02  0.45594000000E+02  0.51100000000E-03 0. -1.
    9900012    2    1    2    0    0  0.10910019158E+01 -0.79859195964E-01 -0.44332926887E+00  0.90007659578E+02  0.89999919884E+02 0.  0.
        -12    1    1    2    0    0 -0.10910019158E+01  0.79859195964E-01  0.44332926887E+00  0.11803404221E+01  0.00000000000E+00 0.  1.
         11    1    3    3    0    0 -0.92381536340E+01  0.45911624193E+01  0.30008697307E+01  0.10743717901E+02  0.51100000000E-03 0. -1.
        -11    1    3    3    0    0 -0.97686381222E+00 -0.17975211765E+01  0.37058426000E+02  0.37114852595E+02  0.51100000000E-03 0.  1.
         12    1    3    3    0    0  0.11306019362E+02 -0.28735004387E+01 -0.40502625000E+02  0.42149089082E+02  0.00000000000E+00 0. -1.
</event>
<event>
 7    1  0.2578619E-015  0.9000773E+02  0.7816164E-02  0.1186339E+00
        -11   -1    0    0    0    0  0.00000000000E+00  0.00000000000E+00  0.45593999997E+02  0.45594000000E+02  0.51100000000E-03 0.  1.
         11   -1    0    0    0    0 -0.00000000000E+00 -0.00000000000E+00 -0.45593999997E+02  0.45594000000E+02  0.51100000000E-03 0. -1.
    9900012    2    1    2    0    0  0.25880405713E-01  0.11474380972E+01  0.27524285570E+00  0.90007727738E+02  0.89999988944E+02 0.  0.
        -12    1    1    2    0    0 -0.25880405713E-01 -0.11474380972E+01 -0.27524285570E+00  0.11802722618E+01  0.00000000000E+00 0.  1.
         11    1    3    3    0    0 -0.52985329001E+00  0.35115716704E+01  0.93964340652E+01  0.10045140791E+02  0.51100000000E-03 0. -1.
        -11    1    3    3    0    0 -0.14303722471E+02  0.16893206367E+02  0.27931644964E+02  0.35639215599E+02  0.51100000000E-03 0.  1.
         12    1    3    3    0    0  0.14859456167E+02 -0.19257339940E+02 -0.37052836173E+02  0.44323371348E+02  0.00000000000E+00 0. -1.
</event>
<event>
 7    1  0.2578619E-015  0.9000713E+02  0.7816164E-02  0.1186340E+00
        -11   -1    0    0    0    0  0.00000000000E+00  0.00000000000E+00  0.45593999997E+02  0.45594000000E+02  0.51100000000E-03 0.  1.
         11   -1    0    0    0    0 -0.00000000000E+00 -0.00000000000E+00 -0.45593999997E+02  0.45594000000E+02  0.51100000000E-03 0. -1.
    9900012    2    1    2    0    0  0.69775892568E+00  0.65277500087E+00 -0.69387361206E+00  0.90007134508E+02  0.89999387882E+02 0.  0.
        -12    1    1    2    0    0 -0.69775892568E+00 -0.65277500087E+00  0.69387361206E+00  0.11808654918E+01  0.00000000000E+00 0.  1.
         11    1    3    3    0    0  0.28873290655E+02  0.19587028518E+02 -0.20252551477E+02  0.40342092670E+02  0.51100000000E-03 0. -1.
        -11    1    3    3    0    0  0.28217139844E+01 -0.91145576541E+01 -0.31011764050E+01  0.10032672944E+02  0.51100000000E-03 0.  1.
        -12    1    3    3    0    0 -0.30997245713E+02 -0.98196958628E+01  0.22659854270E+02  0.39632368895E+02  0.00000000000E+00 0.  1.
</event>
<event>
 7    1  0.2578619E-015  0.9000714E+02  0.7816164E-02  0.1186340E+00
        -11   -1    0    0    0    0  0.00000000000E+00  0.00000000000E+00  0.45593999997E+02  0.45594000000E+02  0.51100000000E-03 0. -1.
         11   -1    0    0    0    0 -0.00000000000E+00 -0.00000000000E+00 -0.45593999997E+02  0.45594000000E+02  0.51100000000E-03 0.  1.
    9900012    2    1    2    0    0 -0.24871295306E+00 -0.10004038386E+01  0.57599334005E+00  0.90007138323E+02  0.89999391746E+02 0.  0.
        -12    1    1    2    0    0  0.24871295306E+00  0.10004038386E+01 -0.57599334005E+00  0.11808616773E+01  0.00000000000E+00 0.  1.
         11    1    3    3    0    0 -0.30149891558E+02  0.12581887699E+02  0.64192634794E+01  0.33294546144E+02  0.51100000000E-03 0. -1.
        -11    1    3    3    0    0 -0.90563868056E+01  0.74520608234E+01  0.15361024889E+01  0.11828396493E+02  0.51100000000E-03 0.  1.
        -12    1    3    3    0    0  0.38957565410E+02 -0.21034352361E+02 -0.73793726283E+01  0.44884195686E+02  0.00000000000E+00 0.  1.
</event>
<event>
 7    1  0.2578619E-015  0.9000777E+02  0.7816164E-02  0.1186339E+00
        -11   -1    0    0    0    0  0.00000000000E+00  0.00000000000E+00  0.45593999997E+02  0.45594000000E+02  0.51100000000E-03 0. -1.
         11   -1    0    0    0    0 -0.00000000000E+00 -0.00000000000E+00 -0.45593999997E+02  0.45594000000E+02  0.51100000000E-03 0.  1.
    9900012    2    1    2    0    0  0.64856996651E+00 -0.58917294665E+00  0.79068239400E+00  0.90007768493E+02  0.90000030237E+02 0.  0.
        -12    1    1    2    0    0 -0.64856996651E+00  0.58917294665E+00 -0.79068239400E+00  0.11802315072E+01  0.00000000000E+00 0.  1.
         11    1    3    3    0    0  0.13576441949E+02  0.89950439448E+01  0.33457218804E+01  0.16626017164E+02  0.51100000000E-03 0. -1.
        -11    1    3    3    0    0 -0.24431504021E+02  0.14191035850E+02 -0.25752290529E+02  0.38229103507E+02  0.51100000000E-03 0.  1.
         12    1    3    3    0    0  0.11503632038E+02 -0.23775252741E+02  0.23197251042E+02  0.35152647822E+02  0.00000000000E+00 0. -1.
</event>
<event>
 7    1  0.2578619E-015  0.9000773E+02  0.7816164E-02  0.1186339E+00
        -11   -1    0    0    0    0  0.00000000000E+00  0.00000000000E+00  0.45593999997E+02  0.45594000000E+02  0.51100000000E-03 0.  1.
         11   -1    0    0    0    0 -0.00000000000E+00 -0.00000000000E+00 -0.45593999997E+02  0.45594000000E+02  0.51100000000E-03 0. -1.
    9900012    2    1    2    0    0  0.81135485754E+00  0.77170796101E+00  0.37309549994E+00  0.90007733024E+02  0.89999994300E+02 0.  0.
        -12    1    1    2    0    0 -0.81135485754E+00 -0.77170796101E+00 -0.37309549994E+00  0.11802669757E+01  0.00000000000E+00 0.  1.
         11    1    3    3    0    0  0.13911355475E+01 -0.87047244228E+01  0.38411906945E+01  0.96157283448E+01  0.51100000000E-03 0. -1.
        -11    1    3    3    0    0 -0.25870289614E+01 -0.32937745745E+02  0.12072635950E+02  0.35175792140E+02  0.51100000000E-03 0.  1.
         12    1    3    3    0    0  0.20072482715E+01  0.42414178129E+02 -0.15540731144E+02  0.45216212540E+02  0.00000000000E+00 0. -1.
</event>
<event>
 7    1  0.2578619E-015  0.9000773E+02  0.7816164E-02  0.1186339E+00
        -11   -1    0    0    0    0  0.00000000000E+00  0.00000000000E+00  0.45593999997E+02  0.45594000000E+02  0.51100000000E-03 0.  1.
         11   -1    0    0    0    0 -0.00000000000E+00 -0.00000000000E+00 -0.45593999997E+02  0.45594000000E+02  0.51100000000E-03 0. -1.
    9900012    2    1    2    0    0  0.90042748882E+00 -0.52224215997E+00 -0.55635413815E+00  0.90007730343E+02  0.89999991583E+02 0.  0.
        -12    1    1    2    0    0 -0.90042748882E+00  0.52224215997E+00  0.55635413815E+00  0.11802696570E+01  0.00000000000E+00 0.  1.
         11    1    3    3    0    0 -0.26859099299E+02 -0.71333603432E+01 -0.15916122794E+02  0.32025287040E+02  0.51100000000E-03 0. -1.
        -11    1    3    3    0    0 -0.11130389490E+02 -0.64922894883E+00 -0.63751496823E+01  0.12843270695E+02  0.51100000000E-03 0.  1.
        -12    1    3    3    0    0  0.38889916277E+02  0.72603471321E+01  0.21734918338E+02  0.45139172608E+02  0.00000000000E+00 0.  1.
</event>
<event>
 7    1  0.2578619E-015  0.9000771E+02  0.7816164E-02  0.1186339E+00
        -11   -1    0    0    0    0  0.00000000000E+00  0.00000000000E+00  0.45593999997E+02  0.45594000000E+02  0.51100000000E-03 0. -1.
         11   -1    0    0    0    0 -0.00000000000E+00 -0.00000000000E+00 -0.45593999997E+02  0.45594000000E+02  0.51100000000E-03 0.  1.
    9900012    2    1    2    0    0  0.89779795347E+00  0.17896811548E+00  0.74499439156E+00  0.90007708767E+02  0.89999969723E+02 0.  0.
        -12    1    1    2    0    0 -0.89779795347E+00 -0.17896811548E+00 -0.74499439156E+00  0.11802912332E+01  0.00000000000E+00 0.  1.
         11    1    3    3    0    0 -0.23634872248E+01  0.46857942298E+01 -0.72619906389E+01  0.89598687338E+01  0.51100000000E-03 0. -1.
        -11    1    3    3    0    0 -0.21596784273E+02 -0.23420911201E+02 -0.21213651859E+02  0.38275046674E+02  0.51100000000E-03 0.  1.
         12    1    3    3    0    0  0.24858069451E+02  0.18914085086E+02  0.29220636890E+02  0.42772793359E+02  0.00000000000E+00 0. -1.
</event>
<event>
 7    1  0.2578619E-015  0.9000772E+02  0.7816164E-02  0.1186339E+00
        -11   -1    0    0    0    0  0.00000000000E+00  0.00000000000E+00  0.45593999997E+02  0.45594000000E+02  0.51100000000E-03 0. -1.
         11   -1    0    0    0    0 -0.00000000000E+00 -0.00000000000E+00 -0.45593999997E+02  0.45594000000E+02  0.51100000000E-03 0.  1.
    9900012    2    1    2    0    0  0.55705094164E+00  0.79815756333E+00  0.66761246172E+00  0.90007717133E+02  0.89999978199E+02 0.  0.
        -12    1    1    2    0    0 -0.55705094164E+00 -0.79815756333E+00 -0.66761246172E+00  0.11802828672E+01  0.00000000000E+00 0.  1.
         11    1    3    3    0    0 -0.32215346811E+01  0.16043227599E+01  0.41020597271E+02  0.41178168220E+02  0.51100000000E-03 0. -1.
        -11    1    3    3    0    0 -0.82549446140E+01  0.45696823057E+01 -0.41603657167E+01  0.10311874229E+02  0.51100000000E-03 0.  1.
        -12    1    3    3    0    0  0.12033530237E+02 -0.53758475023E+01 -0.36192619092E+02  0.38517674684E+02  0.00000000000E+00 0.  1.
</event>
<event>
 7    1  0.2578619E-015  0.9000764E+02  0.7816164E-02  0.1186339E+00
        -11   -1    0    0    0    0  0.00000000000E+00  0.00000000000E+00  0.45593999997E+02  0.45594000000E+02  0.51100000000E-03 0.  1.
         11   -1    0    0    0    0 -0.00000000000E+00 -0.00000000000E+00 -0.45593999997E+02  0.45594000000E+02  0.51100000000E-03 0. -1.
    9900012    2    1    2    0    0  0.34875000831E-01 -0.97128866652E+00  0.66979508163E+00  0.90007642685E+02  0.89999902769E+02 0.  0.
        -12    1    1    2    0    0 -0.34875000831E-01  0.97128866652E+00 -0.66979508163E+00  0.11803573149E+01  0.00000000000E+00 0.  1.
         11    1    3    3    0    0  0.21288862697E+02 -0.90965239277E+01 -0.26917885000E+02  0.35504013233E+02  0.51100000000E-03 0. -1.
        -11    1    3    3    0    0  0.10361418114E+02  0.19437134765E-01 -0.18805942454E+01  0.10530716885E+02  0.51100000000E-03 0.  1.
        -12    1    3    3    0    0 -0.31615405810E+02  0.81057981264E+01  0.29468274327E+02  0.43972912567E+02  0.00000000000E+00 0.  1.
</event>
<event>
 7    1  0.2578619E-015  0.9000772E+02  0.7816164E-02  0.1186339E+00
        -11   -1    0    0    0    0  0.00000000000E+00  0.00000000000E+00  0.45593999997E+02  0.45594000000E+02  0.51100000000E-03 0.  1.
         11   -1    0    0    0    0 -0.00000000000E+00 -0.00000000000E+00 -0.45593999997E+02  0.45594000000E+02  0.51100000000E-03 0. -1.
    9900012    2    1    2    0    0 -0.10005368416E+01  0.61621895582E+00 -0.11068355606E+00  0.90007724345E+02  0.89999985506E+02 0.  0.
        -12    1    1    2    0    0  0.10005368416E+01 -0.61621895582E+00  0.11068355606E+00  0.11802756553E+01  0.00000000000E+00 0.  1.
         11    1    3    3    0    0  0.31428640488E+01  0.52178647556E+01  0.15629494934E+02  0.16774528881E+02  0.51100000000E-03 0. -1.
        -11    1    3    3    0    0  0.48297111134E+01  0.14777600566E+02  0.23722228624E+02  0.28362787576E+02  0.51100000000E-03 0.  1.
         12    1    3    3    0    0 -0.89731120038E+01 -0.19379246366E+02 -0.39462407114E+02  0.44870407887E+02  0.00000000000E+00 0. -1.
</event>
<event>
 7    1  0.2578619E-015  0.9000769E+02  0.7816164E-02  0.1186339E+00
        -11   -1    0    0    0    0  0.00000000000E+00  0.00000000000E+00  0.45593999997E+02  0.45594000000E+02  0.51100000000E-03 0.  1.
         11   -1    0    0    0    0 -0.00000000000E+00 -0.00000000000E+00 -0.45593999997E+02  0.45594000000E+02  0.51100000000E-03 0. -1.
    9900012    2    1    2    0    0 -0.10377472042E+01 -0.46134475513E-01 -0.56042357251E+00  0.90007694010E+02  0.89999954771E+02 0.  0.
        -12    1    1    2    0    0  0.10377472042E+01  0.46134475513E-01  0.56042357251E+00  0.11803059901E+01  0.00000000000E+00 0.  1.
         11    1    3    3    0    0  0.49320958385E+00  0.38774675844E+01  0.13543638808E+02  0.14096388295E+02  0.51100000000E-03 0. -1.
        -11    1    3    3    0    0 -0.70385433687E+01  0.50339093925E+01  0.29662669416E+02  0.30899114772E+02  0.51100000000E-03 0.  1.
         12    1    3    3    0    0  0.55075865807E+01 -0.89575114525E+01 -0.43766731796E+02  0.45012190943E+02  0.00000000000E+00 0. -1.
</event>
<event>
 7    1  0.2578619E-015  0.9000776E+02  0.7816164E-02  0.1186339E+00
        -11   -1    0    0    0    0  0.00000000000E+00  0.00000000000E+00  0.45593999997E+02  0.45594000000E+02  0.51100000000E-03 0. -1.
         11   -1    0    0    0    0 -0.00000000000E+00 -0.00000000000E+00 -0.45593999997E+02  0.45594000000E+02  0.51100000000E-03 0.  1.
    9900012    2    1    2    0    0  0.32857303378E+00 -0.62986121717E+00  0.94248881746E+00  0.90007758261E+02  0.90000019870E+02 0.  0.
        -12    1    1    2    0    0 -0.32857303378E+00  0.62986121717E+00 -0.94248881746E+00  0.11802417390E+01  0.00000000000E+00 0.  1.
         11    1    3    3    0    0 -0.52825112041E+01  0.38959166484E+01 -0.84554812321E+01  0.10704123237E+02  0.51100000000E-03 0. -1.
        -11    1    3    3    0    0  0.22600309296E+02  0.29765261944E+02 -0.63727998695E+01  0.37912496321E+02  0.51100000000E-03 0.  1.
         12    1    3    3    0    0 -0.16989225058E+02 -0.34291039809E+02  0.15770769919E+02  0.41391138703E+02  0.00000000000E+00 0. -1.
</event>
<event>
 7    1  0.2578619E-015  0.9000777E+02  0.7816164E-02  0.1186339E+00
        -11   -1    0    0    0    0  0.00000000000E+00  0.00000000000E+00  0.45593999997E+02  0.45594000000E+02  0.51100000000E-03 0.  1.
         11   -1    0    0    0    0 -0.00000000000E+00 -0.00000000000E+00 -0.45593999997E+02  0.45594000000E+02  0.51100000000E-03 0. -1.
    9900012    2    1    2    0    0  0.90118990101E+00 -0.76048175794E+00 -0.49734568181E-01  0.90007767282E+02  0.90000029010E+02 0.  0.
        -12    1    1    2    0    0 -0.90118990101E+00  0.76048175794E+00  0.49734568181E-01  0.11802327182E+01  0.00000000000E+00 0.  1.
         11    1    3    3    0    0  0.69813592105E+01 -0.37421644103E+02 -0.14985390405E+02  0.40910643476E+02  0.51100000000E-03 0. -1.
        -11    1    3    3    0    0 -0.46316795529E+01  0.12417201082E+01  0.12702878196E+02  0.13577828952E+02  0.51100000000E-03 0.  1.
        -12    1    3    3    0    0 -0.14484897566E+01  0.35419442237E+02  0.22327776405E+01  0.35519294854E+02  0.00000000000E+00 0.  1.
</event>
<event>
 7    1  0.2578619E-015  0.9000774E+02  0.7816164E-02  0.1186339E+00
        -11   -1    0    0    0    0  0.00000000000E+00  0.00000000000E+00  0.45593999997E+02  0.45594000000E+02  0.51100000000E-03 0.  1.
         11   -1    0    0    0    0 -0.00000000000E+00 -0.00000000000E+00 -0.45593999997E+02  0.45594000000E+02  0.51100000000E-03 0. -1.
    9900012    2    1    2    0    0  0.22082399006E+00 -0.11580247895E+01  0.56877786784E-01  0.90007737432E+02  0.89999998766E+02 0.  0.
        -12    1    1    2    0    0 -0.22082399006E+00  0.11580247895E+01 -0.56877786784E-01  0.11802625684E+01  0.00000000000E+00 0.  1.
         11    1    3    3    0    0  0.42990174765E+00  0.18164184380E+02 -0.28674237439E+02  0.33946049883E+02  0.51100000000E-03 0. -1.
        -11    1    3    3    0    0  0.15480139079E+02 -0.21075613329E+01 -0.37748480487E+01  0.16072523098E+02  0.51100000000E-03 0.  1.
        -12    1    3    3    0    0 -0.15689216837E+02 -0.17214647837E+02  0.32505963274E+02  0.39989164451E+02  0.00000000000E+00 0.  1.
</event>
<event>
 7    1  0.2578619E-015  0.9000769E+02  0.7816164E-02  0.1186339E+00
        -11   -1    0    0    0    0  0.00000000000E+00  0.00000000000E+00  0.45593999997E+02  0.45594000000E+02  0.51100000000E-03 0.  1.
         11   -1    0    0    0    0 -0.00000000000E+00 -0.00000000000E+00 -0.45593999997E+02  0.45594000000E+02  0.51100000000E-03 0. -1.
    9900012    2    1    2    0    0  0.69115124129E+00 -0.61415664609E+00 -0.73365439840E+00  0.90007691904E+02  0.89999952638E+02 0.  0.
        -12    1    1    2    0    0 -0.69115124129E+00  0.61415664609E+00  0.73365439840E+00  0.11803080956E+01  0.00000000000E+00 0.  1.
         11    1    3    3    0    0  0.18530717777E+02  0.14710051128E+02 -0.29907403778E+02  0.38134314029E+02  0.51100000000E-03 0. -1.
        -11    1    3    3    0    0 -0.81074387162E+01  0.11908531040E+01 -0.71023018872E+01  0.10843956197E+02  0.51100000000E-03 0.  1.
        -12    1    3    3    0    0 -0.97321278191E+01 -0.16515060878E+02  0.36276051267E+02  0.41029421678E+02  0.00000000000E+00 0.  1.
</event>
<event>
 7    1  0.2578619E-015  0.9000757E+02  0.7816164E-02  0.1186339E+00
        -11   -1    0    0    0    0  0.00000000000E+00  0.00000000000E+00  0.45593999997E+02  0.45594000000E+02  0.51100000000E-03 0.  1.
         11   -1    0    0    0    0 -0.00000000000E+00 -0.00000000000E+00 -0.45593999997E+02  0.45594000000E+02  0.51100000000E-03 0. -1.
    9900012    2    1    2    0    0  0.69354200671E+00 -0.89909032145E+00 -0.32257620817E+00  0.90007568159E+02  0.89999827259E+02 0.  0.
        -12    1    1    2    0    0 -0.69354200671E+00  0.89909032145E+00  0.32257620817E+00  0.11804318410E+01  0.00000000000E+00 0.  1.
         11    1    3    3    0    0  0.12329988226E+02  0.13928982442E+02 -0.35778502321E+01  0.18943235575E+02  0.51100000000E-03 0. -1.
        -11    1    3    3    0    0 -0.23970539771E+02 -0.39363632710E+01 -0.27187707043E+02  0.36458924110E+02  0.51100000000E-03 0.  1.
         12    1    3    3    0    0  0.12334093551E+02 -0.10891709492E+02  0.30442981067E+02  0.34605408474E+02  0.00000000000E+00 0. -1.
</event>
<event>
 7    1  0.2578619E-015  0.9000815E+02  0.7816164E-02  0.1186338E+00
        -11   -1    0    0    0    0  0.00000000000E+00  0.00000000000E+00  0.45593999997E+02  0.45594000000E+02  0.51100000000E-03 0. -1.
         11   -1    0    0    0    0 -0.00000000000E+00 -0.00000000000E+00 -0.45593999997E+02  0.45594000000E+02  0.51100000000E-03 0.  1.
    9900012    2    1    2    0    0  0.58236455213E+00 -0.87864890726E+00  0.52998006375E+00  0.90008147788E+02  0.90000414538E+02 0.  0.
        -12    1    1    2    0    0 -0.58236455213E+00  0.87864890726E+00 -0.52998006375E+00  0.11798522118E+01  0.00000000000E+00 0.  1.
         11    1    3    3    0    0  0.54164005313E+01  0.13453675087E+01 -0.93459321827E+01  0.10885488371E+02  0.51100000000E-03 0. -1.
        -11    1    3    3    0    0 -0.75824864982E+01  0.37385884714E+02 -0.24518528829E+00  0.38147851754E+02  0.51100000000E-03 0.  1.
         12    1    3    3    0    0  0.27484505191E+01 -0.39609901130E+02  0.10121097535E+02  0.40974807664E+02  0.00000000000E+00 0. -1.
</event>
<event>
 7    1  0.2578619E-015  0.9000789E+02  0.7816164E-02  0.1186339E+00
        -11   -1    0    0    0    0  0.00000000000E+00  0.00000000000E+00  0.45593999997E+02  0.45594000000E+02  0.51100000000E-03 0.  1.
         11   -1    0    0    0    0 -0.00000000000E+00 -0.00000000000E+00 -0.45593999997E+02  0.45594000000E+02  0.51100000000E-03 0. -1.
    9900012    2    1    2    0    0 -0.95770819613E+00 -0.58265468118E-01 -0.68705849276E+00  0.90007894400E+02  0.90000157806E+02 0.  0.
        -12    1    1    2    0    0  0.95770819613E+00  0.58265468118E-01  0.68705849276E+00  0.11801055996E+01  0.00000000000E+00 0.  1.
         11    1    3    3    0    0  0.80472234343E+01 -0.53525168112E+01 -0.69937960209E+01  0.11929812415E+02  0.51100000000E-03 0. -1.
        -11    1    3    3    0    0  0.17111525265E+02 -0.25841456857E+02  0.17934977908E+02  0.35808499302E+02  0.51100000000E-03 0.  1.
         12    1    3    3    0    0 -0.26116456896E+02  0.31135708200E+02 -0.11628240380E+02  0.42269582684E+02  0.00000000000E+00 0. -1.
</event>
<event>
 7    1  0.2578619E-015  0.9000777E+02  0.7816164E-02  0.1186339E+00
        -11   -1    0    0    0    0  0.00000000000E+00  0.00000000000E+00  0.45593999997E+02  0.45594000000E+02  0.51100000000E-03 0.  1.
         11   -1    0    0    0    0 -0.00000000000E+00 -0.00000000000E+00 -0.45593999997E+02  0.45594000000E+02  0.51100000000E-03 0. -1.
    9900012    2    1    2    0    0 -0.79953382913E+00 -0.71621421029E+00  0.49064975957E+00  0.90007765140E+02  0.90000026840E+02 0.  0.
        -12    1    1    2    0    0  0.79953382913E+00  0.71621421029E+00 -0.49064975957E+00  0.11802348603E+01  0.00000000000E+00 0.  1.
         11    1    3    3    0    0 -0.97806205024E+01 -0.39175820736E+01 -0.13633453171E+01  0.10623873937E+02  0.51100000000E-03 0. -1.
        -11    1    3    3    0    0  0.21950924030E+02 -0.18736029893E+02  0.29853960126E+02  0.41522774683E+02  0.51100000000E-03 0.  1.
         12    1    3    3    0    0 -0.12969837356E+02  0.21937397757E+02 -0.27999965049E+02  0.37861116520E+02  0.00000000000E+00 0. -1.
</event>
<event>
 7    1  0.2578619E-015  0.9000766E+02  0.7816164E-02  0.1186339E+00
        -11   -1    0    0    0    0  0.00000000000E+00  0.00000000000E+00  0.45593999997E+02  0.45594000000E+02  0.51100000000E-03 0. -1.
         11   -1    0    0    0    0 -0.00000000000E+00 -0.00000000000E+00 -0.45593999997E+02  0.45594000000E+02  0.51100000000E-03 0.  1.
    9900012    2    1    2    0    0 -0.62233747942E+00 -0.79925807136E+00  0.60587079075E+00  0.90007662414E+02  0.89999922757E+02 0.  0.
        -12    1    1    2    0    0  0.62233747942E+00  0.79925807136E+00 -0.60587079075E+00  0.11803375865E+01  0.00000000000E+00 0.  1.
         11    1    3    3    0    0  0.39520346926E+02 -0.10499470399E+02  0.11427484757E+02  0.42458027604E+02  0.51100000000E-03 0. -1.
        -11    1    3    3    0    0 -0.72124907884E+01  0.87005929726E+00 -0.11322132719E+02  0.13452424173E+02  0.51100000000E-03 0.  1.
        -12    1    3    3    0    0 -0.32930193617E+02  0.88301530307E+01  0.50051875267E+00  0.34097210637E+02  0.00000000000E+00 0.  1.
</event>
<event>
 7    1  0.2578619E-015  0.9000773E+02  0.7816164E-02  0.1186339E+00
        -11   -1    0    0    0    0  0.00000000000E+00  0.00000000000E+00  0.45593999997E+02  0.45594000000E+02  0.51100000000E-03 0.  1.
         11   -1    0    0    0    0 -0.00000000000E+00 -0.00000000000E+00 -0.45593999997E+02  0.45594000000E+02  0.51100000000E-03 0. -1.
    9900012    2    1    2    0    0 -0.11752790057E+01  0.21214940448E-01 -0.10628003446E+00  0.90007734665E+02  0.89999995963E+02 0.  0.
        -12    1    1    2    0    0  0.11752790057E+01 -0.21214940448E-01  0.10628003446E+00  0.11802653349E+01  0.00000000000E+00 0.  1.
         11    1    3    3    0    0  0.33912616098E+02  0.67676364087E+01 -0.13440145275E+02  0.37101265995E+02  0.51100000000E-03 0. -1.
        -11    1    3    3    0    0  0.21314087621E+01 -0.83294805767E+00 -0.88735461743E+01  0.91638707840E+01  0.51100000000E-03 0.  1.
        -12    1    3    3    0    0 -0.37219303866E+02 -0.59134734106E+01  0.22207411414E+02  0.43742597886E+02  0.00000000000E+00 0.  1.
</event>
<event>
 7    1  0.2578619E-015  0.9000778E+02  0.7816164E-02  0.1186339E+00
        -11   -1    0    0    0    0  0.00000000000E+00  0.00000000000E+00  0.45593999997E+02  0.45594000000E+02  0.51100000000E-03 0. -1.
         11   -1    0    0    0    0 -0.00000000000E+00 -0.00000000000E+00 -0.45593999997E+02  0.45594000000E+02  0.51100000000E-03 0.  1.
    9900012    2    1    2    0    0 -0.86765669354E+00  0.74665775554E+00  0.28740535092E+00  0.90007776387E+02  0.90000038235E+02 0.  0.
        -12    1    1    2    0    0  0.86765669354E+00 -0.74665775554E+00 -0.28740535092E+00  0.11802236133E+01  0.00000000000E+00 0.  1.
         11    1    3    3    0    0 -0.83752530814E+01 -0.25218157943E+01 -0.23564766358E+01  0.90585540499E+01  0.51100000000E-03 0. -1.
        -11    1    3    3    0    0  0.29171501854E+02  0.47856947399E+01 -0.29756236781E+02  0.41944165532E+02  0.51100000000E-03 0.  1.
         12    1    3    3    0    0 -0.21663905466E+02 -0.15172211901E+01  0.32400118768E+02  0.39005056805E+02  0.00000000000E+00 0. -1.
</event>
<event>
 7    1  0.3894571E-015  0.9000774E+02  0.7816164E-02  0.1186339E+00
        -11   -1    0    0    0    0  0.00000000000E+00  0.00000000000E+00  0.45593999997E+02  0.45594000000E+02  0.51100000000E-03 0. -1.
         11   -1    0    0    0    0 -0.00000000000E+00 -0.00000000000E+00 -0.45593999997E+02  0.45594000000E+02  0.51100000000E-03 0.  1.
    9900012    2    1    2    0    0  0.84179794512E+00 -0.31604410685E+00  0.76453610809E+00  0.90007735996E+02  0.89999997311E+02 0.  0.
        -12    1    1    2    0    0 -0.84179794512E+00  0.31604410685E+00 -0.76453610809E+00  0.11802640037E+01  0.00000000000E+00 0.  1.
         11    1    3    3    0    0 -0.49656324353E+01  0.75125121338E+01  0.22355089913E+01  0.92786229989E+01  0.51100000000E-03 0. -1.
        -11    1    3    3    0    0 -0.28794678990E+02  0.90838465073E+01 -0.21741128294E+02  0.37206537937E+02  0.51100000000E-03 0.  1.
         12    1    3    3    0    0  0.34602109370E+02 -0.16912402748E+02  0.20270155410E+02  0.43522575061E+02  0.00000000000E+00 0. -1.
</event>
<event>
 7    1  0.2578619E-015  0.9000796E+02  0.7816164E-02  0.1186339E+00
        -11   -1    0    0    0    0  0.00000000000E+00  0.00000000000E+00  0.45593999997E+02  0.45594000000E+02  0.51100000000E-03 0. -1.
         11   -1    0    0    0    0 -0.00000000000E+00 -0.00000000000E+00 -0.45593999997E+02  0.45594000000E+02  0.51100000000E-03 0.  1.
    9900012    2    1    2    0    0 -0.73316936004E+00 -0.27723588351E+00 -0.88210401730E+00  0.90007955703E+02  0.90000219918E+02 0.  0.
        -12    1    1    2    0    0  0.73316936004E+00  0.27723588351E+00  0.88210401730E+00  0.11800442970E+01  0.00000000000E+00 0.  1.
         11    1    3    3    0    0 -0.30278746937E+01 -0.63781434165E+01  0.63760051877E+01  0.95132634262E+01  0.51100000000E-03 0. -1.
        -11    1    3    3    0    0 -0.22875472298E+02  0.91612631154E+01 -0.35068644520E+02  0.42860539001E+02  0.51100000000E-03 0.  1.
         12    1    3    3    0    0  0.25170177632E+02 -0.30603555824E+01  0.27810535315E+02  0.37634153276E+02  0.00000000000E+00 0. -1.
</event>
<event>
 7    1  0.2578619E-015  0.9000770E+02  0.7816164E-02  0.1186339E+00
        -11   -1    0    0    0    0  0.00000000000E+00  0.00000000000E+00  0.45593999997E+02  0.45594000000E+02  0.51100000000E-03 0.  1.
         11   -1    0    0    0    0 -0.00000000000E+00 -0.00000000000E+00 -0.45593999997E+02  0.45594000000E+02  0.51100000000E-03 0. -1.
    9900012    2    1    2    0    0  0.10560040615E+01 -0.45413683456E+00 -0.26781377590E+00  0.90007699589E+02  0.89999960423E+02 0.  0.
        -12    1    1    2    0    0 -0.10560040615E+01  0.45413683456E+00  0.26781377590E+00  0.11803004113E+01  0.00000000000E+00 0.  1.
         11    1    3    3    0    0 -0.10046504775E+02  0.66928699842E+00 -0.23787369551E+01  0.10345945729E+02  0.51100000000E-03 0. -1.
        -11    1    3    3    0    0 -0.27259337367E+02  0.13880814765E+02 -0.16164106162E+02  0.34598075387E+02  0.51100000000E-03 0.  1.
         12    1    3    3    0    0  0.38361846203E+02 -0.15004238598E+02  0.18275029341E+02  0.45063678472E+02  0.00000000000E+00 0. -1.
</event>
<event>
 7    1  0.2578619E-015  0.9000782E+02  0.7816164E-02  0.1186339E+00
        -11   -1    0    0    0    0  0.00000000000E+00  0.00000000000E+00  0.45593999997E+02  0.45594000000E+02  0.51100000000E-03 0.  1.
         11   -1    0    0    0    0 -0.00000000000E+00 -0.00000000000E+00 -0.45593999997E+02  0.45594000000E+02  0.51100000000E-03 0. -1.
    9900012    2    1    2    0    0  0.42584446294E-01 -0.14477447099E+00 -0.11704899877E+01  0.90007822092E+02  0.90000084544E+02 0.  0.
        -12    1    1    2    0    0 -0.42584446294E-01  0.14477447099E+00  0.11704899877E+01  0.11801779077E+01  0.00000000000E+00 0.  1.
         11    1    3    3    0    0 -0.88015140583E+00  0.13504350047E+02  0.21322117731E+01  0.13699943941E+02  0.51100000000E-03 0. -1.
        -11    1    3    3    0    0 -0.83605052893E+01 -0.33928273539E+02  0.22991616900E+02  0.41828701175E+02  0.51100000000E-03 0.  1.
         12    1    3    3    0    0  0.92832411414E+01  0.20279149021E+02 -0.26294318661E+02  0.34479176976E+02  0.00000000000E+00 0. -1.
</event>
<event>
 7    1  0.2578619E-015  0.9000768E+02  0.7816164E-02  0.1186339E+00
        -11   -1    0    0    0    0  0.00000000000E+00  0.00000000000E+00  0.45593999997E+02  0.45594000000E+02  0.51100000000E-03 0. -1.
         11   -1    0    0    0    0 -0.00000000000E+00 -0.00000000000E+00 -0.45593999997E+02  0.45594000000E+02  0.51100000000E-03 0.  1.
    9900012    2    1    2    0    0 -0.10199425847E+01  0.56126868289E+00  0.19454581328E+00  0.90007680770E+02  0.89999941356E+02 0.  0.
        -12    1    1    2    0    0  0.10199425847E+01 -0.56126868289E+00 -0.19454581328E+00  0.11803192297E+01  0.00000000000E+00 0.  1.
         11    1    3    3    0    0 -0.14348683767E+01  0.36053436186E+01 -0.90910713832E+01  0.98845803665E+01  0.51100000000E-03 0. -1.
        -11    1    3    3    0    0 -0.70085244308E+01 -0.33276541749E+02  0.27781983522E+02  0.43912256309E+02  0.51100000000E-03 0.  1.
         12    1    3    3    0    0  0.74234502228E+01  0.30232466813E+02 -0.18496366325E+02  0.36210844095E+02  0.00000000000E+00 0. -1.
</event>
<event>
 7    1  0.2578619E-015  0.9000768E+02  0.7816164E-02  0.1186339E+00
        -11   -1    0    0    0    0  0.00000000000E+00  0.00000000000E+00  0.45593999997E+02  0.45594000000E+02  0.51100000000E-03 0. -1.
         11   -1    0    0    0    0 -0.00000000000E+00 -0.00000000000E+00 -0.45593999997E+02  0.45594000000E+02  0.51100000000E-03 0.  1.
    9900012    2    1    2    0    0  0.96311994895E+00  0.68083728167E+00 -0.44917652700E-01  0.90007679266E+02  0.89999939832E+02 0.  0.
        -12    1    1    2    0    0 -0.96311994895E+00 -0.68083728167E+00  0.44917652700E-01  0.11803207342E+01  0.00000000000E+00 0.  1.
         11    1    3    3    0    0 -0.40450238315E+02 -0.10096982797E+02 -0.14172672294E+02  0.44034480599E+02  0.51100000000E-03 0. -1.
        -11    1    3    3    0    0  0.12073281583E+02  0.67710351163E+00  0.55617479121E+00  0.12105037299E+02  0.51100000000E-03 0.  1.
        -12    1    3    3    0    0  0.29340076682E+02  0.10100716567E+02  0.13571579850E+02  0.33868161368E+02  0.00000000000E+00 0.  1.
</event>
<event>
 7    1  0.2578619E-015  0.9000747E+02  0.7816164E-02  0.1186340E+00
        -11   -1    0    0    0    0  0.00000000000E+00  0.00000000000E+00  0.45593999997E+02  0.45594000000E+02  0.51100000000E-03 0.  1.
         11   -1    0    0    0    0 -0.00000000000E+00 -0.00000000000E+00 -0.45593999997E+02  0.45594000000E+02  0.51100000000E-03 0. -1.
    9900012    2    1    2    0    0  0.10324527088E+00  0.54987961601E+00 -0.10395259712E+01  0.90007474091E+02  0.89999731948E+02 0.  0.
        -12    1    1    2    0    0 -0.10324527088E+00 -0.54987961601E+00  0.10395259712E+01  0.11805259094E+01  0.00000000000E+00 0.  1.
         11    1    3    3    0    0 -0.51929884295E+01 -0.74135790743E+00 -0.36554054114E+02  0.36928520317E+02  0.51100000000E-03 0. -1.
        -11    1    3    3    0    0 -0.23139269509E+01 -0.88662196698E+01 -0.51281723556E+01  0.10500583847E+02  0.51100000000E-03 0.  1.
        -12    1    3    3    0    0  0.76101606513E+01  0.10157457193E+02  0.40642700498E+02  0.42578369926E+02  0.00000000000E+00 0.  1.
</event>
<event>
 7    1  0.2578619E-015  0.9000758E+02  0.7816164E-02  0.1186339E+00
        -11   -1    0    0    0    0  0.00000000000E+00  0.00000000000E+00  0.45593999997E+02  0.45594000000E+02  0.51100000000E-03 0.  1.
         11   -1    0    0    0    0 -0.00000000000E+00 -0.00000000000E+00 -0.45593999997E+02  0.45594000000E+02  0.51100000000E-03 0. -1.
    9900012    2    1    2    0    0  0.98838140711E+00 -0.56483332668E+00 -0.31218292234E+00  0.90007579452E+02  0.89999838701E+02 0.  0.
        -12    1    1    2    0    0 -0.98838140711E+00  0.56483332668E+00  0.31218292234E+00  0.11804205479E+01  0.00000000000E+00 0.  1.
         11    1    3    3    0    0  0.15631399955E+02 -0.23172659055E+02  0.61842958423E+01  0.28627928803E+02  0.51100000000E-03 0. -1.
        -11    1    3    3    0    0  0.92271636427E+01 -0.68755652488E+01  0.14111556511E+02  0.18208513772E+02  0.51100000000E-03 0.  1.
         12    1    3    3    0    0 -0.23870182191E+02  0.29483390977E+02 -0.20608035275E+02  0.43171136877E+02  0.00000000000E+00 0. -1.
</event>
<event>
 7    1  0.2578619E-015  0.9000773E+02  0.7816164E-02  0.1186339E+00
        -11   -1    0    0    0    0  0.00000000000E+00  0.00000000000E+00  0.45593999997E+02  0.45594000000E+02  0.51100000000E-03 0. -1.
         11   -1    0    0    0    0 -0.00000000000E+00 -0.00000000000E+00 -0.45593999997E+02  0.45594000000E+02  0.51100000000E-03 0.  1.
    9900012    2    1    2    0    0 -0.31626653646E+00 -0.85124674972E+00 -0.75391621747E+00  0.90007730872E+02  0.89999992120E+02 0.  0.
        -12    1    1    2    0    0  0.31626653646E+00  0.85124674972E+00  0.75391621747E+00  0.11802691278E+01  0.00000000000E+00 0.  1.
         11    1    3    3    0    0  0.98809097537E+01  0.28620406145E+01  0.17507634422E+02  0.20306179290E+02  0.51100000000E-03 0. -1.
        -11    1    3    3    0    0  0.12726671007E+02  0.26301363976E+02 -0.11129724857E+02  0.31266606429E+02  0.51100000000E-03 0.  1.
         12    1    3    3    0    0 -0.22923847298E+02 -0.30014651340E+02 -0.71318257821E+01  0.38434945154E+02  0.00000000000E+00 0. -1.
</event>
<event>
 7    1  0.2578619E-015  0.9000778E+02  0.7816164E-02  0.1186339E+00
        -11   -1    0    0    0    0  0.00000000000E+00  0.00000000000E+00  0.45593999997E+02  0.45594000000E+02  0.51100000000E-03 0. -1.
         11   -1    0    0    0    0 -0.00000000000E+00 -0.00000000000E+00 -0.45593999997E+02  0.45594000000E+02  0.51100000000E-03 0.  1.
    9900012    2    1    2    0    0 -0.74030730682E+00  0.77924446482E+00  0.48748505777E+00  0.90007780306E+02  0.90000042206E+02 0.  0.
        -12    1    1    2    0    0  0.74030730682E+00 -0.77924446482E+00 -0.48748505777E+00  0.11802196940E+01  0.00000000000E+00 0.  1.
         11    1    3    3    0    0 -0.21297977685E+00  0.64976481315E+01  0.90602319339E+01  0.11151349451E+02  0.51100000000E-03 0. -1.
        -11    1    3    3    0    0 -0.34158649944E+02  0.13179918686E+02 -0.15327786071E+02  0.39692123257E+02  0.51100000000E-03 0.  1.
         12    1    3    3    0    0  0.33631322414E+02 -0.18898322352E+02  0.67550391950E+01  0.39164307597E+02  0.00000000000E+00 0. -1.
</event>
<event>
 7    1  0.2578619E-015  0.9000772E+02  0.7816164E-02  0.1186339E+00
        -11   -1    0    0    0    0  0.00000000000E+00  0.00000000000E+00  0.45593999997E+02  0.45594000000E+02  0.51100000000E-03 0. -1.
         11   -1    0    0    0    0 -0.00000000000E+00 -0.00000000000E+00 -0.45593999997E+02  0.45594000000E+02  0.51100000000E-03 0.  1.
    9900012    2    1    2    0    0 -0.27680780954E+00  0.59316936897E-01  0.11458248575E+01  0.90007722208E+02  0.89999983341E+02 0.  0.
        -12    1    1    2    0    0  0.27680780954E+00 -0.59316936897E-01 -0.11458248575E+01  0.11802777921E+01  0.00000000000E+00 0.  1.
         11    1    3    3    0    0  0.62970908078E+01 -0.32104520717E+01  0.36664894571E+02  0.37339989948E+02  0.51100000000E-03 0. -1.
        -11    1    3    3    0    0 -0.55410202861E+01 -0.25418960729E+01  0.72618654732E+01  0.94814994525E+01  0.51100000000E-03 0.  1.
        -12    1    3    3    0    0 -0.10328783312E+01  0.58116650815E+01 -0.42780935187E+02  0.43186232808E+02  0.00000000000E+00 0.  1.
</event>
<event>
 7    1  0.2578619E-015  0.9000766E+02  0.7816164E-02  0.1186339E+00
        -11   -1    0    0    0    0  0.00000000000E+00  0.00000000000E+00  0.45593999997E+02  0.45594000000E+02  0.51100000000E-03 0.  1.
         11   -1    0    0    0    0 -0.00000000000E+00 -0.00000000000E+00 -0.45593999997E+02  0.45594000000E+02  0.51100000000E-03 0. -1.
    9900012    2    1    2    0    0 -0.87578235534E+00 -0.72497911240E+00 -0.31720774263E+00  0.90007656745E+02  0.89999917014E+02 0.  0.
        -12    1    1    2    0    0  0.87578235534E+00  0.72497911240E+00  0.31720774263E+00  0.11803432549E+01  0.00000000000E+00 0.  1.
         11    1    3    3    0    0  0.70865842723E+01  0.33428506976E+01  0.55980240618E+01  0.96297560245E+01  0.51100000000E-03 0. -1.
        -11    1    3    3    0    0 -0.10445904947E+01 -0.14208471226E+01  0.36892234048E+02  0.36934359466E+02  0.51100000000E-03 0.  1.
         12    1    3    3    0    0 -0.69177761329E+01 -0.26469826874E+01 -0.42807465853E+02  0.43443541254E+02  0.00000000000E+00 0. -1.
</event>
<event>
 7    1  0.2578619E-015  0.9000765E+02  0.7816164E-02  0.1186339E+00
        -11   -1    0    0    0    0  0.00000000000E+00  0.00000000000E+00  0.45593999997E+02  0.45594000000E+02  0.51100000000E-03 0.  1.
         11   -1    0    0    0    0 -0.00000000000E+00 -0.00000000000E+00 -0.45593999997E+02  0.45594000000E+02  0.51100000000E-03 0. -1.
    9900012    2    1    2    0    0 -0.95405971256E+00 -0.30096046758E+00  0.62644113058E+00  0.90007645973E+02  0.89999906100E+02 0.  0.
        -12    1    1    2    0    0  0.95405971256E+00  0.30096046758E+00 -0.62644113058E+00  0.11803540267E+01  0.00000000000E+00 0.  1.
         11    1    3    3    0    0  0.10117287765E+02 -0.17431276529E+01  0.30609297211E+01  0.10712949955E+02  0.51100000000E-03 0. -1.
        -11    1    3    3    0    0  0.25070993503E+02  0.12675792862E+02  0.20736260745E+02  0.34917373181E+02  0.51100000000E-03 0.  1.
         12    1    3    3    0    0 -0.36142340981E+02 -0.11233625676E+02 -0.23170749336E+02  0.44377322837E+02  0.00000000000E+00 0. -1.
</event>
<event>
 7    1  0.2578619E-015  0.9000772E+02  0.7816164E-02  0.1186339E+00
        -11   -1    0    0    0    0  0.00000000000E+00  0.00000000000E+00  0.45593999997E+02  0.45594000000E+02  0.51100000000E-03 0.  1.
         11   -1    0    0    0    0 -0.00000000000E+00 -0.00000000000E+00 -0.45593999997E+02  0.45594000000E+02  0.51100000000E-03 0. -1.
    9900012    2    1    2    0    0 -0.46923842971E+00  0.10309809247E+01  0.33158444842E+00  0.90007722652E+02  0.89999983791E+02 0.  0.
        -12    1    1    2    0    0  0.46923842971E+00 -0.10309809247E+01 -0.33158444842E+00  0.11802773477E+01  0.00000000000E+00 0.  1.
         11    1    3    3    0    0 -0.19900021830E+02  0.50049844402E+01  0.31939008230E+02  0.37962626161E+02  0.51100000000E-03 0. -1.
        -11    1    3    3    0    0 -0.95285534341E+01 -0.24243930984E+01 -0.10038941583E+01  0.98832593907E+01  0.51100000000E-03 0.  1.
        -12    1    3    3    0    0  0.28959336834E+02 -0.15496104171E+01 -0.30603529623E+02  0.42161837101E+02  0.00000000000E+00 0.  1.
</event>
<event>
 7    1  0.2578619E-015  0.9000768E+02  0.7816164E-02  0.1186339E+00
        -11   -1    0    0    0    0  0.00000000000E+00  0.00000000000E+00  0.45593999997E+02  0.45594000000E+02  0.51100000000E-03 0.  1.
         11   -1    0    0    0    0 -0.00000000000E+00 -0.00000000000E+00 -0.45593999997E+02  0.45594000000E+02  0.51100000000E-03 0. -1.
    9900012    2    1    2    0    0  0.16862701686E+00  0.78050581949E+00 -0.86921117240E+00  0.90007681201E+02  0.89999941793E+02 0.  0.
        -12    1    1    2    0    0 -0.16862701686E+00 -0.78050581949E+00  0.86921117240E+00  0.11803187990E+01  0.00000000000E+00 0.  1.
         11    1    3    3    0    0  0.41703857929E+01  0.93132726107E+01 -0.79227022936E-01  0.10204677436E+02  0.51100000000E-03 0. -1.
        -11    1    3    3    0    0 -0.33833832484E+02  0.42598734834E+01 -0.22407463366E+02  0.40804033592E+02  0.51100000000E-03 0.  1.
         12    1    3    3    0    0  0.29832073708E+02 -0.12792640275E+02  0.21617479217E+02  0.38998970173E+02  0.00000000000E+00 0. -1.
</event>
<event>
 7    1  0.2578619E-015  0.9000765E+02  0.7816164E-02  0.1186339E+00
        -11   -1    0    0    0    0  0.00000000000E+00  0.00000000000E+00  0.45593999997E+02  0.45594000000E+02  0.51100000000E-03 0.  1.
         11   -1    0    0    0    0 -0.00000000000E+00 -0.00000000000E+00 -0.45593999997E+02  0.45594000000E+02  0.51100000000E-03 0. -1.
    9900012    2    1    2    0    0 -0.10341195641E+01 -0.44823679420E+00  0.35057325785E+00  0.90007652125E+02  0.89999912333E+02 0.  0.
        -12    1    1    2    0    0  0.10341195641E+01  0.44823679420E+00 -0.35057325785E+00  0.11803478748E+01  0.00000000000E+00 0.  1.
         11    1    3    3    0    0  0.15025841305E+02  0.16836981679E+02 -0.16818798032E+02  0.28144836587E+02  0.51100000000E-03 0. -1.
        -11    1    3    3    0    0  0.72566946860E+01  0.14325910264E+02 -0.49223917222E+01  0.16796465794E+02  0.51100000000E-03 0.  1.
        -12    1    3    3    0    0 -0.23316655556E+02 -0.31611128737E+02  0.22091763012E+02  0.45066349744E+02  0.00000000000E+00 0.  1.
</event>
<event>
 7    1  0.2578619E-015  0.9000778E+02  0.7816164E-02  0.1186339E+00
        -11   -1    0    0    0    0  0.00000000000E+00  0.00000000000E+00  0.45593999997E+02  0.45594000000E+02  0.51100000000E-03 0.  1.
         11   -1    0    0    0    0 -0.00000000000E+00 -0.00000000000E+00 -0.45593999997E+02  0.45594000000E+02  0.51100000000E-03 0. -1.
    9900012    2    1    2    0    0  0.11465123049E+01 -0.54381070491E-01 -0.27470946327E+00  0.90007782624E+02  0.90000044554E+02 0.  0.
        -12    1    1    2    0    0 -0.11465123049E+01  0.54381070491E-01  0.27470946327E+00  0.11802173763E+01  0.00000000000E+00 0.  1.
         11    1    3    3    0    0  0.11172907758E+02 -0.11784461025E+01 -0.15766142732E+01  0.11344968744E+02  0.51100000000E-03 0. -1.
        -11    1    3    3    0    0  0.31979457916E+02  0.13170847888E+02 -0.31956041748E+01  0.34732820919E+02  0.51100000000E-03 0.  1.
         12    1    3    3    0    0 -0.42005853369E+02 -0.12046782856E+02  0.44975089847E+01  0.43929992960E+02  0.00000000000E+00 0. -1.
</event>
<event>
 7    1  0.2578619E-015  0.9000782E+02  0.7816164E-02  0.1186339E+00
        -11   -1    0    0    0    0  0.00000000000E+00  0.00000000000E+00  0.45593999997E+02  0.45594000000E+02  0.51100000000E-03 0.  1.
         11   -1    0    0    0    0 -0.00000000000E+00 -0.00000000000E+00 -0.45593999997E+02  0.45594000000E+02  0.51100000000E-03 0. -1.
    9900012    2    1    2    0    0 -0.29747073208E-01  0.10888470005E+01 -0.45427000817E+00  0.90007816150E+02  0.90000078523E+02 0.  0.
        -12    1    1    2    0    0  0.29747073208E-01 -0.10888470005E+01  0.45427000817E+00  0.11801838497E+01  0.00000000000E+00 0.  1.
         11    1    3    3    0    0  0.94354302517E+01 -0.35021214866E+02 -0.33482913730E+01  0.36424221201E+02  0.51100000000E-03 0. -1.
        -11    1    3    3    0    0  0.20254308840E+01 -0.78034735034E+01  0.12791360949E+01  0.81628890961E+01  0.51100000000E-03 0.  1.
        -12    1    3    3    0    0 -0.11490608209E+02  0.43913535370E+02  0.16148852699E+01  0.45420705853E+02  0.00000000000E+00 0.  1.
</event>
<event>
 7    1  0.2578619E-015  0.9000772E+02  0.7816164E-02  0.1186339E+00
        -11   -1    0    0    0    0  0.00000000000E+00  0.00000000000E+00  0.45593999997E+02  0.45594000000E+02  0.51100000000E-03 0.  1.
         11   -1    0    0    0    0 -0.00000000000E+00 -0.00000000000E+00 -0.45593999997E+02  0.45594000000E+02  0.51100000000E-03 0. -1.
    9900012    2    1    2    0    0 -0.38993697200E-01 -0.22173648275E-01 -0.11794272965E+01  0.90007719980E+02  0.89999981083E+02 0.  0.
        -12    1    1    2    0    0  0.38993697200E-01  0.22173648275E-01  0.11794272965E+01  0.11802800205E+01  0.00000000000E+00 0.  1.
         11    1    3    3    0    0 -0.20949237760E+01 -0.19171027965E+02 -0.39338440919E+02  0.43811299376E+02  0.51100000000E-03 0. -1.
        -11    1    3    3    0    0  0.63173686664E+01  0.13135513400E+01  0.45007516435E+01  0.78671042708E+01  0.51100000000E-03 0.  1.
        -12    1    3    3    0    0 -0.42614385876E+01  0.17835302977E+02  0.33658261979E+02  0.38329316333E+02  0.00000000000E+00 0.  1.
</event>
<event>
 7    1  0.2578619E-015  0.9000771E+02  0.7816164E-02  0.1186339E+00
        -11   -1    0    0    0    0  0.00000000000E+00  0.00000000000E+00  0.45593999997E+02  0.45594000000E+02  0.51100000000E-03 0.  1.
         11   -1    0    0    0    0 -0.00000000000E+00 -0.00000000000E+00 -0.45593999997E+02  0.45594000000E+02  0.51100000000E-03 0. -1.
    9900012    2    1    2    0    0 -0.90330308884E+00 -0.60528005674E+00 -0.45909656249E+00  0.90007707633E+02  0.89999968574E+02 0.  0.
        -12    1    1    2    0    0  0.90330308884E+00  0.60528005674E+00  0.45909656249E+00  0.11802923668E+01  0.00000000000E+00 0.  1.
         11    1    3    3    0    0  0.20266048919E+02  0.34132739835E+02  0.85981171253E+01  0.40616305664E+02  0.51100000000E-03 0. -1.
        -11    1    3    3    0    0 -0.38363973675E+01  0.19982139176E+00  0.63791831153E+01  0.74465999510E+01  0.51100000000E-03 0.  1.
         12    1    3    3    0    0 -0.17332954641E+02 -0.34937841283E+02 -0.15436396803E+02  0.41944802018E+02  0.00000000000E+00 0. -1.
</event>
<event>
 7    1  0.2578619E-015  0.9000783E+02  0.7816164E-02  0.1186339E+00
        -11   -1    0    0    0    0  0.00000000000E+00  0.00000000000E+00  0.45593999997E+02  0.45594000000E+02  0.51100000000E-03 0. -1.
         11   -1    0    0    0    0 -0.00000000000E+00 -0.00000000000E+00 -0.45593999997E+02  0.45594000000E+02  0.51100000000E-03 0.  1.
    9900012    2    1    2    0    0 -0.10381340270E+01  0.56117013527E+00  0.13265347845E-01  0.90007826221E+02  0.90000088727E+02 0.  0.
        -12    1    1    2    0    0  0.10381340270E+01 -0.56117013527E+00 -0.13265347845E-01  0.11801737788E+01  0.00000000000E+00 0.  1.
         11    1    3    3    0    0  0.12861369560E+01 -0.15323940307E-01 -0.89942144790E+01  0.90857183232E+01  0.51100000000E-03 0. -1.
        -11    1    3    3    0    0  0.26078469816E+02  0.10354409460E+02 -0.23544277162E+02  0.36628313782E+02  0.51100000000E-03 0.  1.
         12    1    3    3    0    0 -0.28402740799E+02 -0.97779153846E+01  0.32551756989E+02  0.44293794116E+02  0.00000000000E+00 0. -1.
</event>
<event>
 7    1  0.2578619E-015  0.9000779E+02  0.7816164E-02  0.1186339E+00
        -11   -1    0    0    0    0  0.00000000000E+00  0.00000000000E+00  0.45593999997E+02  0.45594000000E+02  0.51100000000E-03 0.  1.
         11   -1    0    0    0    0 -0.00000000000E+00 -0.00000000000E+00 -0.45593999997E+02  0.45594000000E+02  0.51100000000E-03 0. -1.
    9900012    2    1    2    0    0  0.25341239127E+00 -0.72410248023E+00 -0.89685104648E+00  0.90007794915E+02  0.90000057008E+02 0.  0.
        -12    1    1    2    0    0 -0.25341239127E+00  0.72410248023E+00  0.89685104648E+00  0.11802050845E+01  0.00000000000E+00 0.  1.
         11    1    3    3    0    0  0.63128061592E+01  0.43897771306E+01  0.45733958862E+01  0.89463744083E+01  0.51100000000E-03 0. -1.
        -11    1    3    3    0    0  0.33618993933E+02 -0.13802471617E+02  0.98442433691E+01  0.37651747682E+02  0.51100000000E-03 0.  1.
         12    1    3    3    0    0 -0.39678387700E+02  0.86885920061E+01 -0.15314490302E+02  0.43409672825E+02  0.00000000000E+00 0. -1.
</event>
<event>
 7    1  0.2578619E-015  0.9000777E+02  0.7816164E-02  0.1186339E+00
        -11   -1    0    0    0    0  0.00000000000E+00  0.00000000000E+00  0.45593999997E+02  0.45594000000E+02  0.51100000000E-03 0.  1.
         11   -1    0    0    0    0 -0.00000000000E+00 -0.00000000000E+00 -0.45593999997E+02  0.45594000000E+02  0.51100000000E-03 0. -1.
    9900012    2    1    2    0    0  0.72248669545E+00 -0.72438799617E+00 -0.58840246334E+00  0.90007770169E+02  0.90000031936E+02 0.  0.
        -12    1    1    2    0    0 -0.72248669545E+00  0.72438799617E+00  0.58840246334E+00  0.11802298306E+01  0.00000000000E+00 0.  1.
         11    1    3    3    0    0 -0.46924855566E+01  0.46394948265E+01 -0.81408997151E+01  0.10479436119E+02  0.51100000000E-03 0. -1.
        -11    1    3    3    0    0 -0.20008427502E+02  0.28912137915E+02  0.10657546645E+02  0.36740062475E+02  0.51100000000E-03 0.  1.
         12    1    3    3    0    0  0.25423399754E+02 -0.34276020737E+02 -0.31050493937E+01  0.42788271575E+02  0.00000000000E+00 0. -1.
</event>
<event>
 7    1  0.2578619E-015  0.9000661E+02  0.7816164E-02  0.1186341E+00
        -11   -1    0    0    0    0  0.00000000000E+00  0.00000000000E+00  0.45593999997E+02  0.45594000000E+02  0.51100000000E-03 0. -1.
         11   -1    0    0    0    0 -0.00000000000E+00 -0.00000000000E+00 -0.45593999997E+02  0.45594000000E+02  0.51100000000E-03 0.  1.
    9900012    2    1    2    0    0 -0.74285699310E+00 -0.73426812975E+00 -0.55200265860E+00  0.90006605428E+02  0.89998851813E+02 0.  0.
        -12    1    1    2    0    0  0.74285699310E+00  0.73426812975E+00  0.55200265860E+00  0.11813945715E+01  0.00000000000E+00 0.  1.
         11    1    3    3    0    0  0.67204933994E+01  0.56526320335E+00 -0.31672526382E+01  0.74509089081E+01  0.51100000000E-03 0. -1.
        -11    1    3    3    0    0  0.32762562467E+02  0.15104870287E+02 -0.97812714079E+01  0.37379350936E+02  0.51100000000E-03 0.  1.
         12    1    3    3    0    0 -0.40225912859E+02 -0.16404401620E+02  0.12396521388E+02  0.45176345585E+02  0.00000000000E+00 0. -1.
</event>
<event>
 7    1  0.2578619E-015  0.9000776E+02  0.7816164E-02  0.1186339E+00
        -11   -1    0    0    0    0  0.00000000000E+00  0.00000000000E+00  0.45593999997E+02  0.45594000000E+02  0.51100000000E-03 0.  1.
         11   -1    0    0    0    0 -0.00000000000E+00 -0.00000000000E+00 -0.45593999997E+02  0.45594000000E+02  0.51100000000E-03 0. -1.
    9900012    2    1    2    0    0 -0.38571311125E+00 -0.10872165270E+01 -0.24932043859E+00  0.90007756355E+02  0.90000017939E+02 0.  0.
        -12    1    1    2    0    0  0.38571311125E+00  0.10872165270E+01  0.24932043859E+00  0.11802436452E+01  0.00000000000E+00 0.  1.
         11    1    3    3    0    0  0.33154810905E+02 -0.12864274595E+02  0.63996801240E+01  0.36134290542E+02  0.51100000000E-03 0. -1.
        -11    1    3    3    0    0  0.82536264360E+01 -0.29515111773E+01  0.12730851595E+01  0.88574552586E+01  0.51100000000E-03 0.  1.
        -12    1    3    3    0    0 -0.41794150452E+02  0.14728569245E+02 -0.79220857221E+01  0.45016010554E+02  0.00000000000E+00 0.  1.
</event>
<event>
 7    1  0.2578619E-015  0.9000782E+02  0.7816164E-02  0.1186339E+00
        -11   -1    0    0    0    0  0.00000000000E+00  0.00000000000E+00  0.45593999997E+02  0.45594000000E+02  0.51100000000E-03 0.  1.
         11   -1    0    0    0    0 -0.00000000000E+00 -0.00000000000E+00 -0.45593999997E+02  0.45594000000E+02  0.51100000000E-03 0. -1.
    9900012    2    1    2    0    0  0.11293239352E+01  0.20042155011E+00 -0.27799082199E+00  0.90007821943E+02  0.90000084393E+02 0.  0.
        -12    1    1    2    0    0 -0.11293239352E+01 -0.20042155011E+00  0.27799082199E+00  0.11801780567E+01  0.00000000000E+00 0.  1.
         11    1    3    3    0    0 -0.69280953669E+01 -0.79254888964E+01  0.39631683836E+01  0.11248047989E+02  0.51100000000E-03 0. -1.
        -11    1    3    3    0    0 -0.16070246430E+02  0.86270349044E+01  0.31047293963E+02  0.36008513080E+02  0.51100000000E-03 0.  1.
         12    1    3    3    0    0  0.24127665732E+02 -0.50112445787E+00 -0.35288453168E+02  0.42751260875E+02  0.00000000000E+00 0. -1.
</event>
<event>
 7    1  0.2578619E-015  0.9000769E+02  0.7816164E-02  0.1186339E+00
        -11   -1    0    0    0    0  0.00000000000E+00  0.00000000000E+00  0.45593999997E+02  0.45594000000E+02  0.51100000000E-03 0.  1.
         11   -1    0    0    0    0 -0.00000000000E+00 -0.00000000000E+00 -0.45593999997E+02  0.45594000000E+02  0.51100000000E-03 0. -1.
    9900012    2    1    2    0    0  0.72143781398E+00  0.29665955151E+00 -0.88580621796E+00  0.90007689844E+02  0.89999950550E+02 0.  0.
        -12    1    1    2    0    0 -0.72143781398E+00 -0.29665955151E+00  0.88580621796E+00  0.11803101562E+01  0.00000000000E+00 0.  1.
         11    1    3    3    0    0  0.33172284580E+01 -0.25678386636E+01 -0.70293339684E+01  0.81859230601E+01  0.51100000000E-03 0. -1.
        -11    1    3    3    0    0 -0.23393301496E+02 -0.12054623192E+02 -0.28471921017E+02  0.38771262320E+02  0.51100000000E-03 0.  1.
         12    1    3    3    0    0  0.20797510852E+02  0.14919121407E+02  0.34615448768E+02  0.43050504464E+02  0.00000000000E+00 0. -1.
</event>
<event>
 7    1  0.2578619E-015  0.9000769E+02  0.7816164E-02  0.1186339E+00
        -11   -1    0    0    0    0  0.00000000000E+00  0.00000000000E+00  0.45593999997E+02  0.45594000000E+02  0.51100000000E-03 0.  1.
         11   -1    0    0    0    0 -0.00000000000E+00 -0.00000000000E+00 -0.45593999997E+02  0.45594000000E+02  0.51100000000E-03 0. -1.
    9900012    2    1    2    0    0  0.11050267619E+01  0.41287330903E+00 -0.39822633230E-01  0.90007688873E+02  0.89999949566E+02 0.  0.
        -12    1    1    2    0    0 -0.11050267619E+01 -0.41287330903E+00  0.39822633230E-01  0.11803111268E+01  0.00000000000E+00 0.  1.
         11    1    3    3    0    0 -0.63989290291E+01  0.63236066775E+01 -0.19248546031E+01  0.91999651975E+01  0.51100000000E-03 0. -1.
        -11    1    3    3    0    0  0.19251300062E+02  0.14955351690E+02  0.33323557157E+02  0.41288431311E+02  0.51100000000E-03 0.  1.
         12    1    3    3    0    0 -0.11747344271E+02 -0.20866085059E+02 -0.31438525187E+02  0.39519292365E+02  0.00000000000E+00 0. -1.
</event>
<event>
 7    1  0.2837157E-015  0.9000766E+02  0.7816164E-02  0.1186339E+00
        -11   -1    0    0    0    0  0.00000000000E+00  0.00000000000E+00  0.45593999997E+02  0.45594000000E+02  0.51100000000E-03 0. -1.
         11   -1    0    0    0    0 -0.00000000000E+00 -0.00000000000E+00 -0.45593999997E+02  0.45594000000E+02  0.51100000000E-03 0.  1.
    9900012    2    1    2    0    0 -0.73951788563E+00  0.91369115413E+00 -0.10719420482E+00  0.90007657327E+02  0.89999917604E+02 0.  0.
        -12    1    1    2    0    0  0.73951788563E+00 -0.91369115413E+00  0.10719420482E+00  0.11803426731E+01  0.00000000000E+00 0.  1.
         11    1    3    3    0    0 -0.61039864652E+01 -0.35177521587E+01  0.69404441208E+01  0.98895397199E+01  0.51100000000E-03 0. -1.
        -11    1    3    3    0    0 -0.12329486486E+02 -0.25171226202E+02  0.21518451665E+02  0.35336250902E+02  0.51100000000E-03 0.  1.
         12    1    3    3    0    0  0.17693955065E+02  0.29602669514E+02 -0.28566089991E+02  0.44781866705E+02  0.00000000000E+00 0. -1.
</event>
<event>
 7    1  0.2578619E-015  0.9000771E+02  0.7816164E-02  0.1186339E+00
        -11   -1    0    0    0    0  0.00000000000E+00  0.00000000000E+00  0.45593999997E+02  0.45594000000E+02  0.51100000000E-03 0. -1.
         11   -1    0    0    0    0 -0.00000000000E+00 -0.00000000000E+00 -0.45593999997E+02  0.45594000000E+02  0.51100000000E-03 0.  1.
    9900012    2    1    2    0    0 -0.90808255633E+00  0.13384358319E+00  0.74198914590E+00  0.90007713625E+02  0.89999974645E+02 0.  0.
        -12    1    1    2    0    0  0.90808255633E+00 -0.13384358319E+00 -0.74198914590E+00  0.11802863748E+01  0.00000000000E+00 0.  1.
         11    1    3    3    0    0 -0.39815117923E+01  0.28043323614E+02  0.27996832872E+02  0.39825909740E+02  0.51100000000E-03 0. -1.
        -11    1    3    3    0    0  0.31325837459E+01 -0.58650814466E+01  0.68668477309E+01  0.95585490176E+01  0.51100000000E-03 0.  1.
        -12    1    3    3    0    0 -0.59154509933E-01 -0.22044398584E+02 -0.34121691457E+02  0.40623254868E+02  0.00000000000E+00 0.  1.
</event>
<event>
 7    1  0.2578619E-015  0.9000772E+02  0.7816164E-02  0.1186339E+00
        -11   -1    0    0    0    0  0.00000000000E+00  0.00000000000E+00  0.45593999997E+02  0.45594000000E+02  0.51100000000E-03 0.  1.
         11   -1    0    0    0    0 -0.00000000000E+00 -0.00000000000E+00 -0.45593999997E+02  0.45594000000E+02  0.51100000000E-03 0. -1.
    9900012    2    1    2    0    0  0.21792180995E+00 -0.61391171518E+00 -0.98421475280E+00  0.90007721987E+02  0.89999983117E+02 0.  0.
        -12    1    1    2    0    0 -0.21792180995E+00  0.61391171518E+00  0.98421475280E+00  0.11802780134E+01  0.00000000000E+00 0.  1.
         11    1    3    3    0    0  0.97834303575E+01  0.25369839578E+01 -0.45672881049E+01  0.11091073801E+02  0.51100000000E-03 0. -1.
        -11    1    3    3    0    0  0.15870255878E+02  0.29688629047E+02  0.13401917102E+02  0.36233839137E+02  0.51100000000E-03 0.  1.
         12    1    3    3    0    0 -0.25435764426E+02 -0.32839524720E+02 -0.98188437496E+01  0.42682809049E+02  0.00000000000E+00 0. -1.
</event>
<event>
 7    1  0.2578619E-015  0.9000768E+02  0.7816164E-02  0.1186339E+00
        -11   -1    0    0    0    0  0.00000000000E+00  0.00000000000E+00  0.45593999997E+02  0.45594000000E+02  0.51100000000E-03 0. -1.
         11   -1    0    0    0    0 -0.00000000000E+00 -0.00000000000E+00 -0.45593999997E+02  0.45594000000E+02  0.51100000000E-03 0.  1.
    9900012    2    1    2    0    0  0.57997012865E+00  0.53998724119E+00  0.87475299128E+00  0.90007684633E+02  0.89999945270E+02 0.  0.
        -12    1    1    2    0    0 -0.57997012865E+00 -0.53998724119E+00 -0.87475299128E+00  0.11803153674E+01  0.00000000000E+00 0.  1.
         11    1    3    3    0    0 -0.32889035982E+02  0.23277140806E+02 -0.19303133440E+01  0.40339063968E+02  0.51100000000E-03 0. -1.
        -11    1    3    3    0    0 -0.35252070717E+01 -0.69512819199E+01  0.52104601843E+01  0.93753027056E+01  0.51100000000E-03 0.  1.
        -12    1    3    3    0    0  0.36994213182E+02 -0.15785871645E+02 -0.24053938490E+01  0.40293317959E+02  0.00000000000E+00 0.  1.
</event>
<event>
 7    1  0.2578619E-015  0.9000773E+02  0.7816164E-02  0.1186339E+00
        -11   -1    0    0    0    0  0.00000000000E+00  0.00000000000E+00  0.45593999997E+02  0.45594000000E+02  0.51100000000E-03 0.  1.
         11   -1    0    0    0    0 -0.00000000000E+00 -0.00000000000E+00 -0.45593999997E+02  0.45594000000E+02  0.51100000000E-03 0. -1.
    9900012    2    1    2    0    0  0.37326652851E+00  0.50741664536E+00 -0.99811794411E+00  0.90007729275E+02  0.89999990502E+02 0.  0.
        -12    1    1    2    0    0 -0.37326652851E+00 -0.50741664536E+00  0.99811794411E+00  0.11802707247E+01  0.00000000000E+00 0.  1.
         11    1    3    3    0    0  0.81454942609E+00  0.70034892967E+01 -0.69851643071E+01  0.99249621538E+01  0.51100000000E-03 0. -1.
        -11    1    3    3    0    0 -0.30512809568E+02  0.16652979296E+02  0.19429298943E+02  0.39822743813E+02  0.51100000000E-03 0.  1.
         12    1    3    3    0    0  0.30071526670E+02 -0.23149051947E+02 -0.13442252580E+02  0.40260023308E+02  0.00000000000E+00 0. -1.
</event>
<event>
 7    1  0.2578619E-015  0.9000782E+02  0.7816164E-02  0.1186339E+00
        -11   -1    0    0    0    0  0.00000000000E+00  0.00000000000E+00  0.45593999997E+02  0.45594000000E+02  0.51100000000E-03 0.  1.
         11   -1    0    0    0    0 -0.00000000000E+00 -0.00000000000E+00 -0.45593999997E+02  0.45594000000E+02  0.51100000000E-03 0. -1.
    9900012    2    1    2    0    0 -0.29706258378E+00  0.77340278920E+00 -0.84049151303E+00  0.90007820337E+02  0.90000082766E+02 0.  0.
        -12    1    1    2    0    0  0.29706258378E+00 -0.77340278920E+00  0.84049151303E+00  0.11801796628E+01  0.00000000000E+00 0.  1.
         11    1    3    3    0    0 -0.58044752903E+01  0.21451055776E+01  0.42433656615E+01  0.75033035213E+01  0.51100000000E-03 0. -1.
        -11    1    3    3    0    0 -0.20994595921E+02  0.12221075503E-01  0.31166571254E+02  0.37578296545E+02  0.51100000000E-03 0.  1.
         12    1    3    3    0    0  0.26502008628E+02 -0.13839238639E+01 -0.36250428428E+02  0.44926220271E+02  0.00000000000E+00 0. -1.
</event>
<event>
 7    1  0.2578619E-015  0.9000690E+02  0.7816164E-02  0.1186341E+00
        -11   -1    0    0    0    0  0.00000000000E+00  0.00000000000E+00  0.45593999997E+02  0.45594000000E+02  0.51100000000E-03 0.  1.
         11   -1    0    0    0    0 -0.00000000000E+00 -0.00000000000E+00 -0.45593999997E+02  0.45594000000E+02  0.51100000000E-03 0. -1.
    9900012    2    1    2    0    0  0.20479236659E+00  0.97782672484E+00 -0.63001191035E+00  0.90006898809E+02  0.89999149069E+02 0.  0.
        -12    1    1    2    0    0 -0.20479236659E+00 -0.97782672484E+00  0.63001191035E+00  0.11811011914E+01  0.00000000000E+00 0.  1.
         11    1    3    3    0    0 -0.16704329718E+02 -0.17701169002E+02 -0.31318976768E+02  0.39664144027E+02  0.51100000000E-03 0. -1.
        -11    1    3    3    0    0  0.38824397527E+01  0.12130257073E+02 -0.34713663376E+01  0.13201017370E+02  0.51100000000E-03 0.  1.
        -12    1    3    3    0    0  0.13026682332E+02  0.65487386534E+01  0.34160331195E+02  0.37141737411E+02  0.00000000000E+00 0.  1.
</event>
<event>
 7    1  0.2578619E-015  0.9000778E+02  0.7816164E-02  0.1186339E+00
        -11   -1    0    0    0    0  0.00000000000E+00  0.00000000000E+00  0.45593999997E+02  0.45594000000E+02  0.51100000000E-03 0. -1.
         11   -1    0    0    0    0 -0.00000000000E+00 -0.00000000000E+00 -0.45593999997E+02  0.45594000000E+02  0.51100000000E-03 0.  1.
    9900012    2    1    2    0    0  0.85394030283E+00  0.42657650371E+00  0.69407901198E+00  0.90007776619E+02  0.90000038470E+02 0.  0.
        -12    1    1    2    0    0 -0.85394030283E+00 -0.42657650371E+00 -0.69407901198E+00  0.11802233811E+01  0.00000000000E+00 0.  1.
         11    1    3    3    0    0 -0.14631178927E+02 -0.29884560161E+02  0.22327492161E+02  0.40070877695E+02  0.51100000000E-03 0. -1.
        -11    1    3    3    0    0 -0.78402796162E+01  0.88763700452E+01 -0.49523169716E+00  0.11853488277E+02  0.51100000000E-03 0.  1.
        -12    1    3    3    0    0  0.23325398846E+02  0.21434766619E+02 -0.21138181452E+02  0.38083410646E+02  0.00000000000E+00 0.  1.
</event>
<event>
 7    1  0.2578619E-015  0.9000781E+02  0.7816164E-02  0.1186339E+00
        -11   -1    0    0    0    0  0.00000000000E+00  0.00000000000E+00  0.45593999997E+02  0.45594000000E+02  0.51100000000E-03 0. -1.
         11   -1    0    0    0    0 -0.00000000000E+00 -0.00000000000E+00 -0.45593999997E+02  0.45594000000E+02  0.51100000000E-03 0.  1.
    9900012    2    1    2    0    0  0.10421965871E+01  0.94494270934E-01 -0.54566260264E+00  0.90007809096E+02  0.90000071376E+02 0.  0.
        -12    1    1    2    0    0 -0.10421965871E+01 -0.94494270934E-01  0.54566260264E+00  0.11801909038E+01  0.00000000000E+00 0.  1.
         11    1    3    3    0    0 -0.86398138029E+01  0.66926702960E+01  0.38357452236E+02  0.39883986267E+02  0.51100000000E-03 0. -1.
        -11    1    3    3    0    0  0.68971790945E+01  0.41770074351E+01  0.15123665222E+01  0.82040065415E+01  0.51100000000E-03 0.  1.
        -12    1    3    3    0    0  0.27848312956E+01 -0.10775183460E+02 -0.40415481361E+02  0.41919816288E+02  0.00000000000E+00 0.  1.
</event>
<event>
 7    1  0.2578619E-015  0.9000820E+02  0.7816164E-02  0.1186338E+00
        -11   -1    0    0    0    0  0.00000000000E+00  0.00000000000E+00  0.45593999997E+02  0.45594000000E+02  0.51100000000E-03 0.  1.
         11   -1    0    0    0    0 -0.00000000000E+00 -0.00000000000E+00 -0.45593999997E+02  0.45594000000E+02  0.51100000000E-03 0. -1.
    9900012    2    1    2    0    0  0.35619114726E+00 -0.20290434032E+00 -0.11062923767E+01  0.90008201234E+02  0.90000468689E+02 0.  0.
        -12    1    1    2    0    0 -0.35619114726E+00  0.20290434032E+00  0.11062923767E+01  0.11797987657E+01  0.00000000000E+00 0.  1.
         11    1    3    3    0    0 -0.36550963254E+02  0.21910767580E+02  0.13070980120E+02  0.44574714495E+02  0.51100000000E-03 0. -1.
        -11    1    3    3    0    0  0.69514315981E+01 -0.58090342079E+01 -0.29115498353E+01  0.95154822471E+01  0.51100000000E-03 0.  1.
        -12    1    3    3    0    0  0.29955722803E+02 -0.16304637713E+02 -0.11265722661E+02  0.35918004492E+02  0.00000000000E+00 0.  1.
</event>
<event>
 7    1  0.2578619E-015  0.9000772E+02  0.7816164E-02  0.1186339E+00
        -11   -1    0    0    0    0  0.00000000000E+00  0.00000000000E+00  0.45593999997E+02  0.45594000000E+02  0.51100000000E-03 0.  1.
         11   -1    0    0    0    0 -0.00000000000E+00 -0.00000000000E+00 -0.45593999997E+02  0.45594000000E+02  0.51100000000E-03 0. -1.
    9900012    2    1    2    0    0 -0.67403038015E+00 -0.63473291850E+00 -0.73201849657E+00  0.90007722952E+02  0.89999984095E+02 0.  0.
        -12    1    1    2    0    0  0.67403038015E+00  0.63473291850E+00  0.73201849657E+00  0.11802770482E+01  0.00000000000E+00 0.  1.
         11    1    3    3    0    0 -0.32703729586E+01  0.10940873023E+02 -0.95616123360E+00  0.11459157315E+02  0.51100000000E-03 0. -1.
        -11    1    3    3    0    0 -0.18356199552E+02  0.15311781185E+02  0.26367719484E+02  0.35590129756E+02  0.51100000000E-03 0.  1.
         12    1    3    3    0    0  0.20952542130E+02 -0.26887387126E+02 -0.26143576747E+02  0.42958435881E+02  0.00000000000E+00 0. -1.
</event>
<event>
 7    1  0.2578619E-015  0.9000776E+02  0.7816164E-02  0.1186339E+00
        -11   -1    0    0    0    0  0.00000000000E+00  0.00000000000E+00  0.45593999997E+02  0.45594000000E+02  0.51100000000E-03 0.  1.
         11   -1    0    0    0    0 -0.00000000000E+00 -0.00000000000E+00 -0.45593999997E+02  0.45594000000E+02  0.51100000000E-03 0. -1.
    9900012    2    1    2    0    0 -0.11551480140E+01 -0.67732788377E-01 -0.23238598825E+00  0.90007763620E+02  0.90000025300E+02 0.  0.
        -12    1    1    2    0    0  0.11551480140E+01  0.67732788377E-01  0.23238598825E+00  0.11802363799E+01  0.00000000000E+00 0.  1.
         11    1    3    3    0    0  0.27344031097E+02  0.33309994947E+01 -0.22625974846E+02  0.35647248593E+02  0.51100000000E-03 0. -1.
        -11    1    3    3    0    0  0.65573438285E+01 -0.39665531392E+01 -0.56026403132E+01  0.94932544805E+01  0.51100000000E-03 0.  1.
        -12    1    3    3    0    0 -0.35056522940E+02  0.56782085616E+00  0.27996229171E+02  0.44867260546E+02  0.00000000000E+00 0.  1.
</event>
<event>
 7    1  0.2578619E-015  0.9000782E+02  0.7816164E-02  0.1186339E+00
        -11   -1    0    0    0    0  0.00000000000E+00  0.00000000000E+00  0.45593999997E+02  0.45594000000E+02  0.51100000000E-03 0. -1.
         11   -1    0    0    0    0 -0.00000000000E+00 -0.00000000000E+00 -0.45593999997E+02  0.45594000000E+02  0.51100000000E-03 0.  1.
    9900012    2    1    2    0    0  0.10430810751E+01 -0.33909249405E+00  0.43567918755E+00  0.90007822809E+02  0.90000085270E+02 0.  0.
        -12    1    1    2    0    0 -0.10430810751E+01  0.33909249405E+00 -0.43567918755E+00  0.11801771915E+01  0.00000000000E+00 0.  1.
         11    1    3    3    0    0 -0.10630138194E+02 -0.10152020124E+02 -0.41009767202E+01  0.15260450876E+02  0.51100000000E-03 0. -1.
        -11    1    3    3    0    0  0.27145929637E+02  0.71995567459E+01 -0.27354548571E+02  0.39204673714E+02  0.51100000000E-03 0.  1.
         12    1    3    3    0    0 -0.15472710368E+02  0.26133708843E+01  0.31891204479E+02  0.35542698218E+02  0.00000000000E+00 0. -1.
</event>
<event>
 7    1  0.2578619E-015  0.9000774E+02  0.7816164E-02  0.1186339E+00
        -11   -1    0    0    0    0  0.00000000000E+00  0.00000000000E+00  0.45593999997E+02  0.45594000000E+02  0.51100000000E-03 0. -1.
         11   -1    0    0    0    0 -0.00000000000E+00 -0.00000000000E+00 -0.45593999997E+02  0.45594000000E+02  0.51100000000E-03 0.  1.
    9900012    2    1    2    0    0  0.37831530394E-01 -0.10343155819E+01  0.56724919340E+00  0.90007740878E+02  0.90000002258E+02 0.  0.
        -12    1    1    2    0    0 -0.37831530394E-01  0.10343155819E+01 -0.56724919340E+00  0.11802591220E+01  0.00000000000E+00 0.  1.
         11    1    3    3    0    0  0.63393345664E+01 -0.12509905022E+02 -0.10570374636E+02  0.17561825264E+02  0.51100000000E-03 0. -1.
        -11    1    3    3    0    0 -0.85934719187E+01  0.30678426927E+02 -0.18660754008E+02  0.36922044617E+02  0.51100000000E-03 0.  1.
         12    1    3    3    0    0  0.22919688828E+01 -0.19202837487E+02  0.29798377837E+02  0.35523870997E+02  0.00000000000E+00 0. -1.
</event>
<event>
 7    1  0.2578619E-015  0.9000770E+02  0.7816164E-02  0.1186339E+00
        -11   -1    0    0    0    0  0.00000000000E+00  0.00000000000E+00  0.45593999997E+02  0.45594000000E+02  0.51100000000E-03 0.  1.
         11   -1    0    0    0    0 -0.00000000000E+00 -0.00000000000E+00 -0.45593999997E+02  0.45594000000E+02  0.51100000000E-03 0. -1.
    9900012    2    1    2    0    0  0.38809302338E+00 -0.16614305227E+00 -0.11022171905E+01  0.90007702392E+02  0.89999963263E+02 0.  0.
        -12    1    1    2    0    0 -0.38809302338E+00  0.16614305227E+00  0.11022171905E+01  0.11802976081E+01  0.00000000000E+00 0.  1.
         11    1    3    3    0    0 -0.32473266485E+02 -0.17431479877E+02  0.74046024746E+01  0.37592521396E+02  0.51100000000E-03 0. -1.
        -11    1    3    3    0    0 -0.32664847250E+00 -0.75133928677E+01 -0.80201637466E+01  0.10994580410E+02  0.51100000000E-03 0.  1.
        -12    1    3    3    0    0  0.33188007980E+02  0.24778729692E+02 -0.48665591846E+00  0.41420600585E+02  0.00000000000E+00 0.  1.
</event>
<event>
 7    1  0.2578619E-015  0.9000811E+02  0.7816164E-02  0.1186338E+00
        -11   -1    0    0    0    0  0.00000000000E+00  0.00000000000E+00  0.45593999997E+02  0.45594000000E+02  0.51100000000E-03 0. -1.
         11   -1    0    0    0    0 -0.00000000000E+00 -0.00000000000E+00 -0.45593999997E+02  0.45594000000E+02  0.51100000000E-03 0.  1.
    9900012    2    1    2    0    0  0.63651436304E+00 -0.13526242396E+00  0.98422731246E+00  0.90008105996E+02  0.90000372195E+02 0.  0.
        -12    1    1    2    0    0 -0.63651436304E+00  0.13526242396E+00 -0.98422731246E+00  0.11798940038E+01  0.00000000000E+00 0.  1.
         11    1    3    3    0    0 -0.17252205739E+01  0.95593665048E+01  0.24719997346E+01  0.10023405457E+02  0.51100000000E-03 0. -1.
        -11    1    3    3    0    0 -0.25699771482E+02 -0.51195089072E+01  0.28462300220E+02  0.38688372410E+02  0.51100000000E-03 0.  1.
         12    1    3    3    0    0  0.28061506419E+02 -0.45751200216E+01 -0.29950072642E+02  0.41296328129E+02  0.00000000000E+00 0. -1.
</event>
<event>
 7    1  0.2578619E-015  0.9000771E+02  0.7816164E-02  0.1186339E+00
        -11   -1    0    0    0    0  0.00000000000E+00  0.00000000000E+00  0.45593999997E+02  0.45594000000E+02  0.51100000000E-03 0. -1.
         11   -1    0    0    0    0 -0.00000000000E+00 -0.00000000000E+00 -0.45593999997E+02  0.45594000000E+02  0.51100000000E-03 0.  1.
    9900012    2    1    2    0    0  0.97321294807E+00 -0.64234149091E+00  0.18258074287E+00  0.90007711154E+02  0.89999972141E+02 0.  0.
        -12    1    1    2    0    0 -0.97321294807E+00  0.64234149091E+00 -0.18258074287E+00  0.11802888464E+01  0.00000000000E+00 0.  1.
         11    1    3    3    0    0  0.42689956525E+01  0.76600515752E+01  0.29325305490E+01  0.92466453213E+01  0.51100000000E-03 0. -1.
        -11    1    3    3    0    0 -0.48535225404E+01 -0.56972210658E+01 -0.41360088543E+02  0.42031796696E+02  0.51100000000E-03 0.  1.
         12    1    3    3    0    0  0.15577398359E+01 -0.26051720003E+01  0.38610138737E+02  0.38729269136E+02  0.00000000000E+00 0. -1.
</event>
<event>
 7    1  0.2578619E-015  0.9000755E+02  0.7816164E-02  0.1186339E+00
        -11   -1    0    0    0    0  0.00000000000E+00  0.00000000000E+00  0.45593999997E+02  0.45594000000E+02  0.51100000000E-03 0. -1.
         11   -1    0    0    0    0 -0.00000000000E+00 -0.00000000000E+00 -0.45593999997E+02  0.45594000000E+02  0.51100000000E-03 0.  1.
    9900012    2    1    2    0    0 -0.84872885301E+00  0.14389673023E+00  0.80772926539E+00  0.90007545214E+02  0.89999804011E+02 0.  0.
        -12    1    1    2    0    0  0.84872885301E+00 -0.14389673023E+00 -0.80772926539E+00  0.11804547857E+01  0.00000000000E+00 0.  1.
         11    1    3    3    0    0 -0.35252326678E+01  0.28031023651E+02 -0.26651023084E+02  0.38838673818E+02  0.51100000000E-03 0. -1.
        -11    1    3    3    0    0 -0.88678879405E+01  0.75329913791E+00 -0.12724560251E+01  0.89903304006E+01  0.51100000000E-03 0.  1.
        -12    1    3    3    0    0  0.11544391755E+02 -0.28640426059E+02  0.28731208375E+02  0.42178540995E+02  0.00000000000E+00 0.  1.
</event>
<event>
 7    1  0.2578619E-015  0.9000774E+02  0.7816164E-02  0.1186339E+00
        -11   -1    0    0    0    0  0.00000000000E+00  0.00000000000E+00  0.45593999997E+02  0.45594000000E+02  0.51100000000E-03 0.  1.
         11   -1    0    0    0    0 -0.00000000000E+00 -0.00000000000E+00 -0.45593999997E+02  0.45594000000E+02  0.51100000000E-03 0. -1.
    9900012    2    1    2    0    0  0.67700841978E+00 -0.83654732311E+00 -0.48462143188E+00  0.90007741657E+02  0.90000003047E+02 0.  0.
        -12    1    1    2    0    0 -0.67700841978E+00  0.83654732311E+00  0.48462143188E+00  0.11802583431E+01  0.00000000000E+00 0.  1.
         11    1    3    3    0    0 -0.22179888850E+01  0.35460053178E+02 -0.10235409696E+02  0.36974294557E+02  0.51100000000E-03 0. -1.
        -11    1    3    3    0    0 -0.12457496329E+02 -0.33054918810E+01 -0.49244449281E+01  0.13797305878E+02  0.51100000000E-03 0.  1.
        -12    1    3    3    0    0  0.15352493634E+02 -0.32991108620E+02  0.14675233193E+02  0.39236141222E+02  0.00000000000E+00 0.  1.
</event>
<event>
 7    1  0.2578619E-015  0.9000776E+02  0.7816164E-02  0.1186339E+00
        -11   -1    0    0    0    0  0.00000000000E+00  0.00000000000E+00  0.45593999997E+02  0.45594000000E+02  0.51100000000E-03 0.  1.
         11   -1    0    0    0    0 -0.00000000000E+00 -0.00000000000E+00 -0.45593999997E+02  0.45594000000E+02  0.51100000000E-03 0. -1.
    9900012    2    1    2    0    0 -0.20944762208E+00 -0.11546596251E+01  0.12593887436E+00  0.90007759450E+02  0.90000021075E+02 0.  0.
        -12    1    1    2    0    0  0.20944762208E+00  0.11546596251E+01 -0.12593887436E+00  0.11802405502E+01  0.00000000000E+00 0.  1.
         11    1    3    3    0    0 -0.33544666203E+01  0.88134378407E+01  0.98379406110E+00  0.94814020005E+01  0.51100000000E-03 0. -1.
        -11    1    3    3    0    0 -0.41733730382E+01 -0.28836675537E+02  0.31152455253E+02  0.42654968844E+02  0.51100000000E-03 0.  1.
         12    1    3    3    0    0  0.73183920364E+01  0.18868578072E+02 -0.32010310440E+02  0.37871388605E+02  0.00000000000E+00 0. -1.
</event>
<event>
 7    1  0.2578619E-015  0.9000777E+02  0.7816164E-02  0.1186339E+00
        -11   -1    0    0    0    0  0.00000000000E+00  0.00000000000E+00  0.45593999997E+02  0.45594000000E+02  0.51100000000E-03 0. -1.
         11   -1    0    0    0    0 -0.00000000000E+00 -0.00000000000E+00 -0.45593999997E+02  0.45594000000E+02  0.51100000000E-03 0.  1.
    9900012    2    1    2    0    0 -0.95524083381E+00 -0.28893541299E+00  0.63005888535E+00  0.90007769971E+02  0.90000031734E+02 0.  0.
        -12    1    1    2    0    0  0.95524083381E+00  0.28893541299E+00 -0.63005888535E+00  0.11802300295E+01  0.00000000000E+00 0.  1.
         11    1    3    3    0    0  0.26859805617E+02 -0.15911569983E+02  0.19679004496E+02  0.36903799741E+02  0.51100000000E-03 0. -1.
        -11    1    3    3    0    0 -0.26506221450E+01 -0.84998663983E+01  0.55027468525E+01  0.10466792714E+02  0.51100000000E-03 0.  1.
        -12    1    3    3    0    0 -0.25164424306E+02  0.24122500969E+02 -0.24551692463E+02  0.42637177515E+02  0.00000000000E+00 0.  1.
</event>
<event>
 7    1  0.2578619E-015  0.9000773E+02  0.7816164E-02  0.1186339E+00
        -11   -1    0    0    0    0  0.00000000000E+00  0.00000000000E+00  0.45593999997E+02  0.45594000000E+02  0.51100000000E-03 0.  1.
         11   -1    0    0    0    0 -0.00000000000E+00 -0.00000000000E+00 -0.45593999997E+02  0.45594000000E+02  0.51100000000E-03 0. -1.
    9900012    2    1    2    0    0  0.72817012824E+00  0.82387203341E+00 -0.42898694933E+00  0.90007734494E+02  0.89999995789E+02 0.  0.
        -12    1    1    2    0    0 -0.72817012824E+00 -0.82387203341E+00  0.42898694933E+00  0.11802655065E+01  0.00000000000E+00 0.  1.
         11    1    3    3    0    0  0.16234684551E+02 -0.42787304691E+01  0.11713478186E+02  0.20471396835E+02  0.51100000000E-03 0. -1.
        -11    1    3    3    0    0 -0.14772802656E+02  0.11062170484E+02  0.25466665301E+02  0.31450887999E+02  0.51100000000E-03 0.  1.
         12    1    3    3    0    0 -0.73371176687E+00 -0.59595679814E+01 -0.37609130437E+02  0.38085449659E+02  0.00000000000E+00 0. -1.
</event>
<event>
 7    1  0.2578619E-015  0.9000774E+02  0.7816164E-02  0.1186339E+00
        -11   -1    0    0    0    0  0.00000000000E+00  0.00000000000E+00  0.45593999997E+02  0.45594000000E+02  0.51100000000E-03 0.  1.
         11   -1    0    0    0    0 -0.00000000000E+00 -0.00000000000E+00 -0.45593999997E+02  0.45594000000E+02  0.51100000000E-03 0. -1.
    9900012    2    1    2    0    0 -0.10933238635E+01 -0.20838196057E+00  0.39273788912E+00  0.90007735978E+02  0.89999997293E+02 0.  0.
        -12    1    1    2    0    0  0.10933238635E+01  0.20838196057E+00 -0.39273788912E+00  0.11802640220E+01  0.00000000000E+00 0.  1.
         11    1    3    3    0    0  0.34716555791E+02  0.21121966716E+02  0.16080045024E+01  0.40668936581E+02  0.51100000000E-03 0. -1.
        -11    1    3    3    0    0 -0.55350832247E+01  0.14089464138E+01  0.85075265122E+01  0.10246964620E+02  0.51100000000E-03 0.  1.
        -12    1    3    3    0    0 -0.30274796429E+02 -0.22739295091E+02 -0.97227931256E+01  0.39091834777E+02  0.00000000000E+00 0.  1.
</event>
<event>
 7    1  0.2578619E-015  0.9000775E+02  0.7816164E-02  0.1186339E+00
        -11   -1    0    0    0    0  0.00000000000E+00  0.00000000000E+00  0.45593999997E+02  0.45594000000E+02  0.51100000000E-03 0. -1.
         11   -1    0    0    0    0 -0.00000000000E+00 -0.00000000000E+00 -0.45593999997E+02  0.45594000000E+02  0.51100000000E-03 0.  1.
    9900012    2    1    2    0    0  0.11377180571E+01 -0.28782846948E+00  0.12546641015E+00  0.90007750270E+02  0.90000011773E+02 0.  0.
        -12    1    1    2    0    0 -0.11377180571E+01  0.28782846948E+00 -0.12546641015E+00  0.11802497301E+01  0.00000000000E+00 0.  1.
         11    1    3    3    0    0 -0.19259772418E+01 -0.68510460705E+01 -0.63453043191E+01  0.95346267761E+01  0.51100000000E-03 0. -1.
        -11    1    3    3    0    0  0.32492078724E+01 -0.23953514772E+02 -0.26280887224E+02  0.35707327753E+02  0.51100000000E-03 0.  1.
         12    1    3    3    0    0 -0.18551257345E+00  0.30516732373E+02  0.32751657953E+02  0.44765795741E+02  0.00000000000E+00 0. -1.
</event>
<event>
 7    1  0.2578619E-015  0.9000765E+02  0.7816164E-02  0.1186339E+00
        -11   -1    0    0    0    0  0.00000000000E+00  0.00000000000E+00  0.45593999997E+02  0.45594000000E+02  0.51100000000E-03 0.  1.
         11   -1    0    0    0    0 -0.00000000000E+00 -0.00000000000E+00 -0.45593999997E+02  0.45594000000E+02  0.51100000000E-03 0. -1.
    9900012    2    1    2    0    0 -0.95913674538E+00 -0.68760372798E+00 -0.21905283177E-01  0.90007651736E+02  0.89999911939E+02 0.  0.
        -12    1    1    2    0    0  0.95913674538E+00  0.68760372798E+00  0.21905283177E-01  0.11803482641E+01  0.00000000000E+00 0.  1.
         11    1    3    3    0    0  0.88702470803E+01  0.31559455687E+01 -0.32698166058E+02  0.34026626919E+02  0.51100000000E-03 0. -1.
        -11    1    3    3    0    0 -0.15698140805E+01  0.47544743432E+01 -0.10261964418E+02  0.11418286058E+02  0.51100000000E-03 0.  1.
        -12    1    3    3    0    0 -0.82595697452E+01 -0.85980236399E+01  0.42938225193E+02  0.44562738758E+02  0.00000000000E+00 0.  1.
</event>
<event>
 7    1  0.2578619E-015  0.9000784E+02  0.7816164E-02  0.1186339E+00
        -11   -1    0    0    0    0  0.00000000000E+00  0.00000000000E+00  0.45593999997E+02  0.45594000000E+02  0.51100000000E-03 0.  1.
         11   -1    0    0    0    0 -0.00000000000E+00 -0.00000000000E+00 -0.45593999997E+02  0.45594000000E+02  0.51100000000E-03 0. -1.
    9900012    2    1    2    0    0 -0.26163703696E+00 -0.88619843014E+00 -0.73414279515E+00  0.90007844400E+02  0.90000107146E+02 0.  0.
        -12    1    1    2    0    0  0.26163703696E+00  0.88619843014E+00  0.73414279515E+00  0.11801556001E+01  0.00000000000E+00 0.  1.
         11    1    3    3    0    0  0.64690989312E+01  0.53193467533E+01  0.45507383889E+01  0.95317317948E+01  0.51100000000E-03 0. -1.
        -11    1    3    3    0    0  0.47774940540E+00 -0.22293832221E+02  0.32133497135E+02  0.39112719644E+02  0.51100000000E-03 0.  1.
         12    1    3    3    0    0 -0.72084853736E+01  0.16088287038E+02 -0.37418378319E+02  0.41363392961E+02  0.00000000000E+00 0. -1.
</event>
<event>
 7    1  0.2578619E-015  0.9000778E+02  0.7816164E-02  0.1186339E+00
        -11   -1    0    0    0    0  0.00000000000E+00  0.00000000000E+00  0.45593999997E+02  0.45594000000E+02  0.51100000000E-03 0.  1.
         11   -1    0    0    0    0 -0.00000000000E+00 -0.00000000000E+00 -0.45593999997E+02  0.45594000000E+02  0.51100000000E-03 0. -1.
    9900012    2    1    2    0    0  0.85105028589E+00 -0.55366462018E+00 -0.60173976988E+00  0.90007778897E+02  0.90000040779E+02 0.  0.
        -12    1    1    2    0    0 -0.85105028589E+00  0.55366462018E+00  0.60173976988E+00  0.11802211028E+01  0.00000000000E+00 0.  1.
         11    1    3    3    0    0  0.93586031606E+01  0.28320193267E+01  0.33936539958E+01  0.10349911801E+02  0.51100000000E-03 0. -1.
        -11    1    3    3    0    0  0.41736858881E+01 -0.18622896913E+02  0.32750587089E+02  0.37905578722E+02  0.51100000000E-03 0.  1.
         12    1    3    3    0    0 -0.12681238763E+02  0.15237212966E+02 -0.36745980855E+02  0.41752288374E+02  0.00000000000E+00 0. -1.
</event>
<event>
 7    1  0.2578619E-015  0.9000775E+02  0.7816164E-02  0.1186339E+00
        -11   -1    0    0    0    0  0.00000000000E+00  0.00000000000E+00  0.45593999997E+02  0.45594000000E+02  0.51100000000E-03 0.  1.
         11   -1    0    0    0    0 -0.00000000000E+00 -0.00000000000E+00 -0.45593999997E+02  0.45594000000E+02  0.51100000000E-03 0. -1.
    9900012    2    1    2    0    0  0.19638064761E+00 -0.11444968723E+01 -0.21107375963E+00  0.90007749780E+02  0.90000011277E+02 0.  0.
        -12    1    1    2    0    0 -0.19638064761E+00  0.11444968723E+01  0.21107375963E+00  0.11802502199E+01  0.00000000000E+00 0.  1.
         11    1    3    3    0    0  0.75249546400E+01 -0.29616395937E+01 -0.70067637918E+01  0.10700046286E+02  0.51100000000E-03 0. -1.
        -11    1    3    3    0    0  0.16844501328E+02  0.22435597669E+02  0.29151575843E+02  0.40458715281E+02  0.51100000000E-03 0.  1.
         12    1    3    3    0    0 -0.24173075320E+02 -0.20618454948E+02 -0.22355885811E+02  0.38848988214E+02  0.00000000000E+00 0. -1.
</event>
<event>
 7    1  0.2578619E-015  0.9000765E+02  0.7816164E-02  0.1186339E+00
        -11   -1    0    0    0    0  0.00000000000E+00  0.00000000000E+00  0.45593999997E+02  0.45594000000E+02  0.51100000000E-03 0.  1.
         11   -1    0    0    0    0 -0.00000000000E+00 -0.00000000000E+00 -0.45593999997E+02  0.45594000000E+02  0.51100000000E-03 0. -1.
    9900012    2    1    2    0    0 -0.47782216210E+00 -0.94588468227E+00 -0.51981121721E+00  0.90007654478E+02  0.89999914717E+02 0.  0.
        -12    1    1    2    0    0  0.47782216210E+00  0.94588468227E+00  0.51981121721E+00  0.11803455224E+01  0.00000000000E+00 0.  1.
         11    1    3    3    0    0  0.29886401299E+02 -0.17209917510E+02 -0.15109724863E+02  0.37652118519E+02  0.51100000000E-03 0. -1.
        -11    1    3    3    0    0  0.85862431736E+01  0.32412825214E+01  0.19260880142E+01  0.93775956151E+01  0.51100000000E-03 0.  1.
        -12    1    3    3    0    0 -0.38950466634E+02  0.13022750306E+02  0.12663825631E+02  0.42977940344E+02  0.00000000000E+00 0.  1.
</event>
<event>
 7    1  0.2578619E-015  0.9000776E+02  0.7816164E-02  0.1186339E+00
        -11   -1    0    0    0    0  0.00000000000E+00  0.00000000000E+00  0.45593999997E+02  0.45594000000E+02  0.51100000000E-03 0.  1.
         11   -1    0    0    0    0 -0.00000000000E+00 -0.00000000000E+00 -0.45593999997E+02  0.45594000000E+02  0.51100000000E-03 0. -1.
    9900012    2    1    2    0    0 -0.92327960441E+00  0.89472357612E-01 -0.72973975420E+00  0.90007758228E+02  0.90000019837E+02 0.  0.
        -12    1    1    2    0    0  0.92327960441E+00 -0.89472357612E-01  0.72973975420E+00  0.11802417717E+01  0.00000000000E+00 0.  1.
         11    1    3    3    0    0 -0.26473159748E+02  0.16359925114E+02 -0.19425625327E+02  0.36685559235E+02  0.51100000000E-03 0. -1.
        -11    1    3    3    0    0 -0.60486747210E+00  0.97191232305E+01 -0.34263142873E+01  0.10323122148E+02  0.51100000000E-03 0.  1.
        -12    1    3    3    0    0  0.26154747616E+02 -0.25989575987E+02  0.22122199860E+02  0.42999076845E+02  0.00000000000E+00 0.  1.
</event>
<event>
 7    1  0.2578619E-015  0.9000777E+02  0.7816164E-02  0.1186339E+00
        -11   -1    0    0    0    0  0.00000000000E+00  0.00000000000E+00  0.45593999997E+02  0.45594000000E+02  0.51100000000E-03 0.  1.
         11   -1    0    0    0    0 -0.00000000000E+00 -0.00000000000E+00 -0.45593999997E+02  0.45594000000E+02  0.51100000000E-03 0. -1.
    9900012    2    1    2    0    0  0.87051178930E+00  0.57229318479E-01 -0.79489967104E+00  0.90007774828E+02  0.90000036655E+02 0.  0.
        -12    1    1    2    0    0 -0.87051178930E+00 -0.57229318479E-01  0.79489967104E+00  0.11802251723E+01  0.00000000000E+00 0.  1.
         11    1    3    3    0    0  0.34213436588E+01  0.60626430008E+01  0.42850200241E+01  0.81745109612E+01  0.51100000000E-03 0. -1.
        -11    1    3    3    0    0  0.12231342278E+02  0.32435500455E+02  0.12775306659E+02  0.36944226670E+02  0.51100000000E-03 0.  1.
         12    1    3    3    0    0 -0.14782174148E+02 -0.38440914138E+02 -0.17855226355E+02  0.44889037197E+02  0.00000000000E+00 0. -1.
</event>
<event>
 7    1  0.2578619E-015  0.9000820E+02  0.7816164E-02  0.1186338E+00
        -11   -1    0    0    0    0  0.00000000000E+00  0.00000000000E+00  0.45593999997E+02  0.45594000000E+02  0.51100000000E-03 0. -1.
         11   -1    0    0    0    0 -0.00000000000E+00 -0.00000000000E+00 -0.45593999997E+02  0.45594000000E+02  0.51100000000E-03 0.  1.
    9900012    2    1    2    0    0 -0.36794392440E+00  0.75319050819E+00  0.83021463591E+00  0.90008197044E+02  0.90000464444E+02 0.  0.
        -12    1    1    2    0    0  0.36794392440E+00 -0.75319050819E+00 -0.83021463591E+00  0.11798029559E+01  0.00000000000E+00 0.  1.
         11    1    3    3    0    0  0.25591312590E+02  0.81005522210E+01  0.17806766596E+02  0.32212034447E+02  0.51100000000E-03 0. -1.
        -11    1    3    3    0    0  0.10462407561E+02 -0.19327718100E+01  0.79922291538E+01  0.13306889417E+02  0.51100000000E-03 0.  1.
        -12    1    3    3    0    0 -0.36421664075E+02 -0.54145899028E+01 -0.24968781114E+02  0.44489273180E+02  0.00000000000E+00 0.  1.
</event>
<event>
 7    1  0.2578619E-015  0.9000769E+02  0.7816164E-02  0.1186339E+00
        -11   -1    0    0    0    0  0.00000000000E+00  0.00000000000E+00  0.45593999997E+02  0.45594000000E+02  0.51100000000E-03 0.  1.
         11   -1    0    0    0    0 -0.00000000000E+00 -0.00000000000E+00 -0.45593999997E+02  0.45594000000E+02  0.51100000000E-03 0. -1.
    9900012    2    1    2    0    0  0.61577165647E+00  0.45398569749E+00 -0.89881172270E+00  0.90007686372E+02  0.89999947033E+02 0.  0.
        -12    1    1    2    0    0 -0.61577165647E+00 -0.45398569749E+00  0.89881172270E+00  0.11803136275E+01  0.00000000000E+00 0.  1.
         11    1    3    3    0    0 -0.26412953862E+01  0.21643791100E+02 -0.25746226620E+02  0.33738676914E+02  0.51100000000E-03 0. -1.
        -11    1    3    3    0    0 -0.12450114245E+02 -0.21131020833E+01 -0.81609429042E+01  0.15035675392E+02  0.51100000000E-03 0.  1.
        -12    1    3    3    0    0  0.15707181288E+02 -0.19076703319E+02  0.33008357801E+02  0.41233334067E+02  0.00000000000E+00 0.  1.
</event>
<event>
 7    1  0.2578619E-015  0.9000765E+02  0.7816164E-02  0.1186339E+00
        -11   -1    0    0    0    0  0.00000000000E+00  0.00000000000E+00  0.45593999997E+02  0.45594000000E+02  0.51100000000E-03 0. -1.
         11   -1    0    0    0    0 -0.00000000000E+00 -0.00000000000E+00 -0.45593999997E+02  0.45594000000E+02  0.51100000000E-03 0.  1.
    9900012    2    1    2    0    0  0.64832781355E+00  0.59350078229E+00  0.78781305055E+00  0.90007651943E+02  0.89999912149E+02 0.  0.
        -12    1    1    2    0    0 -0.64832781355E+00 -0.59350078229E+00 -0.78781305055E+00  0.11803480567E+01  0.00000000000E+00 0.  1.
         11    1    3    3    0    0 -0.45939185013E+01 -0.66497703864E+01 -0.28079269257E+01  0.85561666224E+01  0.51100000000E-03 0. -1.
        -11    1    3    3    0    0 -0.31526067340E+01 -0.35349295299E+02 -0.82835679358E+01  0.36443505668E+02  0.51100000000E-03 0.  1.
         12    1    3    3    0    0  0.83948530488E+01  0.42592566467E+02  0.11879307912E+02  0.45007979653E+02  0.00000000000E+00 0. -1.
</event>
<event>
 7    1  0.3193981E-015  0.9000767E+02  0.7816164E-02  0.1186339E+00
        -11   -1    0    0    0    0  0.00000000000E+00  0.00000000000E+00  0.45593999997E+02  0.45594000000E+02  0.51100000000E-03 0. -1.
         11   -1    0    0    0    0 -0.00000000000E+00 -0.00000000000E+00 -0.45593999997E+02  0.45594000000E+02  0.51100000000E-03 0.  1.
    9900012    2    1    2    0    0 -0.74413914314E+00  0.86544012739E+00  0.30076173382E+00  0.90007666446E+02  0.89999926843E+02 0.  0.
        -12    1    1    2    0    0  0.74413914314E+00 -0.86544012739E+00 -0.30076173382E+00  0.11803335541E+01  0.00000000000E+00 0.  1.
         11    1    3    3    0    0  0.73231439995E+01  0.39321388406E+01  0.51809196098E+01  0.97944924403E+01  0.51100000000E-03 0. -1.
        -11    1    3    3    0    0 -0.45095573263E+01  0.33505765403E+02 -0.21308505710E+02  0.39962793175E+02  0.51100000000E-03 0.  1.
         12    1    3    3    0    0 -0.35577258163E+01 -0.36572464116E+02  0.16428347834E+02  0.40250380831E+02  0.00000000000E+00 0. -1.
</event>
<event>
 8    1  0.2578619E-015  0.9000767E+02  0.7816164E-02  0.1186339E+00
        -11   -1    0    0    0    0  0.00000000000E+00  0.00000000000E+00  0.45593999997E+02  0.45594000000E+02  0.51100000000E-03 0.  1.
         11   -1    0    0    0    0 -0.00000000000E+00 -0.00000000000E+00 -0.45593999997E+02  0.45594000000E+02  0.51100000000E-03 0. -1.
    9900012    2    1    2    0    0 -0.52657307339E+00  0.87092335754E+00 -0.59782362475E+00  0.90007669630E+02  0.89999930069E+02 0.  0.
         23    2    3    3    0    0 -0.13315088689E+02  0.37069360441E+01 -0.23456074892E+02  0.63662105475E+02  0.57546878825E+02 0.  0.
        -12    1    1    2    0    0  0.52657307339E+00 -0.87092335754E+00  0.59782362475E+00  0.11803303701E+01  0.00000000000E+00 0.  1.
         11    1    4    4    0    0  0.11861675154E+02  0.75228693451E+01 -0.33471320451E+02  0.36299066016E+02  0.51100000000E-03 0. -1.
        -11    1    4    4    0    0 -0.25176763844E+02 -0.38159333010E+01  0.10015245558E+02  0.27363039459E+02  0.51100000000E-03 0.  1.
        -12    1    3    3    0    0  0.12788515616E+02 -0.28360126866E+01  0.22858251268E+02  0.26345564155E+02  0.00000000000E+00 0.  1.
</event>
<event>
 7    1  0.2578619E-015  0.9000773E+02  0.7816164E-02  0.1186339E+00
        -11   -1    0    0    0    0  0.00000000000E+00  0.00000000000E+00  0.45593999997E+02  0.45594000000E+02  0.51100000000E-03 0.  1.
         11   -1    0    0    0    0 -0.00000000000E+00 -0.00000000000E+00 -0.45593999997E+02  0.45594000000E+02  0.51100000000E-03 0. -1.
    9900012    2    1    2    0    0  0.43459972923E+00 -0.10199585361E+01  0.40478513038E+00  0.90007727429E+02  0.89999988631E+02 0.  0.
        -12    1    1    2    0    0 -0.43459972923E+00  0.10199585361E+01 -0.40478513038E+00  0.11802725710E+01  0.00000000000E+00 0.  1.
         11    1    3    3    0    0 -0.33790987559E+01  0.38673283768E+02  0.10210804939E+02  0.40141022952E+02  0.51100000000E-03 0. -1.
        -11    1    3    3    0    0  0.32981906725E+01 -0.31267980246E+01  0.79933214429E+01  0.91950049239E+01  0.51100000000E-03 0.  1.
        -12    1    3    3    0    0  0.51550781259E+00 -0.36566444280E+02 -0.17799341252E+02  0.40671699554E+02  0.00000000000E+00 0.  1.
</event>
<event>
 7    1  0.2578619E-015  0.9000758E+02  0.7816164E-02  0.1186339E+00
        -11   -1    0    0    0    0  0.00000000000E+00  0.00000000000E+00  0.45593999997E+02  0.45594000000E+02  0.51100000000E-03 0.  1.
         11   -1    0    0    0    0 -0.00000000000E+00 -0.00000000000E+00 -0.45593999997E+02  0.45594000000E+02  0.51100000000E-03 0. -1.
    9900012    2    1    2    0    0 -0.99653047642E+00 -0.51495069522E+00 -0.36762889528E+00  0.90007577104E+02  0.89999836322E+02 0.  0.
        -12    1    1    2    0    0  0.99653047642E+00  0.51495069522E+00  0.36762889528E+00  0.11804228961E+01  0.00000000000E+00 0.  1.
         11    1    3    3    0    0  0.17814828602E+01  0.23558509667E+02 -0.26412388791E+02  0.35437146342E+02  0.51100000000E-03 0. -1.
        -11    1    3    3    0    0 -0.64953147452E+01  0.95495628340E+01 -0.51666600852E+00  0.11560718316E+02  0.51100000000E-03 0.  1.
        -12    1    3    3    0    0  0.37173014086E+01 -0.33623023196E+02  0.26561425904E+02  0.43009712446E+02  0.00000000000E+00 0.  1.
</event>
<event>
 7    1  0.2578619E-015  0.9000774E+02  0.7816164E-02  0.1186339E+00
        -11   -1    0    0    0    0  0.00000000000E+00  0.00000000000E+00  0.45593999997E+02  0.45594000000E+02  0.51100000000E-03 0.  1.
         11   -1    0    0    0    0 -0.00000000000E+00 -0.00000000000E+00 -0.45593999997E+02  0.45594000000E+02  0.51100000000E-03 0. -1.
    9900012    2    1    2    0    0 -0.94529830835E+00 -0.70657467895E+00 -0.13247122514E-01  0.90007740641E+02  0.90000002017E+02 0.  0.
        -12    1    1    2    0    0  0.94529830835E+00  0.70657467895E+00  0.13247122514E-01  0.11802593592E+01  0.00000000000E+00 0.  1.
         11    1    3    3    0    0 -0.36833839538E+01  0.38148492448E+01 -0.51492884390E+01  0.73915873668E+01  0.51100000000E-03 0. -1.
        -11    1    3    3    0    0 -0.33923390429E+02  0.16037378390E+02  0.13276315969E+02  0.39802694504E+02  0.51100000000E-03 0.  1.
         12    1    3    3    0    0  0.36661476074E+02 -0.20558802313E+02 -0.81402746521E+01  0.42813458771E+02  0.00000000000E+00 0. -1.
</event>
<event>
 7    1  0.2578619E-015  0.9000773E+02  0.7816164E-02  0.1186339E+00
        -11   -1    0    0    0    0  0.00000000000E+00  0.00000000000E+00  0.45593999997E+02  0.45594000000E+02  0.51100000000E-03 0.  1.
         11   -1    0    0    0    0 -0.00000000000E+00 -0.00000000000E+00 -0.45593999997E+02  0.45594000000E+02  0.51100000000E-03 0. -1.
    9900012    2    1    2    0    0 -0.27193492858E+00  0.28235025648E+00 -0.11132640097E+01  0.90007734340E+02  0.89999995633E+02 0.  0.
        -12    1    1    2    0    0  0.27193492858E+00 -0.28235025648E+00  0.11132640097E+01  0.11802656600E+01  0.00000000000E+00 0.  1.
         11    1    3    3    0    0 -0.15914352984E+02  0.20673601299E+02  0.26776248690E+02  0.37384915618E+02  0.51100000000E-03 0. -1.
        -11    1    3    3    0    0  0.14534175860E+00  0.35966471588E+01  0.67977254819E+01  0.76919481927E+01  0.51100000000E-03 0.  1.
        -12    1    3    3    0    0  0.15497076297E+02 -0.23987898202E+02 -0.34687238181E+02  0.44930870530E+02  0.00000000000E+00 0.  1.
</event>
<event>
 7    1  0.2578619E-015  0.9000759E+02  0.7816164E-02  0.1186339E+00
        -11   -1    0    0    0    0  0.00000000000E+00  0.00000000000E+00  0.45593999997E+02  0.45594000000E+02  0.51100000000E-03 0.  1.
         11   -1    0    0    0    0 -0.00000000000E+00 -0.00000000000E+00 -0.45593999997E+02  0.45594000000E+02  0.51100000000E-03 0. -1.
    9900012    2    1    2    0    0 -0.11414196851E+01 -0.22617526658E+00 -0.19844660894E+00  0.90007586850E+02  0.89999846196E+02 0.  0.
        -12    1    1    2    0    0  0.11414196851E+01  0.22617526658E+00  0.19844660894E+00  0.11804131503E+01  0.00000000000E+00 0.  1.
         11    1    3    3    0    0  0.24496871600E+01 -0.72115614070E+01  0.40594762800E+01  0.86305812688E+01  0.51100000000E-03 0. -1.
        -11    1    3    3    0    0 -0.71091705751E+01 -0.31541781050E+02  0.17732609585E+02  0.36876411173E+02  0.51100000000E-03 0.  1.
         12    1    3    3    0    0  0.35180637300E+01  0.38527167191E+02 -0.21990532474E+02  0.44500594407E+02  0.00000000000E+00 0. -1.
</event>
<event>
 7    1  0.2578619E-015  0.9000775E+02  0.7816164E-02  0.1186339E+00
        -11   -1    0    0    0    0  0.00000000000E+00  0.00000000000E+00  0.45593999997E+02  0.45594000000E+02  0.51100000000E-03 0.  1.
         11   -1    0    0    0    0 -0.00000000000E+00 -0.00000000000E+00 -0.45593999997E+02  0.45594000000E+02  0.51100000000E-03 0. -1.
    9900012    2    1    2    0    0  0.10258934269E+01  0.47290276464E+00  0.34188738889E+00  0.90007753697E+02  0.90000015246E+02 0.  0.
        -12    1    1    2    0    0 -0.10258934269E+01 -0.47290276464E+00 -0.34188738889E+00  0.11802463026E+01  0.00000000000E+00 0.  1.
         11    1    3    3    0    0  0.16827836473E+02 -0.17923141676E+02 -0.30688668857E+02  0.39321870306E+02  0.51100000000E-03 0. -1.
        -11    1    3    3    0    0  0.41610709588E+01 -0.67712921045E+01  0.65032644382E+01  0.10269243249E+02  0.51100000000E-03 0.  1.
        -12    1    3    3    0    0 -0.19963014005E+02  0.25167336545E+02  0.24527291808E+02  0.40416640142E+02  0.00000000000E+00 0.  1.
</event>
<event>
 7    1  0.2578619E-015  0.9000788E+02  0.7816164E-02  0.1186339E+00
        -11   -1    0    0    0    0  0.00000000000E+00  0.00000000000E+00  0.45593999997E+02  0.45594000000E+02  0.51100000000E-03 0.  1.
         11   -1    0    0    0    0 -0.00000000000E+00 -0.00000000000E+00 -0.45593999997E+02  0.45594000000E+02  0.51100000000E-03 0. -1.
    9900012    2    1    2    0    0 -0.21451276234E+00 -0.86774707875E-01 -0.11572061033E+01  0.90007884946E+02  0.90000148227E+02 0.  0.
        -12    1    1    2    0    0  0.21451276234E+00  0.86774707875E-01  0.11572061033E+01  0.11801150540E+01  0.00000000000E+00 0.  1.
         11    1    3    3    0    0  0.85273718011E+01  0.24718866636E+02 -0.36001140735E+02  0.44495174706E+02  0.51100000000E-03 0. -1.
        -11    1    3    3    0    0  0.21855877402E+01 -0.75229222233E+01  0.48557674586E+01  0.92168123785E+01  0.51100000000E-03 0.  1.
        -12    1    3    3    0    0 -0.10927472304E+02 -0.17282719121E+02  0.29988167174E+02  0.36295897862E+02  0.00000000000E+00 0.  1.
</event>
<event>
 7    1  0.2578619E-015  0.9000790E+02  0.7816164E-02  0.1186339E+00
        -11   -1    0    0    0    0  0.00000000000E+00  0.00000000000E+00  0.45593999997E+02  0.45594000000E+02  0.51100000000E-03 0.  1.
         11   -1    0    0    0    0 -0.00000000000E+00 -0.00000000000E+00 -0.45593999997E+02  0.45594000000E+02  0.51100000000E-03 0. -1.
    9900012    2    1    2    0    0  0.51017657931E+00 -0.75331661139E+00 -0.75157630288E+00  0.90007901276E+02  0.90000164773E+02 0.  0.
        -12    1    1    2    0    0 -0.51017657931E+00  0.75331661139E+00  0.75157630288E+00  0.11800987239E+01  0.00000000000E+00 0.  1.
         11    1    3    3    0    0 -0.15548719807E+02  0.22525102322E+02 -0.15184114834E+02  0.31300163990E+02  0.51100000000E-03 0. -1.
        -11    1    3    3    0    0  0.21406551213E+01  0.15193206134E+02  0.56000960511E-01  0.15343371642E+02  0.51100000000E-03 0.  1.
        -12    1    3    3    0    0  0.13918241265E+02 -0.38471625067E+02  0.14376537571E+02  0.43364365644E+02  0.00000000000E+00 0.  1.
</event>
<event>
 7    1  0.2578619E-015  0.9000768E+02  0.7816164E-02  0.1186339E+00
        -11   -1    0    0    0    0  0.00000000000E+00  0.00000000000E+00  0.45593999997E+02  0.45594000000E+02  0.51100000000E-03 0. -1.
         11   -1    0    0    0    0 -0.00000000000E+00 -0.00000000000E+00 -0.45593999997E+02  0.45594000000E+02  0.51100000000E-03 0.  1.
    9900012    2    1    2    0    0 -0.11320821220E+01  0.22060924878E+00  0.25076440254E+00  0.90007677520E+02  0.89999938063E+02 0.  0.
        -12    1    1    2    0    0  0.11320821220E+01 -0.22060924878E+00 -0.25076440254E+00  0.11803224801E+01  0.00000000000E+00 0.  1.
         11    1    3    3    0    0  0.33323406395E+02  0.14366287234E+02  0.10023490304E+02  0.37647177594E+02  0.51100000000E-03 0. -1.
        -11    1    3    3    0    0  0.15807470907E+01  0.78309456629E+01 -0.59849549492E+01  0.99820918321E+01  0.51100000000E-03 0.  1.
        -12    1    3    3    0    0 -0.36036235608E+02 -0.21976623648E+02 -0.37877709522E+01  0.42378408094E+02  0.00000000000E+00 0.  1.
</event>
<event>
 7    1  0.2578619E-015  0.9000786E+02  0.7816164E-02  0.1186339E+00
        -11   -1    0    0    0    0  0.00000000000E+00  0.00000000000E+00  0.45593999997E+02  0.45594000000E+02  0.51100000000E-03 0.  1.
         11   -1    0    0    0    0 -0.00000000000E+00 -0.00000000000E+00 -0.45593999997E+02  0.45594000000E+02  0.51100000000E-03 0. -1.
    9900012    2    1    2    0    0  0.31549495552E-01 -0.11068373032E+01 -0.40821346841E+00  0.90007863388E+02  0.90000126385E+02 0.  0.
        -12    1    1    2    0    0 -0.31549495552E-01  0.11068373032E+01  0.40821346841E+00  0.11801366117E+01  0.00000000000E+00 0.  1.
         11    1    3    3    0    0 -0.36341415790E+02 -0.87751592061E+01 -0.76347916828E+01  0.38157462769E+02  0.51100000000E-03 0. -1.
        -11    1    3    3    0    0 -0.10943815131E+01  0.10413844997E+02 -0.59441989228E+01  0.12040736672E+02  0.51100000000E-03 0.  1.
        -12    1    3    3    0    0  0.37467346798E+02 -0.27455230941E+01  0.13170777137E+02  0.39809663947E+02  0.00000000000E+00 0.  1.
</event>
<event>
 7    1  0.2578619E-015  0.9000787E+02  0.7816164E-02  0.1186339E+00
        -11   -1    0    0    0    0  0.00000000000E+00  0.00000000000E+00  0.45593999997E+02  0.45594000000E+02  0.51100000000E-03 0. -1.
         11   -1    0    0    0    0 -0.00000000000E+00 -0.00000000000E+00 -0.45593999997E+02  0.45594000000E+02  0.51100000000E-03 0.  1.
    9900012    2    1    2    0    0 -0.95848447459E+00 -0.32960934270E+00  0.60446537466E+00  0.90007867297E+02  0.90000130346E+02 0.  0.
        -12    1    1    2    0    0  0.95848447459E+00  0.32960934270E+00 -0.60446537466E+00  0.11801327027E+01  0.00000000000E+00 0.  1.
         11    1    3    3    0    0  0.26844741215E+02 -0.17658964050E+02 -0.11130356537E+02  0.34005352214E+02  0.51100000000E-03 0. -1.
        -11    1    3    3    0    0  0.75935247422E+01  0.13257870412E+02 -0.57357582520E+01  0.16319671224E+02  0.51100000000E-03 0.  1.
        -12    1    3    3    0    0 -0.35396750432E+02  0.40714842957E+01  0.17470580164E+02  0.39682843860E+02  0.00000000000E+00 0.  1.
</event>
<event>
 7    1  0.2578619E-015  0.9000666E+02  0.7816164E-02  0.1186341E+00
        -11   -1    0    0    0    0  0.00000000000E+00  0.00000000000E+00  0.45593999997E+02  0.45594000000E+02  0.51100000000E-03 0.  1.
         11   -1    0    0    0    0 -0.00000000000E+00 -0.00000000000E+00 -0.45593999997E+02  0.45594000000E+02  0.51100000000E-03 0. -1.
    9900012    2    1    2    0    0  0.18521807174E+00  0.72856532897E+00 -0.91129521063E+00  0.90006656640E+02  0.89998903701E+02 0.  0.
        -12    1    1    2    0    0 -0.18521807174E+00 -0.72856532897E+00  0.91129521063E+00  0.11813433597E+01  0.00000000000E+00 0.  1.
         11    1    3    3    0    0  0.28208393900E+01  0.42862555075E+01 -0.80114495185E+01  0.95138028563E+01  0.51100000000E-03 0. -1.
        -11    1    3    3    0    0 -0.13846319998E+02  0.34672746143E+02  0.14350561688E+02  0.39998231506E+02  0.51100000000E-03 0.  1.
         12    1    3    3    0    0  0.11210698680E+02 -0.38230436322E+02 -0.72504073804E+01  0.40494622278E+02  0.00000000000E+00 0. -1.
</event>
<event>
 7    1  0.2578619E-015  0.9000781E+02  0.7816164E-02  0.1186339E+00
        -11   -1    0    0    0    0  0.00000000000E+00  0.00000000000E+00  0.45593999997E+02  0.45594000000E+02  0.51100000000E-03 0. -1.
         11   -1    0    0    0    0 -0.00000000000E+00 -0.00000000000E+00 -0.45593999997E+02  0.45594000000E+02  0.51100000000E-03 0.  1.
    9900012    2    1    2    0    0 -0.34996432064E+00 -0.51880548558E+00  0.10006108948E+01  0.90007806660E+02  0.90000068908E+02 0.  0.
        -12    1    1    2    0    0  0.34996432064E+00  0.51880548558E+00 -0.10006108948E+01  0.11801933403E+01  0.00000000000E+00 0.  1.
         11    1    3    3    0    0  0.22064641348E+02  0.63565232027E+01  0.30860289427E+02  0.38465715239E+02  0.51100000000E-03 0. -1.
        -11    1    3    3    0    0 -0.55942145392E+01  0.24840943449E+01  0.74003083795E+01  0.96036724953E+01  0.51100000000E-03 0.  1.
        -12    1    3    3    0    0 -0.16820391130E+02 -0.93594230331E+01 -0.37259986912E+02  0.41938418925E+02  0.00000000000E+00 0.  1.
</event>
<event>
 7    1  0.2578619E-015  0.9000779E+02  0.7816164E-02  0.1186339E+00
        -11   -1    0    0    0    0  0.00000000000E+00  0.00000000000E+00  0.45593999997E+02  0.45594000000E+02  0.51100000000E-03 0. -1.
         11   -1    0    0    0    0 -0.00000000000E+00 -0.00000000000E+00 -0.45593999997E+02  0.45594000000E+02  0.51100000000E-03 0.  1.
    9900012    2    1    2    0    0  0.76591971040E+00 -0.89374840314E+00 -0.86458603697E-01  0.90007790569E+02  0.90000052604E+02 0.  0.
        -12    1    1    2    0    0 -0.76591971040E+00  0.89374840314E+00  0.86458603697E-01  0.11802094310E+01  0.00000000000E+00 0.  1.
         11    1    3    3    0    0  0.98364212083E+01  0.23350640787E+01  0.16102725047E+01  0.10237220533E+02  0.51100000000E-03 0. -1.
        -11    1    3    3    0    0 -0.75861308348E+01  0.11453785794E+02  0.36404895014E+02  0.38910859298E+02  0.51100000000E-03 0.  1.
         12    1    3    3    0    0 -0.14843706631E+01 -0.14682598276E+02 -0.38101626123E+02  0.40859710738E+02  0.00000000000E+00 0. -1.
</event>
<event>
 7    1  0.2578619E-015  0.9000784E+02  0.7816164E-02  0.1186339E+00
        -11   -1    0    0    0    0  0.00000000000E+00  0.00000000000E+00  0.45593999997E+02  0.45594000000E+02  0.51100000000E-03 0. -1.
         11   -1    0    0    0    0 -0.00000000000E+00 -0.00000000000E+00 -0.45593999997E+02  0.45594000000E+02  0.51100000000E-03 0.  1.
    9900012    2    1    2    0    0  0.59848611479E-01 -0.49666773676E+00  0.10688876814E+01  0.90007838328E+02  0.90000100994E+02 0.  0.
        -12    1    1    2    0    0 -0.59848611479E-01  0.49666773676E+00 -0.10688876814E+01  0.11801616722E+01  0.00000000000E+00 0.  1.
         11    1    3    3    0    0 -0.15333617576E+01 -0.11586948604E+02  0.38136574830E+02  0.39887428048E+02  0.51100000000E-03 0. -1.
        -11    1    3    3    0    0 -0.88798237354E+01  0.16328299758E+01  0.14087353476E+01  0.91379395294E+01  0.51100000000E-03 0.  1.
        -12    1    3    3    0    0  0.10473034105E+02  0.94574508910E+01 -0.38476422496E+02  0.40982470751E+02  0.00000000000E+00 0.  1.
</event>
<event>
 7    1  0.2578619E-015  0.9000781E+02  0.7816164E-02  0.1186339E+00
        -11   -1    0    0    0    0  0.00000000000E+00  0.00000000000E+00  0.45593999997E+02  0.45594000000E+02  0.51100000000E-03 0.  1.
         11   -1    0    0    0    0 -0.00000000000E+00 -0.00000000000E+00 -0.45593999997E+02  0.45594000000E+02  0.51100000000E-03 0. -1.
    9900012    2    1    2    0    0 -0.71863752140E+00  0.30367675241E+00 -0.88554030544E+00  0.90007813112E+02  0.90000075445E+02 0.  0.
        -12    1    1    2    0    0  0.71863752140E+00 -0.30367675241E+00  0.88554030544E+00  0.11801868876E+01  0.00000000000E+00 0.  1.
         11    1    3    3    0    0 -0.10808804580E+02  0.40909734463E+01  0.13467316128E+02  0.17746405950E+02  0.51100000000E-03 0. -1.
        -11    1    3    3    0    0 -0.17551559586E+02  0.25706780019E+01  0.20641145570E+02  0.27216217960E+02  0.51100000000E-03 0.  1.
         12    1    3    3    0    0  0.27641726645E+02 -0.63579746958E+01 -0.34994002003E+02  0.45045189203E+02  0.00000000000E+00 0. -1.
</event>
<event>
 7    1  0.2578619E-015  0.9000774E+02  0.7816164E-02  0.1186339E+00
        -11   -1    0    0    0    0  0.00000000000E+00  0.00000000000E+00  0.45593999997E+02  0.45594000000E+02  0.51100000000E-03 0. -1.
         11   -1    0    0    0    0 -0.00000000000E+00 -0.00000000000E+00 -0.45593999997E+02  0.45594000000E+02  0.51100000000E-03 0.  1.
    9900012    2    1    2    0    0  0.54724916868E+00 -0.13805047790E+00  0.10365648068E+01  0.90007743170E+02  0.90000004579E+02 0.  0.
        -12    1    1    2    0    0 -0.54724916868E+00  0.13805047790E+00 -0.10365648068E+01  0.11802568304E+01  0.00000000000E+00 0.  1.
         11    1    3    3    0    0 -0.11906314858E+02  0.25221497919E+02  0.10467780474E+02  0.29790245368E+02  0.51100000000E-03 0. -1.
        -11    1    3    3    0    0  0.69676011066E+01  0.16079651962E+02 -0.84952446209E+00  0.17544924180E+02  0.51100000000E-03 0.  1.
        -12    1    3    3    0    0  0.54859629199E+01 -0.41439200359E+02 -0.85816912050E+01  0.42672573622E+02  0.00000000000E+00 0.  1.
</event>
<event>
 7    1  0.2578619E-015  0.9000782E+02  0.7816164E-02  0.1186339E+00
        -11   -1    0    0    0    0  0.00000000000E+00  0.00000000000E+00  0.45593999997E+02  0.45594000000E+02  0.51100000000E-03 0.  1.
         11   -1    0    0    0    0 -0.00000000000E+00 -0.00000000000E+00 -0.45593999997E+02  0.45594000000E+02  0.51100000000E-03 0. -1.
    9900012    2    1    2    0    0  0.77050826751E+00  0.88507566802E+00  0.12558921216E+00  0.90007824344E+02  0.90000086825E+02 0.  0.
        -12    1    1    2    0    0 -0.77050826751E+00 -0.88507566802E+00 -0.12558921216E+00  0.11801756558E+01  0.00000000000E+00 0.  1.
         11    1    3    3    0    0  0.41657173061E+01 -0.82107844110E+01  0.56989961709E+01  0.10828145683E+02  0.51100000000E-03 0. -1.
        -11    1    3    3    0    0  0.28720094311E+02  0.52764171185E+01  0.22094813757E+02  0.36617826124E+02  0.51100000000E-03 0.  1.
         12    1    3    3    0    0 -0.32115303350E+02  0.38194429605E+01 -0.27668220716E+02  0.42561852537E+02  0.00000000000E+00 0. -1.
</event>
<event>
 7    1  0.2578619E-015  0.9000758E+02  0.7816164E-02  0.1186339E+00
        -11   -1    0    0    0    0  0.00000000000E+00  0.00000000000E+00  0.45593999997E+02  0.45594000000E+02  0.51100000000E-03 0.  1.
         11   -1    0    0    0    0 -0.00000000000E+00 -0.00000000000E+00 -0.45593999997E+02  0.45594000000E+02  0.51100000000E-03 0. -1.
    9900012    2    1    2    0    0 -0.10913341813E+01  0.29882248314E+00 -0.33629139145E+00  0.90007577588E+02  0.89999836812E+02 0.  0.
        -12    1    1    2    0    0  0.10913341813E+01 -0.29882248314E+00  0.33629139145E+00  0.11804224124E+01  0.00000000000E+00 0.  1.
         11    1    3    3    0    0 -0.35415443814E+01 -0.17448066051E+02 -0.30869588454E+02  0.35635783099E+02  0.51100000000E-03 0. -1.
        -11    1    3    3    0    0  0.10550710174E+01 -0.40984246679E+01 -0.85702848595E+01  0.95582447366E+01  0.51100000000E-03 0.  1.
        -12    1    3    3    0    0  0.13951391827E+01  0.21845313202E+02  0.39103581922E+02  0.44813549752E+02  0.00000000000E+00 0.  1.
</event>
<event>
 7    1  0.2578619E-015  0.9000775E+02  0.7816164E-02  0.1186339E+00
        -11   -1    0    0    0    0  0.00000000000E+00  0.00000000000E+00  0.45593999997E+02  0.45594000000E+02  0.51100000000E-03 0.  1.
         11   -1    0    0    0    0 -0.00000000000E+00 -0.00000000000E+00 -0.45593999997E+02  0.45594000000E+02  0.51100000000E-03 0. -1.
    9900012    2    1    2    0    0  0.37966130190E+00 -0.21573232060E+00 -0.10965026967E+01  0.90007745238E+02  0.90000006676E+02 0.  0.
        -12    1    1    2    0    0 -0.37966130190E+00  0.21573232060E+00  0.10965026967E+01  0.11802547616E+01  0.00000000000E+00 0.  1.
         11    1    3    3    0    0  0.22253525188E+01 -0.11617682424E+01 -0.43319134782E+02  0.43391811875E+02  0.51100000000E-03 0. -1.
        -11    1    3    3    0    0 -0.65044627650E+01  0.45151480769E+01  0.60355086995E+01  0.99560013831E+01  0.51100000000E-03 0.  1.
        -12    1    3    3    0    0  0.46587715481E+01 -0.35691121551E+01  0.36187123385E+02  0.36659931981E+02  0.00000000000E+00 0.  1.
</event>
<event>
 7    1  0.2578619E-015  0.9000770E+02  0.7816164E-02  0.1186339E+00
        -11   -1    0    0    0    0  0.00000000000E+00  0.00000000000E+00  0.45593999997E+02  0.45594000000E+02  0.51100000000E-03 0.  1.
         11   -1    0    0    0    0 -0.00000000000E+00 -0.00000000000E+00 -0.45593999997E+02  0.45594000000E+02  0.51100000000E-03 0. -1.
    9900012    2    1    2    0    0 -0.20057138006E+00 -0.32911275051E-01 -0.11626647138E+01  0.90007702890E+02  0.89999963768E+02 0.  0.
        -12    1    1    2    0    0  0.20057138006E+00  0.32911275051E-01  0.11626647138E+01  0.11802971097E+01  0.00000000000E+00 0.  1.
         11    1    3    3    0    0  0.10752763600E+01 -0.91561928432E+01 -0.44034251334E+01  0.10216762687E+02  0.51100000000E-03 0. -1.
        -11    1    3    3    0    0 -0.28040202416E+02 -0.10041736676E+02  0.26191063374E+02  0.39661835912E+02  0.51100000000E-03 0.  1.
         12    1    3    3    0    0  0.26764354676E+02  0.19165018244E+02 -0.22950302954E+02  0.40129104291E+02  0.00000000000E+00 0. -1.
</event>
<event>
 7    1  0.2578619E-015  0.9000777E+02  0.7816164E-02  0.1186339E+00
        -11   -1    0    0    0    0  0.00000000000E+00  0.00000000000E+00  0.45593999997E+02  0.45594000000E+02  0.51100000000E-03 0.  1.
         11   -1    0    0    0    0 -0.00000000000E+00 -0.00000000000E+00 -0.45593999997E+02  0.45594000000E+02  0.51100000000E-03 0. -1.
    9900012    2    1    2    0    0  0.10129381706E+01  0.36939616743E+00 -0.48003536962E+00  0.90007774927E+02  0.90000036756E+02 0.  0.
        -12    1    1    2    0    0 -0.10129381706E+01 -0.36939616743E+00  0.48003536962E+00  0.11802250726E+01  0.00000000000E+00 0.  1.
         11    1    3    3    0    0  0.10319534736E+02 -0.34936437149E+02 -0.17081004983E+02  0.40234415235E+02  0.51100000000E-03 0. -1.
        -11    1    3    3    0    0  0.28321162812E+00  0.60087164501E+01 -0.82270291385E+01  0.10191608848E+02  0.51100000000E-03 0.  1.
        -12    1    3    3    0    0 -0.95898081931E+01  0.29297116866E+02  0.24827998752E+02  0.39581750844E+02  0.00000000000E+00 0.  1.
</event>
<event>
 7    1  0.2578619E-015  0.9000790E+02  0.7816164E-02  0.1186339E+00
        -11   -1    0    0    0    0  0.00000000000E+00  0.00000000000E+00  0.45593999997E+02  0.45594000000E+02  0.51100000000E-03 0.  1.
         11   -1    0    0    0    0 -0.00000000000E+00 -0.00000000000E+00 -0.45593999997E+02  0.45594000000E+02  0.51100000000E-03 0. -1.
    9900012    2    1    2    0    0 -0.21901330805E+00  0.10220733162E+01  0.54775081757E+00  0.90007901847E+02  0.90000165351E+02 0.  0.
        -12    1    1    2    0    0  0.21901330805E+00 -0.10220733162E+01 -0.54775081757E+00  0.11800981531E+01  0.00000000000E+00 0.  1.
         11    1    3    3    0    0  0.16080404632E+01  0.25872092292E+01 -0.12956810594E+02  0.13310085903E+02  0.51100000000E-03 0. -1.
        -11    1    3    3    0    0  0.31572607385E+02 -0.16662131012E+02  0.17625851050E+02  0.39813650579E+02  0.51100000000E-03 0.  1.
         12    1    3    3    0    0 -0.33399661156E+02  0.15096995099E+02 -0.41212896385E+01  0.36884165364E+02  0.00000000000E+00 0. -1.
</event>
<event>
 7    1  0.3290561E-015  0.9000779E+02  0.7816164E-02  0.1186339E+00
        -11   -1    0    0    0    0  0.00000000000E+00  0.00000000000E+00  0.45593999997E+02  0.45594000000E+02  0.51100000000E-03 0. -1.
         11   -1    0    0    0    0 -0.00000000000E+00 -0.00000000000E+00 -0.45593999997E+02  0.45594000000E+02  0.51100000000E-03 0.  1.
    9900012    2    1    2    0    0 -0.51686975232E+00  0.32825744086E+00  0.10089550913E+01  0.90007789144E+02  0.90000051161E+02 0.  0.
        -12    1    1    2    0    0  0.51686975232E+00 -0.32825744086E+00 -0.10089550913E+01  0.11802108560E+01  0.00000000000E+00 0.  1.
         11    1    3    3    0    0  0.14286355179E+01  0.51821881892E+01  0.71777763255E+01  0.89675273688E+01  0.51100000000E-03 0. -1.
        -11    1    3    3    0    0 -0.23743689156E+02  0.18198917444E+02 -0.29224056292E+02  0.41821152988E+02  0.51100000000E-03 0.  1.
         12    1    3    3    0    0  0.21798183885E+02 -0.23052848192E+02  0.23055235058E+02  0.39219108787E+02  0.00000000000E+00 0. -1.
</event>
<event>
 7    1  0.2578619E-015  0.9000767E+02  0.7816164E-02  0.1186339E+00
        -11   -1    0    0    0    0  0.00000000000E+00  0.00000000000E+00  0.45593999997E+02  0.45594000000E+02  0.51100000000E-03 0.  1.
         11   -1    0    0    0    0 -0.00000000000E+00 -0.00000000000E+00 -0.45593999997E+02  0.45594000000E+02  0.51100000000E-03 0. -1.
    9900012    2    1    2    0    0  0.46092703596E+00 -0.91597371531E+00  0.58457499808E+00  0.90007665510E+02  0.89999925895E+02 0.  0.
        -12    1    1    2    0    0 -0.46092703596E+00  0.91597371531E+00 -0.58457499808E+00  0.11803344899E+01  0.00000000000E+00 0.  1.
         11    1    3    3    0    0  0.34128431936E+02  0.70614200691E+01 -0.82979913969E+01  0.35825552073E+02  0.51100000000E-03 0. -1.
        -11    1    3    3    0    0  0.84024879656E+01  0.36763076149E+01 -0.15424553760E+01  0.93003338940E+01  0.51100000000E-03 0.  1.
        -12    1    3    3    0    0 -0.42069992866E+02 -0.11653701399E+02  0.10425021771E+02  0.44881779543E+02  0.00000000000E+00 0.  1.
</event>
<event>
 7    1  0.2578619E-015  0.9000755E+02  0.7816164E-02  0.1186339E+00
        -11   -1    0    0    0    0  0.00000000000E+00  0.00000000000E+00  0.45593999997E+02  0.45594000000E+02  0.51100000000E-03 0.  1.
         11   -1    0    0    0    0 -0.00000000000E+00 -0.00000000000E+00 -0.45593999997E+02  0.45594000000E+02  0.51100000000E-03 0. -1.
    9900012    2    1    2    0    0  0.10440246485E+01 -0.41054363012E-01 -0.54936251367E+00  0.90007545808E+02  0.89999804613E+02 0.  0.
        -12    1    1    2    0    0 -0.10440246485E+01  0.41054363012E-01  0.54936251367E+00  0.11804541917E+01  0.00000000000E+00 0.  1.
         11    1    3    3    0    0 -0.12181196061E+01 -0.20291303351E+01  0.19516230231E+02  0.19659207206E+02  0.51100000000E-03 0. -1.
        -11    1    3    3    0    0 -0.24140288970E+02  0.46090221121E+00 -0.33014884158E+02  0.40901693836E+02  0.51100000000E-03 0.  1.
         12    1    3    3    0    0  0.26402433225E+02  0.15271737609E+01  0.12949291414E+02  0.29446644766E+02  0.00000000000E+00 0. -1.
</event>
<event>
 7    1  0.2578619E-015  0.9000762E+02  0.7816164E-02  0.1186339E+00
        -11   -1    0    0    0    0  0.00000000000E+00  0.00000000000E+00  0.45593999997E+02  0.45594000000E+02  0.51100000000E-03 0. -1.
         11   -1    0    0    0    0 -0.00000000000E+00 -0.00000000000E+00 -0.45593999997E+02  0.45594000000E+02  0.51100000000E-03 0.  1.
    9900012    2    1    2    0    0 -0.41925510232E+00  0.55912824545E+00  0.95126529186E+00  0.90007616634E+02  0.89999876373E+02 0.  0.
        -12    1    1    2    0    0  0.41925510232E+00 -0.55912824545E+00 -0.95126529186E+00  0.11803833662E+01  0.00000000000E+00 0.  1.
         11    1    3    3    0    0 -0.14201629871E+02  0.17995914212E+02  0.12977331729E+02  0.26342937543E+02  0.51100000000E-03 0. -1.
        -11    1    3    3    0    0 -0.96114526932E+01  0.78647765613E+01  0.15285476323E+02  0.19694682529E+02  0.51100000000E-03 0.  1.
        -12    1    3    3    0    0  0.23393827462E+02 -0.25301562528E+02 -0.27311542761E+02  0.43969996562E+02  0.00000000000E+00 0.  1.
</event>
<event>
 7    1  0.2578619E-015  0.9000774E+02  0.7816164E-02  0.1186339E+00
        -11   -1    0    0    0    0  0.00000000000E+00  0.00000000000E+00  0.45593999997E+02  0.45594000000E+02  0.51100000000E-03 0.  1.
         11   -1    0    0    0    0 -0.00000000000E+00 -0.00000000000E+00 -0.45593999997E+02  0.45594000000E+02  0.51100000000E-03 0. -1.
    9900012    2    1    2    0    0  0.12065211031E+00 -0.68062462250E+00  0.95666021451E+00  0.90007743429E+02  0.90000004842E+02 0.  0.
        -12    1    1    2    0    0 -0.12065211031E+00  0.68062462250E+00 -0.95666021451E+00  0.11802565715E+01  0.00000000000E+00 0.  1.
         11    1    3    3    0    0 -0.37121066890E+02 -0.54191477797E+01  0.25372546623E+01  0.37600245095E+02  0.51100000000E-03 0. -1.
        -11    1    3    3    0    0 -0.51233965922E+01  0.53697651543E+01 -0.63532612532E+01  0.97697236023E+01  0.51100000000E-03 0.  1.
        -12    1    3    3    0    0  0.42365115592E+02 -0.63124199713E+00  0.47726668054E+01  0.42637774731E+02  0.00000000000E+00 0.  1.
</event>
<event>
 7    1  0.2578619E-015  0.9000773E+02  0.7816164E-02  0.1186339E+00
        -11   -1    0    0    0    0  0.00000000000E+00  0.00000000000E+00  0.45593999997E+02  0.45594000000E+02  0.51100000000E-03 0.  1.
         11   -1    0    0    0    0 -0.00000000000E+00 -0.00000000000E+00 -0.45593999997E+02  0.45594000000E+02  0.51100000000E-03 0. -1.
    9900012    2    1    2    0    0  0.51965792486E+00 -0.10446991381E+01 -0.17778398110E+00  0.90007725544E+02  0.89999986721E+02 0.  0.
        -12    1    1    2    0    0 -0.51965792486E+00  0.10446991381E+01  0.17778398109E+00  0.11802744562E+01  0.00000000000E+00 0.  1.
         11    1    3    3    0    0 -0.69671355575E+01 -0.19609178299E+01 -0.10274623245E+02  0.12567977551E+02  0.51100000000E-03 0. -1.
        -11    1    3    3    0    0  0.19482785952E+01 -0.11670197223E+02  0.41502202551E+02  0.43155788830E+02  0.51100000000E-03 0.  1.
         12    1    3    3    0    0  0.55385148872E+01  0.12586415915E+02 -0.31405363287E+02  0.34283959163E+02  0.00000000000E+00 0. -1.
</event>
<event>
 7    1  0.2578619E-015  0.9000798E+02  0.7816164E-02  0.1186339E+00
        -11   -1    0    0    0    0  0.00000000000E+00  0.00000000000E+00  0.45593999997E+02  0.45594000000E+02  0.51100000000E-03 0.  1.
         11   -1    0    0    0    0 -0.00000000000E+00 -0.00000000000E+00 -0.45593999997E+02  0.45594000000E+02  0.51100000000E-03 0. -1.
    9900012    2    1    2    0    0 -0.85223548836E+00 -0.37898928789E+00 -0.72284727624E+00  0.90007980342E+02  0.90000244882E+02 0.  0.
        -12    1    1    2    0    0  0.85223548836E+00  0.37898928789E+00  0.72284727624E+00  0.11800196578E+01  0.00000000000E+00 0.  1.
         11    1    3    3    0    0  0.74331340331E+01  0.66166084730E+00  0.67498964907E+01  0.10062324758E+02  0.51100000000E-03 0. -1.
        -11    1    3    3    0    0  0.12774780171E+02 -0.19593594501E+02  0.26849371230E+02  0.35608884981E+02  0.51100000000E-03 0.  1.
         12    1    3    3    0    0 -0.21060149693E+02  0.18552944366E+02 -0.34322114997E+02  0.44336770604E+02  0.00000000000E+00 0. -1.
</event>
<event>
 7    1  0.2578619E-015  0.9000780E+02  0.7816164E-02  0.1186339E+00
        -11   -1    0    0    0    0  0.00000000000E+00  0.00000000000E+00  0.45593999997E+02  0.45594000000E+02  0.51100000000E-03 0.  1.
         11   -1    0    0    0    0 -0.00000000000E+00 -0.00000000000E+00 -0.45593999997E+02  0.45594000000E+02  0.51100000000E-03 0. -1.
    9900012    2    1    2    0    0  0.76381908975E-01  0.95985482000E+00 -0.68244262755E+00  0.90007795182E+02  0.90000057279E+02 0.  0.
        -12    1    1    2    0    0 -0.76381908975E-01 -0.95985482000E+00  0.68244262755E+00  0.11802048176E+01  0.00000000000E+00 0.  1.
         11    1    3    3    0    0  0.46660927438E+00  0.19163318059E+02  0.61625790752E+01  0.20135239367E+02  0.51100000000E-03 0. -1.
        -11    1    3    3    0    0 -0.22931622965E+02 -0.91535690541E+01  0.21361176478E+02  0.32648844069E+02  0.51100000000E-03 0.  1.
         12    1    3    3    0    0  0.22541395600E+02 -0.90498941854E+01 -0.28206198181E+02  0.37223711746E+02  0.00000000000E+00 0. -1.
</event>
<event>
 7    1  0.2578619E-015  0.9000770E+02  0.7816164E-02  0.1186339E+00
        -11   -1    0    0    0    0  0.00000000000E+00  0.00000000000E+00  0.45593999997E+02  0.45594000000E+02  0.51100000000E-03 0.  1.
         11   -1    0    0    0    0 -0.00000000000E+00 -0.00000000000E+00 -0.45593999997E+02  0.45594000000E+02  0.51100000000E-03 0. -1.
    9900012    2    1    2    0    0  0.99200879071E+00 -0.33170273111E+00 -0.54679966210E+00  0.90007704269E+02  0.89999965165E+02 0.  0.
        -12    1    1    2    0    0 -0.99200879071E+00  0.33170273111E+00  0.54679966210E+00  0.11802957312E+01  0.00000000000E+00 0.  1.
         11    1    3    3    0    0 -0.40997146882E+01  0.47830602735E+00  0.89613646630E+01  0.98662299824E+01  0.51100000000E-03 0. -1.
        -11    1    3    3    0    0 -0.25483390921E+02  0.27494449499E+02 -0.38842104111E+00  0.37489983159E+02  0.51100000000E-03 0.  1.
         12    1    3    3    0    0  0.30575114400E+02 -0.28304458257E+02 -0.91197432840E+01  0.42651491127E+02  0.00000000000E+00 0. -1.
</event>
<event>
 7    1  0.2578619E-015  0.9000773E+02  0.7816164E-02  0.1186339E+00
        -11   -1    0    0    0    0  0.00000000000E+00  0.00000000000E+00  0.45593999997E+02  0.45594000000E+02  0.51100000000E-03 0.  1.
         11   -1    0    0    0    0 -0.00000000000E+00 -0.00000000000E+00 -0.45593999997E+02  0.45594000000E+02  0.51100000000E-03 0. -1.
    9900012    2    1    2    0    0  0.22182005304E+00  0.11489595136E+01  0.15404092373E+00  0.90007728546E+02  0.89999989762E+02 0.  0.
        -12    1    1    2    0    0 -0.22182005304E+00 -0.11489595136E+01 -0.15404092373E+00  0.11802714544E+01  0.00000000000E+00 0.  1.
         11    1    3    3    0    0  0.13882718325E+01 -0.67025298714E+01 -0.12716411004E+02  0.14441548201E+02  0.51100000000E-03 0. -1.
        -11    1    3    3    0    0  0.99833849777E+01 -0.26383494156E+02  0.24877683047E+02  0.37611911060E+02  0.51100000000E-03 0.  1.
         12    1    3    3    0    0 -0.11149836757E+02  0.34234983541E+02 -0.12007231119E+02  0.37954269285E+02  0.00000000000E+00 0. -1.
</event>
<event>
 7    1  0.2578619E-015  0.9000768E+02  0.7816164E-02  0.1186339E+00
        -11   -1    0    0    0    0  0.00000000000E+00  0.00000000000E+00  0.45593999997E+02  0.45594000000E+02  0.51100000000E-03 0.  1.
         11   -1    0    0    0    0 -0.00000000000E+00 -0.00000000000E+00 -0.45593999997E+02  0.45594000000E+02  0.51100000000E-03 0. -1.
    9900012    2    1    2    0    0 -0.32834792600E+00  0.32254263583E+00 -0.10868819509E+01  0.90007678651E+02  0.89999939209E+02 0.  0.
        -12    1    1    2    0    0  0.32834792600E+00 -0.32254263583E+00  0.10868819509E+01  0.11803213493E+01  0.00000000000E+00 0.  1.
         11    1    3    3    0    0  0.20575164843E+02  0.13519390010E+02 -0.25519398507E+02  0.35459145718E+02  0.51100000000E-03 0. -1.
        -11    1    3    3    0    0 -0.53405883911E+01  0.67038274933E+01 -0.91415215159E+01  0.12531185232E+02  0.51100000000E-03 0.  1.
        -12    1    3    3    0    0 -0.15562924378E+02 -0.19900674867E+02  0.33574038072E+02  0.42017347702E+02  0.00000000000E+00 0.  1.
</event>
<event>
 7    1  0.2578619E-015  0.9000753E+02  0.7816164E-02  0.1186339E+00
        -11   -1    0    0    0    0  0.00000000000E+00  0.00000000000E+00  0.45593999997E+02  0.45594000000E+02  0.51100000000E-03 0. -1.
         11   -1    0    0    0    0 -0.00000000000E+00 -0.00000000000E+00 -0.45593999997E+02  0.45594000000E+02  0.51100000000E-03 0.  1.
    9900012    2    1    2    0    0  0.11458532571E+01 -0.22588307235E+00  0.17179400537E+00  0.90007527201E+02  0.89999785760E+02 0.  0.
        -12    1    1    2    0    0 -0.11458532571E+01  0.22588307235E+00 -0.17179400537E+00  0.11804727991E+01  0.00000000000E+00 0.  1.
         11    1    3    3    0    0  0.77939426358E+01 -0.31923679166E+01  0.10186218725E+02  0.13217254136E+02  0.51100000000E-03 0. -1.
        -11    1    3    3    0    0  0.18664983066E+02  0.37693685448E+01 -0.35861685868E+02  0.40603574297E+02  0.51100000000E-03 0.  1.
         12    1    3    3    0    0 -0.25313072445E+02 -0.80288370051E+00  0.25847261149E+02  0.36186698768E+02  0.00000000000E+00 0. -1.
</event>
<event>
 7    1  0.2578619E-015  0.9000770E+02  0.7816164E-02  0.1186339E+00
        -11   -1    0    0    0    0  0.00000000000E+00  0.00000000000E+00  0.45593999997E+02  0.45594000000E+02  0.51100000000E-03 0. -1.
         11   -1    0    0    0    0 -0.00000000000E+00 -0.00000000000E+00 -0.45593999997E+02  0.45594000000E+02  0.51100000000E-03 0.  1.
    9900012    2    1    2    0    0 -0.40883914378E+00 -0.10595901473E+01 -0.32130351012E+00  0.90007696365E+02  0.89999957157E+02 0.  0.
        -12    1    1    2    0    0  0.40883914378E+00  0.10595901473E+01  0.32130351012E+00  0.11803036353E+01  0.00000000000E+00 0.  1.
         11    1    3    3    0    0 -0.50805790436E+01  0.40221209811E+01 -0.14531452525E+02  0.15910777899E+02  0.51100000000E-03 0. -1.
        -11    1    3    3    0    0  0.65954068121E-01  0.30772472829E+02 -0.78376391076E+01  0.31754968446E+02  0.51100000000E-03 0.  1.
         12    1    3    3    0    0  0.46057858317E+01 -0.35854183957E+02  0.22047788123E+02  0.42341950020E+02  0.00000000000E+00 0. -1.
</event>
<event>
 7    1  0.2578619E-015  0.9000762E+02  0.7816164E-02  0.1186339E+00
        -11   -1    0    0    0    0  0.00000000000E+00  0.00000000000E+00  0.45593999997E+02  0.45594000000E+02  0.51100000000E-03 0. -1.
         11   -1    0    0    0    0 -0.00000000000E+00 -0.00000000000E+00 -0.45593999997E+02  0.45594000000E+02  0.51100000000E-03 0.  1.
    9900012    2    1    2    0    0  0.49639632282E+00  0.94170079716E+00  0.50997974362E+00  0.90007623348E+02  0.89999883177E+02 0.  0.
        -12    1    1    2    0    0 -0.49639632282E+00 -0.94170079716E+00 -0.50997974362E+00  0.11803766516E+01  0.00000000000E+00 0.  1.
         11    1    3    3    0    0 -0.14652897001E+02  0.43994373260E+01  0.35133641368E+02  0.38320166954E+02  0.51100000000E-03 0. -1.
        -11    1    3    3    0    0  0.13827784112E+01 -0.12898887452E+02  0.30337988762E+00  0.12976340518E+02  0.51100000000E-03 0.  1.
        -12    1    3    3    0    0  0.13766514913E+02  0.94411509227E+01 -0.34927041512E+02  0.38711115876E+02  0.00000000000E+00 0.  1.
</event>
<event>
 7    1  0.2578619E-015  0.9000769E+02  0.7816164E-02  0.1186339E+00
        -11   -1    0    0    0    0  0.00000000000E+00  0.00000000000E+00  0.45593999997E+02  0.45594000000E+02  0.51100000000E-03 0.  1.
         11   -1    0    0    0    0 -0.00000000000E+00 -0.00000000000E+00 -0.45593999997E+02  0.45594000000E+02  0.51100000000E-03 0. -1.
    9900012    2    1    2    0    0 -0.82355098946E+00 -0.77800918062E+00 -0.33104524504E+00  0.90007692637E+02  0.89999953380E+02 0.  0.
        -12    1    1    2    0    0  0.82355098946E+00  0.77800918062E+00  0.33104524504E+00  0.11803073632E+01  0.00000000000E+00 0.  1.
         11    1    3    3    0    0 -0.19501603774E+02 -0.33244848238E+02  0.63679810646E+01  0.39065120853E+02  0.51100000000E-03 0. -1.
        -11    1    3    3    0    0 -0.35444035378E+01 -0.85510021332E+00 -0.10107935712E+02  0.10745434260E+02  0.51100000000E-03 0.  1.
        -12    1    3    3    0    0  0.22222456323E+02  0.33321939271E+02  0.34089094023E+01  0.40197137524E+02  0.00000000000E+00 0.  1.
</event>
<event>
 7    1  0.2578619E-015  0.9000778E+02  0.7816164E-02  0.1186339E+00
        -11   -1    0    0    0    0  0.00000000000E+00  0.00000000000E+00  0.45593999997E+02  0.45594000000E+02  0.51100000000E-03 0.  1.
         11   -1    0    0    0    0 -0.00000000000E+00 -0.00000000000E+00 -0.45593999997E+02  0.45594000000E+02  0.51100000000E-03 0. -1.
    9900012    2    1    2    0    0  0.17215514094E-01 -0.27914710954E+00 -0.11466058960E+01  0.90007777748E+02  0.90000039615E+02 0.  0.
        -12    1    1    2    0    0 -0.17215514094E-01  0.27914710954E+00  0.11466058960E+01  0.11802222518E+01  0.00000000000E+00 0.  1.
         11    1    3    3    0    0 -0.94405035818E+01  0.65859884876E+01 -0.43755080075E+02  0.45243843612E+02  0.51100000000E-03 0. -1.
        -11    1    3    3    0    0  0.40505971392E+01  0.14408870065E+00  0.71679666528E+01  0.82345518964E+01  0.51100000000E-03 0.  1.
        -12    1    3    3    0    0  0.54071219567E+01 -0.70092242978E+01  0.35440507526E+02  0.36529382239E+02  0.00000000000E+00 0.  1.
</event>
<event>
 7    1  0.2578619E-015  0.9000769E+02  0.7816164E-02  0.1186339E+00
        -11   -1    0    0    0    0  0.00000000000E+00  0.00000000000E+00  0.45593999997E+02  0.45594000000E+02  0.51100000000E-03 0.  1.
         11   -1    0    0    0    0 -0.00000000000E+00 -0.00000000000E+00 -0.45593999997E+02  0.45594000000E+02  0.51100000000E-03 0. -1.
    9900012    2    1    2    0    0 -0.84791743086E-01 -0.11210808516E+01 -0.35933279254E+00  0.90007689883E+02  0.89999950590E+02 0.  0.
        -12    1    1    2    0    0  0.84791743086E-01  0.11210808516E+01  0.35933279254E+00  0.11803101166E+01  0.00000000000E+00 0.  1.
         11    1    3    3    0    0  0.23500251467E+02 -0.21584672341E+02  0.97739796657E+01  0.33372002904E+02  0.51100000000E-03 0. -1.
        -11    1    3    3    0    0  0.52717090438E+01 -0.10504018880E+02  0.33339579843E+01  0.12216407204E+02  0.51100000000E-03 0.  1.
        -12    1    3    3    0    0 -0.28856752254E+02  0.30967610369E+02 -0.13467270443E+02  0.44419279775E+02  0.00000000000E+00 0.  1.
</event>
<event>
 7    1  0.2578619E-015  0.9000772E+02  0.7816164E-02  0.1186339E+00
        -11   -1    0    0    0    0  0.00000000000E+00  0.00000000000E+00  0.45593999997E+02  0.45594000000E+02  0.51100000000E-03 0.  1.
         11   -1    0    0    0    0 -0.00000000000E+00 -0.00000000000E+00 -0.45593999997E+02  0.45594000000E+02  0.51100000000E-03 0. -1.
    9900012    2    1    2    0    0  0.11509662617E+01  0.23131173389E-01  0.26038280756E+00  0.90007721392E+02  0.89999982514E+02 0.  0.
        -12    1    1    2    0    0 -0.11509662617E+01 -0.23131173389E-01 -0.26038280756E+00  0.11802786083E+01  0.00000000000E+00 0.  1.
         11    1    3    3    0    0  0.53237715177E+01  0.84202808515E+01 -0.13240372549E+00  0.99629917092E+01  0.51100000000E-03 0. -1.
        -11    1    3    3    0    0  0.22448085870E+02 -0.35505815787E+02  0.15127279889E+01  0.42034127327E+02  0.51100000000E-03 0.  1.
         12    1    3    3    0    0 -0.26620891126E+02  0.27108666109E+02 -0.11199414559E+01  0.38010602355E+02  0.00000000000E+00 0. -1.
</event>
<event>
 7    1  0.2578619E-015  0.9000775E+02  0.7816164E-02  0.1186339E+00
        -11   -1    0    0    0    0  0.00000000000E+00  0.00000000000E+00  0.45593999997E+02  0.45594000000E+02  0.51100000000E-03 0. -1.
         11   -1    0    0    0    0 -0.00000000000E+00 -0.00000000000E+00 -0.45593999997E+02  0.45594000000E+02  0.51100000000E-03 0.  1.
    9900012    2    1    2    0    0 -0.90614552537E+00  0.31752107063E+00  0.68634285291E+00  0.90007751782E+02  0.90000013306E+02 0.  0.
        -12    1    1    2    0    0  0.90614552537E+00 -0.31752107063E+00 -0.68634285291E+00  0.11802482176E+01  0.00000000000E+00 0.  1.
         11    1    3    3    0    0  0.18453656526E+01 -0.75780214367E+01 -0.51774134160E+01  0.93614845633E+01  0.51100000000E-03 0. -1.
        -11    1    3    3    0    0 -0.94161208408E+01  0.72155057439E+01 -0.36178428039E+02  0.38073685276E+02  0.51100000000E-03 0.  1.
         12    1    3    3    0    0  0.66646096628E+01  0.68003676342E+00  0.42042184308E+02  0.42572581944E+02  0.00000000000E+00 0. -1.
</event>
<event>
 7    1  0.2578619E-015  0.9000772E+02  0.7816164E-02  0.1186339E+00
        -11   -1    0    0    0    0  0.00000000000E+00  0.00000000000E+00  0.45593999997E+02  0.45594000000E+02  0.51100000000E-03 0.  1.
         11   -1    0    0    0    0 -0.00000000000E+00 -0.00000000000E+00 -0.45593999997E+02  0.45594000000E+02  0.51100000000E-03 0. -1.
    9900012    2    1    2    0    0  0.37723276862E-01  0.60536098337E+00 -0.10125089823E+01  0.90007720624E+02  0.89999981736E+02 0.  0.
        -12    1    1    2    0    0 -0.37723276862E-01 -0.60536098337E+00  0.10125089823E+01  0.11802793759E+01  0.00000000000E+00 0.  1.
         11    1    3    3    0    0 -0.11835971307E+02  0.42712349226E+01 -0.42220762043E+02  0.44055946390E+02  0.51100000000E-03 0. -1.
        -11    1    3    3    0    0 -0.35329694450E+01  0.67462957839E+00  0.36472499149E+01  0.51224437888E+01  0.51100000000E-03 0.  1.
        -12    1    3    3    0    0  0.15406664029E+02 -0.43405035176E+01  0.37561003146E+02  0.40829330445E+02  0.00000000000E+00 0.  1.
</event>
<event>
 7    1  0.2578619E-015  0.9000771E+02  0.7816164E-02  0.1186339E+00
        -11   -1    0    0    0    0  0.00000000000E+00  0.00000000000E+00  0.45593999997E+02  0.45594000000E+02  0.51100000000E-03 0. -1.
         11   -1    0    0    0    0 -0.00000000000E+00 -0.00000000000E+00 -0.45593999997E+02  0.45594000000E+02  0.51100000000E-03 0.  1.
    9900012    2    1    2    0    0 -0.83383220721E+00 -0.16423404718E+00  0.81904097395E+00  0.90007713133E+02  0.89999974146E+02 0.  0.
        -12    1    1    2    0    0  0.83383220721E+00  0.16423404718E+00 -0.81904097395E+00  0.11802868673E+01  0.00000000000E+00 0.  1.
         11    1    3    3    0    0 -0.10843543487E+02 -0.13335227242E+02  0.11060154241E+02  0.20438633346E+02  0.51100000000E-03 0. -1.
        -11    1    3    3    0    0  0.16585318756E+02  0.77439264871E+01  0.26302142530E+02  0.32044405091E+02  0.51100000000E-03 0.  1.
        -12    1    3    3    0    0 -0.65756074767E+01  0.54270667080E+01 -0.36543255797E+02  0.37524674696E+02  0.00000000000E+00 0.  1.
</event>
<event>
 7    1  0.2578619E-015  0.9000761E+02  0.7816164E-02  0.1186339E+00
        -11   -1    0    0    0    0  0.00000000000E+00  0.00000000000E+00  0.45593999997E+02  0.45594000000E+02  0.51100000000E-03 0.  1.
         11   -1    0    0    0    0 -0.00000000000E+00 -0.00000000000E+00 -0.45593999997E+02  0.45594000000E+02  0.51100000000E-03 0. -1.
    9900012    2    1    2    0    0 -0.41951544891E+00  0.57257382167E-01 -0.11018393010E+01  0.90007609613E+02  0.89999869260E+02 0.  0.
        -12    1    1    2    0    0  0.41951544891E+00 -0.57257382167E-01  0.11018393010E+01  0.11803903866E+01  0.00000000000E+00 0.  1.
         11    1    3    3    0    0  0.25380242595E+02  0.91785888674E+01 -0.15468650713E+02  0.31107593332E+02  0.51100000000E-03 0. -1.
        -11    1    3    3    0    0  0.11628994560E+02  0.73385001008E+01 -0.36369079721E+01  0.14223719558E+02  0.51100000000E-03 0.  1.
        -12    1    3    3    0    0 -0.37428752603E+02 -0.16459831586E+02  0.18003719384E+02  0.44676296724E+02  0.00000000000E+00 0.  1.
</event>
<event>
 7    1  0.2578619E-015  0.9000777E+02  0.7816164E-02  0.1186339E+00
        -11   -1    0    0    0    0  0.00000000000E+00  0.00000000000E+00  0.45593999997E+02  0.45594000000E+02  0.51100000000E-03 0.  1.
         11   -1    0    0    0    0 -0.00000000000E+00 -0.00000000000E+00 -0.45593999997E+02  0.45594000000E+02  0.51100000000E-03 0. -1.
    9900012    2    1    2    0    0  0.54953809140E+00 -0.88877109352E+00 -0.54866274474E+00  0.90007772489E+02  0.90000034286E+02 0.  0.
        -12    1    1    2    0    0 -0.54953809140E+00  0.88877109352E+00  0.54866274474E+00  0.11802275111E+01  0.00000000000E+00 0.  1.
         11    1    3    3    0    0 -0.20331674051E+02  0.35214158821E+02 -0.12950100316E+02  0.42674571464E+02  0.51100000000E-03 0. -1.
        -11    1    3    3    0    0  0.12386667090E+00 -0.29903861074E+01  0.73390828111E+01  0.79258998727E+01  0.51100000000E-03 0.  1.
        -12    1    3    3    0    0  0.20757345471E+02 -0.33112543807E+02  0.50623547599E+01  0.39407301152E+02  0.00000000000E+00 0.  1.
</event>
<event>
 7    1  0.2578619E-015  0.9000828E+02  0.7816164E-02  0.1186338E+00
        -11   -1    0    0    0    0  0.00000000000E+00  0.00000000000E+00  0.45593999997E+02  0.45594000000E+02  0.51100000000E-03 0.  1.
         11   -1    0    0    0    0 -0.00000000000E+00 -0.00000000000E+00 -0.45593999997E+02  0.45594000000E+02  0.51100000000E-03 0. -1.
    9900012    2    1    2    0    0  0.51112567211E+00  0.83292888567E-01 -0.10599827299E+01  0.90008275225E+02  0.90000543656E+02 0.  0.
        -12    1    1    2    0    0 -0.51112567211E+00 -0.83292888567E-01  0.10599827299E+01  0.11797247754E+01  0.00000000000E+00 0.  1.
         11    1    3    3    0    0  0.88228253686E+01 -0.42319871285E+02 -0.58060339453E+01  0.43617929611E+02  0.51100000000E-03 0. -1.
        -11    1    3    3    0    0 -0.20154321426E+01  0.41569341578E-01  0.28894713263E+01  0.35231718008E+01  0.51100000000E-03 0.  1.
        -12    1    3    3    0    0 -0.62962675540E+01  0.42361594832E+02  0.18565798890E+01  0.42867173813E+02  0.00000000000E+00 0.  1.
</event>
<event>
 7    1  0.2578619E-015  0.9000772E+02  0.7816164E-02  0.1186339E+00
        -11   -1    0    0    0    0  0.00000000000E+00  0.00000000000E+00  0.45593999997E+02  0.45594000000E+02  0.51100000000E-03 0. -1.
         11   -1    0    0    0    0 -0.00000000000E+00 -0.00000000000E+00 -0.45593999997E+02  0.45594000000E+02  0.51100000000E-03 0.  1.
    9900012    2    1    2    0    0 -0.82742944203E-01  0.29208781205E+00  0.11405652385E+01  0.90007724292E+02  0.89999985452E+02 0.  0.
        -12    1    1    2    0    0  0.82742944203E-01 -0.29208781205E+00 -0.11405652385E+01  0.11802757085E+01  0.00000000000E+00 0.  1.
         11    1    3    3    0    0  0.33675299831E+01 -0.45258708497E+01  0.87492229854E+01  0.10410219414E+02  0.51100000000E-03 0. -1.
        -11    1    3    3    0    0 -0.71894069297E+01 -0.36355701123E+02  0.21369285824E+01  0.37121301704E+02  0.51100000000E-03 0.  1.
         12    1    3    3    0    0  0.37391340024E+01  0.41173659785E+02 -0.97455863293E+01  0.42476203174E+02  0.00000000000E+00 0. -1.
</event>
<event>
 7    1  0.2578619E-015  0.9000757E+02  0.7816164E-02  0.1186339E+00
        -11   -1    0    0    0    0  0.00000000000E+00  0.00000000000E+00  0.45593999997E+02  0.45594000000E+02  0.51100000000E-03 0. -1.
         11   -1    0    0    0    0 -0.00000000000E+00 -0.00000000000E+00 -0.45593999997E+02  0.45594000000E+02  0.51100000000E-03 0.  1.
    9900012    2    1    2    0    0  0.11323607613E+01  0.29036976507E+00 -0.16389888995E+00  0.90007568579E+02  0.89999827684E+02 0.  0.
        -12    1    1    2    0    0 -0.11323607613E+01 -0.29036976507E+00  0.16389888995E+00  0.11804314213E+01  0.00000000000E+00 0.  1.
         11    1    3    3    0    0 -0.75368069097E+00  0.60339479325E+00  0.63538921048E+01  0.64268238657E+01  0.51100000000E-03 0. -1.
        -11    1    3    3    0    0 -0.18895111050E+02 -0.22177389012E+02 -0.32586768063E+02  0.43712232362E+02  0.51100000000E-03 0.  1.
         12    1    3    3    0    0  0.20781152502E+02  0.21864363984E+02  0.26068977068E+02  0.39868512351E+02  0.00000000000E+00 0. -1.
</event>
<event>
 7    1  0.2578619E-015  0.9000831E+02  0.7816164E-02  0.1186338E+00
        -11   -1    0    0    0    0  0.00000000000E+00  0.00000000000E+00  0.45593999997E+02  0.45594000000E+02  0.51100000000E-03 0.  1.
         11   -1    0    0    0    0 -0.00000000000E+00 -0.00000000000E+00 -0.45593999997E+02  0.45594000000E+02  0.51100000000E-03 0. -1.
    9900012    2    1    2    0    0  0.67610414821E+00  0.62211870737E+00 -0.73995074361E+00  0.90008306986E+02  0.90000575836E+02 0.  0.
        -12    1    1    2    0    0 -0.67610414821E+00 -0.62211870737E+00  0.73995074361E+00  0.11796930144E+01  0.00000000000E+00 0.  1.
         11    1    3    3    0    0 -0.13804268873E+02  0.59005674914E+01 -0.32510977933E+02  0.35809750380E+02  0.51100000000E-03 0. -1.
        -11    1    3    3    0    0  0.15938513614E+02 -0.64723045689E+01 -0.45775581898E+01  0.17801151139E+02  0.51100000000E-03 0.  1.
        -12    1    3    3    0    0 -0.14581405926E+01  0.11938557849E+01  0.36348585379E+02  0.36397405466E+02  0.00000000000E+00 0.  1.
</event>
<event>
 7    1  0.2578619E-015  0.9000775E+02  0.7816164E-02  0.1186339E+00
        -11   -1    0    0    0    0  0.00000000000E+00  0.00000000000E+00  0.45593999997E+02  0.45594000000E+02  0.51100000000E-03 0. -1.
         11   -1    0    0    0    0 -0.00000000000E+00 -0.00000000000E+00 -0.45593999997E+02  0.45594000000E+02  0.51100000000E-03 0.  1.
    9900012    2    1    2    0    0 -0.86169159729E+00 -0.15792086209E+00  0.79090303915E+00  0.90007754676E+02  0.90000016238E+02 0.  0.
        -12    1    1    2    0    0  0.86169159729E+00  0.15792086209E+00 -0.79090303915E+00  0.11802453240E+01  0.00000000000E+00 0.  1.
         11    1    3    3    0    0  0.10775558564E+01  0.83951217025E+01 -0.61743316015E+01  0.10476715421E+02  0.51100000000E-03 0. -1.
        -11    1    3    3    0    0  0.42350245172E+01 -0.15584202023E+02 -0.33930911732E+02  0.37578046205E+02  0.51100000000E-03 0.  1.
         12    1    3    3    0    0 -0.61742719710E+01  0.70311594588E+01  0.40896146373E+02  0.41952993050E+02  0.00000000000E+00 0. -1.
</event>
<event>
 7    1  0.2578619E-015  0.9000774E+02  0.7816164E-02  0.1186339E+00
        -11   -1    0    0    0    0  0.00000000000E+00  0.00000000000E+00  0.45593999997E+02  0.45594000000E+02  0.51100000000E-03 0.  1.
         11   -1    0    0    0    0 -0.00000000000E+00 -0.00000000000E+00 -0.45593999997E+02  0.45594000000E+02  0.51100000000E-03 0. -1.
    9900012    2    1    2    0    0 -0.50068876805E+00  0.92071995177E+00 -0.54277873457E+00  0.90007735950E+02  0.89999997265E+02 0.  0.
        -12    1    1    2    0    0  0.50068876805E+00 -0.92071995177E+00  0.54277873457E+00  0.11802640496E+01  0.00000000000E+00 0.  1.
         11    1    3    3    0    0 -0.79465526105E+01  0.30425081957E+01  0.28856482538E+01  0.89850720987E+01  0.51100000000E-03 0. -1.
        -11    1    3    3    0    0 -0.22186643914E+02  0.15651077396E+02  0.24517104331E+02  0.36582670718E+02  0.51100000000E-03 0.  1.
         12    1    3    3    0    0  0.29632507756E+02 -0.17772865640E+02 -0.27945531319E+02  0.44439993134E+02  0.00000000000E+00 0. -1.
</event>
<event>
 7    1  0.2578619E-015  0.9000816E+02  0.7816164E-02  0.1186338E+00
        -11   -1    0    0    0    0  0.00000000000E+00  0.00000000000E+00  0.45593999997E+02  0.45594000000E+02  0.51100000000E-03 0.  1.
         11   -1    0    0    0    0 -0.00000000000E+00 -0.00000000000E+00 -0.45593999997E+02  0.45594000000E+02  0.51100000000E-03 0. -1.
    9900012    2    1    2    0    0  0.75801994494E+00  0.89168285363E+00  0.14940151108E+00  0.90008163842E+02  0.90000430804E+02 0.  0.
        -12    1    1    2    0    0 -0.75801994494E+00 -0.89168285363E+00 -0.14940151108E+00  0.11798361581E+01  0.00000000000E+00 0.  1.
         11    1    3    3    0    0  0.32794801402E+02 -0.13210743548E+02  0.22412208269E+02  0.41860838786E+02  0.51100000000E-03 0. -1.
        -11    1    3    3    0    0 -0.45890578566E+01 -0.48596658081E+01 -0.11121241691E+02  0.12975277291E+02  0.51100000000E-03 0.  1.
        -12    1    3    3    0    0 -0.27447723601E+02  0.18962092210E+02 -0.11141565067E+02  0.35172047765E+02  0.00000000000E+00 0.  1.
</event>
<event>
 7    1  0.2578619E-015  0.9000767E+02  0.7816164E-02  0.1186339E+00
        -11   -1    0    0    0    0  0.00000000000E+00  0.00000000000E+00  0.45593999997E+02  0.45594000000E+02  0.51100000000E-03 0. -1.
         11   -1    0    0    0    0 -0.00000000000E+00 -0.00000000000E+00 -0.45593999997E+02  0.45594000000E+02  0.51100000000E-03 0.  1.
    9900012    2    1    2    0    0  0.59870138522E+00  0.93225705020E+00  0.40698088174E+00  0.90007669540E+02  0.89999929978E+02 0.  0.
        -12    1    1    2    0    0 -0.59870138522E+00 -0.93225705020E+00 -0.40698088174E+00  0.11803304598E+01  0.00000000000E+00 0.  1.
         11    1    3    3    0    0  0.36675064656E+02  0.95516687626E+01 -0.37687627809E+00  0.37900353292E+02  0.51100000000E-03 0. -1.
        -11    1    3    3    0    0  0.47819984865E+01  0.11636549494E+01  0.80842521902E+01  0.94644987242E+01  0.51100000000E-03 0.  1.
        -12    1    3    3    0    0 -0.40858361757E+02 -0.97830666618E+01 -0.73003950303E+01  0.42642817524E+02  0.00000000000E+00 0.  1.
</event>
<event>
 7    1  0.2578619E-015  0.9000772E+02  0.7816164E-02  0.1186339E+00
        -11   -1    0    0    0    0  0.00000000000E+00  0.00000000000E+00  0.45593999997E+02  0.45594000000E+02  0.51100000000E-03 0. -1.
         11   -1    0    0    0    0 -0.00000000000E+00 -0.00000000000E+00 -0.45593999997E+02  0.45594000000E+02  0.51100000000E-03 0.  1.
    9900012    2    1    2    0    0 -0.54321962525E+00 -0.69574785912E+00  0.78352152757E+00  0.90007720953E+02  0.89999982070E+02 0.  0.
        -12    1    1    2    0    0  0.54321962525E+00  0.69574785912E+00 -0.78352152757E+00  0.11802790470E+01  0.00000000000E+00 0.  1.
         11    1    3    3    0    0  0.21628953981E+02  0.23463018481E+02  0.19692959175E+02  0.37498500342E+02  0.51100000000E-03 0. -1.
        -11    1    3    3    0    0  0.67575560292E+01  0.45242874593E+01 -0.45192133343E+01  0.93036030614E+01  0.51100000000E-03 0.  1.
        -12    1    3    3    0    0 -0.28929729636E+02 -0.28683053800E+02 -0.14390224313E+02  0.43205617550E+02  0.00000000000E+00 0.  1.
</event>
<event>
 7    1  0.2578619E-015  0.9000775E+02  0.7816164E-02  0.1186339E+00
        -11   -1    0    0    0    0  0.00000000000E+00  0.00000000000E+00  0.45593999997E+02  0.45594000000E+02  0.51100000000E-03 0.  1.
         11   -1    0    0    0    0 -0.00000000000E+00 -0.00000000000E+00 -0.45593999997E+02  0.45594000000E+02  0.51100000000E-03 0. -1.
    9900012    2    1    2    0    0 -0.10638746603E+00  0.65155884867E+00 -0.97833896442E+00  0.90007748181E+02  0.90000009657E+02 0.  0.
        -12    1    1    2    0    0  0.10638746603E+00 -0.65155884867E+00  0.97833896442E+00  0.11802518187E+01  0.00000000000E+00 0.  1.
         11    1    3    3    0    0 -0.44983020690E+01  0.13969973514E+01  0.11141129450E+02  0.12095912069E+02  0.51100000000E-03 0. -1.
        -11    1    3    3    0    0  0.16230526405E+01 -0.20461237787E+02  0.27060129550E+02  0.33963909715E+02  0.51100000000E-03 0.  1.
         12    1    3    3    0    0  0.27688619625E+01  0.19715799284E+02 -0.39179597964E+02  0.43947926397E+02  0.00000000000E+00 0. -1.
</event>
<event>
 7    1  0.2578619E-015  0.9000894E+02  0.7816164E-02  0.1186337E+00
        -11   -1    0    0    0    0  0.00000000000E+00  0.00000000000E+00  0.45593999997E+02  0.45594000000E+02  0.51100000000E-03 0.  1.
         11   -1    0    0    0    0 -0.00000000000E+00 -0.00000000000E+00 -0.45593999997E+02  0.45594000000E+02  0.51100000000E-03 0. -1.
    9900012    2    1    2    0    0 -0.10155220775E+01 -0.62393420337E-01 -0.59581936679E+00  0.90008941585E+02  0.90001218805E+02 0.  0.
        -12    1    1    2    0    0  0.10155220775E+01  0.62393420337E-01  0.59581936679E+00  0.11790584153E+01  0.00000000000E+00 0.  1.
         11    1    3    3    0    0 -0.28551218814E+02 -0.80825520324E+01  0.21504977248E+02  0.36646470360E+02  0.51100000000E-03 0. -1.
        -11    1    3    3    0    0 -0.63804096232E+01  0.43324298872E+01  0.55058185310E+01  0.94759492213E+01  0.51100000000E-03 0.  1.
        -12    1    3    3    0    0  0.33916106360E+02  0.36877287249E+01 -0.27606615146E+02  0.43886522004E+02  0.00000000000E+00 0.  1.
</event>
<event>
 7    1  0.2578619E-015  0.9000772E+02  0.7816164E-02  0.1186339E+00
        -11   -1    0    0    0    0  0.00000000000E+00  0.00000000000E+00  0.45593999997E+02  0.45594000000E+02  0.51100000000E-03 0.  1.
         11   -1    0    0    0    0 -0.00000000000E+00 -0.00000000000E+00 -0.45593999997E+02  0.45594000000E+02  0.51100000000E-03 0. -1.
    9900012    2    1    2    0    0  0.10643446805E+01 -0.30506257859E+00  0.40884833001E+00  0.90007724722E+02  0.89999985888E+02 0.  0.
        -12    1    1    2    0    0 -0.10643446805E+01  0.30506257859E+00 -0.40884833001E+00  0.11802752783E+01  0.00000000000E+00 0.  1.
         11    1    3    3    0    0  0.73679571752E+01 -0.60324625979E+01 -0.23439960583E+01  0.98067178869E+01  0.51100000000E-03 0. -1.
        -11    1    3    3    0    0  0.19596371882E+02  0.92944160132E+01  0.33458180722E+02  0.39872971014E+02  0.51100000000E-03 0.  1.
         12    1    3    3    0    0 -0.25899984376E+02 -0.35670159939E+01 -0.30705336334E+02  0.40328035821E+02  0.00000000000E+00 0. -1.
</event>
<event>
 7    1  0.2578619E-015  0.9000774E+02  0.7816164E-02  0.1186339E+00
        -11   -1    0    0    0    0  0.00000000000E+00  0.00000000000E+00  0.45593999997E+02  0.45594000000E+02  0.51100000000E-03 0.  1.
         11   -1    0    0    0    0 -0.00000000000E+00 -0.00000000000E+00 -0.45593999997E+02  0.45594000000E+02  0.51100000000E-03 0. -1.
    9900012    2    1    2    0    0 -0.78766984913E+00  0.86642714215E+00 -0.14800560140E+00  0.90007735012E+02  0.89999996314E+02 0.  0.
        -12    1    1    2    0    0  0.78766984913E+00 -0.86642714215E+00  0.14800560140E+00  0.11802649880E+01  0.00000000000E+00 0.  1.
         11    1    3    3    0    0 -0.24822660653E+02 -0.30366558720E+02 -0.45039018863E+01  0.39478823474E+02  0.51100000000E-03 0. -1.
        -11    1    3    3    0    0  0.58753770286E+01 -0.52025659826E+01  0.58548470005E+01  0.97911174894E+01  0.51100000000E-03 0.  1.
        -12    1    3    3    0    0  0.18159613775E+02  0.36435551845E+02 -0.14989507155E+01  0.40737794049E+02  0.00000000000E+00 0.  1.
</event>
<event>
 7    1  0.2578619E-015  0.9000888E+02  0.7816164E-02  0.1186337E+00
        -11   -1    0    0    0    0  0.00000000000E+00  0.00000000000E+00  0.45593999997E+02  0.45594000000E+02  0.51100000000E-03 0. -1.
         11   -1    0    0    0    0 -0.00000000000E+00 -0.00000000000E+00 -0.45593999997E+02  0.45594000000E+02  0.51100000000E-03 0.  1.
    9900012    2    1    2    0    0  0.50208271700E+00  0.94872468483E+00  0.48802024005E+00  0.90008877726E+02  0.90001154105E+02 0.  0.
        -12    1    1    2    0    0 -0.50208271700E+00 -0.94872468483E+00 -0.48802024005E+00  0.11791222740E+01  0.00000000000E+00 0.  1.
         11    1    3    3    0    0 -0.11370345761E+02 -0.24260574570E+01 -0.62410846062E+01  0.13195516467E+02  0.51100000000E-03 0. -1.
        -11    1    3    3    0    0 -0.13429121974E+02 -0.31030073025E+02  0.29615264161E+01  0.33940792388E+02  0.51100000000E-03 0.  1.
         12    1    3    3    0    0  0.25301550452E+02  0.34404855167E+02  0.37675784301E+01  0.42872568871E+02  0.00000000000E+00 0. -1.
</event>
<event>
 7    1  0.2578619E-015  0.9000769E+02  0.7816164E-02  0.1186339E+00
        -11   -1    0    0    0    0  0.00000000000E+00  0.00000000000E+00  0.45593999997E+02  0.45594000000E+02  0.51100000000E-03 0.  1.
         11   -1    0    0    0    0 -0.00000000000E+00 -0.00000000000E+00 -0.45593999997E+02  0.45594000000E+02  0.51100000000E-03 0. -1.
    9900012    2    1    2    0    0 -0.24563002282E+00  0.55059607927E+00 -0.10147183286E+01  0.90007685026E+02  0.89999945669E+02 0.  0.
        -12    1    1    2    0    0  0.24563002282E+00 -0.55059607927E+00  0.10147183286E+01  0.11803149737E+01  0.00000000000E+00 0.  1.
         11    1    3    3    0    0  0.76492394817E+01  0.65372461245E-01  0.12408015728E+02  0.14576487669E+02  0.51100000000E-03 0. -1.
        -11    1    3    3    0    0 -0.18458741210E+02  0.16087469175E+02  0.23525728053E+02  0.33955731066E+02  0.51100000000E-03 0.  1.
         12    1    3    3    0    0  0.10563871705E+02 -0.15602245557E+02 -0.36948462110E+02  0.41475466291E+02  0.00000000000E+00 0. -1.
</event>
<event>
 7    1  0.2578619E-015  0.9000780E+02  0.7816164E-02  0.1186339E+00
        -11   -1    0    0    0    0  0.00000000000E+00  0.00000000000E+00  0.45593999997E+02  0.45594000000E+02  0.51100000000E-03 0.  1.
         11   -1    0    0    0    0 -0.00000000000E+00 -0.00000000000E+00 -0.45593999997E+02  0.45594000000E+02  0.51100000000E-03 0. -1.
    9900012    2    1    2    0    0  0.17681586000E+00  0.11491885905E+01 -0.20243610776E+00  0.90007797203E+02  0.90000059326E+02 0.  0.
        -12    1    1    2    0    0 -0.17681586000E+00 -0.11491885905E+01  0.20243610776E+00  0.11802027972E+01  0.00000000000E+00 0.  1.
         11    1    3    3    0    0  0.15105538128E+02 -0.24559126339E+02 -0.28047198035E+02  0.40224038666E+02  0.51100000000E-03 0. -1.
        -11    1    3    3    0    0 -0.51547589374E+01 -0.60784714992E+01  0.62997817853E+01  0.10159065226E+02  0.51100000000E-03 0.  1.
        -12    1    3    3    0    0 -0.97739633310E+01  0.31786786429E+02  0.21544980142E+02  0.39624693311E+02  0.00000000000E+00 0.  1.
</event>
<event>
 7    1  0.2578619E-015  0.9000766E+02  0.7816164E-02  0.1186339E+00
        -11   -1    0    0    0    0  0.00000000000E+00  0.00000000000E+00  0.45593999997E+02  0.45594000000E+02  0.51100000000E-03 0. -1.
         11   -1    0    0    0    0 -0.00000000000E+00 -0.00000000000E+00 -0.45593999997E+02  0.45594000000E+02  0.51100000000E-03 0.  1.
    9900012    2    1    2    0    0 -0.90217971170E+00 -0.75404720545E+00 -0.10342785925E+00  0.90007655668E+02  0.89999915923E+02 0.  0.
        -12    1    1    2    0    0  0.90217971170E+00  0.75404720545E+00  0.10342785925E+00  0.11803443321E+01  0.00000000000E+00 0.  1.
         11    1    3    3    0    0  0.12481656689E+02 -0.33277901455E+02  0.69536423174E+01  0.36215516298E+02  0.51100000000E-03 0. -1.
        -11    1    3    3    0    0  0.45420771320E+00 -0.82422703550E+01  0.42453063499E+01  0.92824539599E+01  0.51100000000E-03 0.  1.
        -12    1    3    3    0    0 -0.13838044114E+02  0.40766124605E+02 -0.11302376527E+02  0.44509685410E+02  0.00000000000E+00 0.  1.
</event>
<event>
 7    1  0.2578619E-015  0.9000783E+02  0.7816164E-02  0.1186339E+00
        -11   -1    0    0    0    0  0.00000000000E+00  0.00000000000E+00  0.45593999997E+02  0.45594000000E+02  0.51100000000E-03 0.  1.
         11   -1    0    0    0    0 -0.00000000000E+00 -0.00000000000E+00 -0.45593999997E+02  0.45594000000E+02  0.51100000000E-03 0. -1.
    9900012    2    1    2    0    0 -0.28746025046E+00  0.94990497611E+00 -0.63863574008E+00  0.90007826933E+02  0.90000089449E+02 0.  0.
        -12    1    1    2    0    0  0.28746025046E+00 -0.94990497611E+00  0.63863574008E+00  0.11801730669E+01  0.00000000000E+00 0.  1.
         11    1    3    3    0    0 -0.82327384229E+01  0.14704390932E+02 -0.14799911219E+02  0.22428429882E+02  0.51100000000E-03 0. -1.
        -11    1    3    3    0    0  0.13577112075E+02  0.19081245097E+02  0.23298285870E+02  0.33033952405E+02  0.51100000000E-03 0.  1.
         12    1    3    3    0    0 -0.56318339028E+01 -0.32835731053E+02 -0.91370103907E+01  0.34545444646E+02  0.00000000000E+00 0. -1.
</event>
<event>
 7    1  0.2578619E-015  0.9000769E+02  0.7816164E-02  0.1186339E+00
        -11   -1    0    0    0    0  0.00000000000E+00  0.00000000000E+00  0.45593999997E+02  0.45594000000E+02  0.51100000000E-03 0.  1.
         11   -1    0    0    0    0 -0.00000000000E+00 -0.00000000000E+00 -0.45593999997E+02  0.45594000000E+02  0.51100000000E-03 0. -1.
    9900012    2    1    2    0    0 -0.30019185873E+00  0.10138217617E+01 -0.52458659694E+00  0.90007686137E+02  0.89999946794E+02 0.  0.
        -12    1    1    2    0    0  0.30019185873E+00 -0.10138217617E+01  0.52458659694E+00  0.11803138626E+01  0.00000000000E+00 0.  1.
         11    1    3    3    0    0 -0.23343302878E+02  0.80597957067E+01 -0.25365126024E+02  0.35401408370E+02  0.51100000000E-03 0. -1.
        -11    1    3    3    0    0  0.18811349767E+00  0.10982466713E+01 -0.11147639650E+02  0.11203187157E+02  0.51100000000E-03 0.  1.
        -12    1    3    3    0    0  0.22854997522E+02 -0.81442206162E+01  0.35988179078E+02  0.43403090610E+02  0.00000000000E+00 0.  1.
</event>
<event>
 7    1  0.2578619E-015  0.9000775E+02  0.7816164E-02  0.1186339E+00
        -11   -1    0    0    0    0  0.00000000000E+00  0.00000000000E+00  0.45593999997E+02  0.45594000000E+02  0.51100000000E-03 0.  1.
         11   -1    0    0    0    0 -0.00000000000E+00 -0.00000000000E+00 -0.45593999997E+02  0.45594000000E+02  0.51100000000E-03 0. -1.
    9900012    2    1    2    0    0 -0.10588766088E+01 -0.42670898732E+00 -0.29948552738E+00  0.90007749258E+02  0.90000010748E+02 0.  0.
        -12    1    1    2    0    0  0.10588766088E+01  0.42670898732E+00  0.29948552738E+00  0.11802507418E+01  0.00000000000E+00 0.  1.
         11    1    3    3    0    0 -0.37315745232E+01  0.93877918732E+01 -0.51394254825E+00  0.10115306317E+02  0.51100000000E-03 0. -1.
        -11    1    3    3    0    0 -0.29759190575E+02 -0.26523110038E+02  0.11869710318E+02  0.41592965908E+02  0.51100000000E-03 0.  1.
         12    1    3    3    0    0  0.32431888489E+02  0.16708609177E+02 -0.11655253297E+02  0.38299477033E+02  0.00000000000E+00 0. -1.
</event>
<event>
 7    1  0.2578619E-015  0.9000746E+02  0.7816164E-02  0.1186340E+00
        -11   -1    0    0    0    0  0.00000000000E+00  0.00000000000E+00  0.45593999997E+02  0.45594000000E+02  0.51100000000E-03 0. -1.
         11   -1    0    0    0    0 -0.00000000000E+00 -0.00000000000E+00 -0.45593999997E+02  0.45594000000E+02  0.51100000000E-03 0.  1.
    9900012    2    1    2    0    0  0.55681075778E+00  0.86721593268E+00  0.57583280705E+00  0.90007455585E+02  0.89999713198E+02 0.  0.
        -12    1    1    2    0    0 -0.55681075778E+00 -0.86721593268E+00 -0.57583280705E+00  0.11805444149E+01  0.00000000000E+00 0.  1.
         11    1    3    3    0    0  0.55288269650E+01  0.36008110792E+02  0.54063308390E+01  0.36829069820E+02  0.51100000000E-03 0. -1.
        -11    1    3    3    0    0  0.33095408399E+01  0.78001833285E+01  0.25034194198E+01  0.88353284931E+01  0.51100000000E-03 0.  1.
        -12    1    3    3    0    0 -0.82815570471E+01 -0.42941078188E+02 -0.73339174517E+01  0.44343057272E+02  0.00000000000E+00 0.  1.
</event>
<event>
 7    1  0.2578619E-015  0.9000755E+02  0.7816164E-02  0.1186339E+00
        -11   -1    0    0    0    0  0.00000000000E+00  0.00000000000E+00  0.45593999997E+02  0.45594000000E+02  0.51100000000E-03 0. -1.
         11   -1    0    0    0    0 -0.00000000000E+00 -0.00000000000E+00 -0.45593999997E+02  0.45594000000E+02  0.51100000000E-03 0.  1.
    9900012    2    1    2    0    0 -0.29424415781E+00  0.26912871034E+00 -0.11110587341E+01  0.90007550341E+02  0.89999809205E+02 0.  0.
        -12    1    1    2    0    0  0.29424415781E+00 -0.26912871034E+00  0.11110587341E+01  0.11804496592E+01  0.00000000000E+00 0.  1.
         11    1    3    3    0    0 -0.33670255956E+02 -0.78200565310E+01 -0.14687478608E+02  0.37557441984E+02  0.51100000000E-03 0. -1.
        -11    1    3    3    0    0 -0.46378204484E+01  0.10575758072E+02 -0.11556451182E+01  0.11605669012E+02  0.51100000000E-03 0.  1.
        -12    1    3    3    0    0  0.38013832246E+02 -0.24865728310E+01  0.14732064992E+02  0.40844439345E+02  0.00000000000E+00 0.  1.
</event>
<event>
 7    1  0.2578619E-015  0.9000764E+02  0.7816164E-02  0.1186339E+00
        -11   -1    0    0    0    0  0.00000000000E+00  0.00000000000E+00  0.45593999997E+02  0.45594000000E+02  0.51100000000E-03 0.  1.
         11   -1    0    0    0    0 -0.00000000000E+00 -0.00000000000E+00 -0.45593999997E+02  0.45594000000E+02  0.51100000000E-03 0. -1.
    9900012    2    1    2    0    0 -0.24539077394E+00  0.50145342699E+00 -0.10399866441E+01  0.90007642261E+02  0.89999902339E+02 0.  0.
        -12    1    1    2    0    0  0.24539077394E+00 -0.50145342699E+00  0.10399866441E+01  0.11803577387E+01  0.00000000000E+00 0.  1.
         11    1    3    3    0    0  0.65913532892E+01  0.60652051469E+01  0.36256039677E+01  0.96632114770E+01  0.51100000000E-03 0. -1.
        -11    1    3    3    0    0 -0.40522530841E+02 -0.16938020411E+02  0.28207115542E+01  0.44010549362E+02  0.51100000000E-03 0.  1.
         12    1    3    3    0    0  0.33685786778E+02  0.11374268691E+02 -0.74863021661E+01  0.36333881422E+02  0.00000000000E+00 0. -1.
</event>
<event>
 7    1  0.2578619E-015  0.9000780E+02  0.7816164E-02  0.1186339E+00
        -11   -1    0    0    0    0  0.00000000000E+00  0.00000000000E+00  0.45593999997E+02  0.45594000000E+02  0.51100000000E-03 0. -1.
         11   -1    0    0    0    0 -0.00000000000E+00 -0.00000000000E+00 -0.45593999997E+02  0.45594000000E+02  0.51100000000E-03 0.  1.
    9900012    2    1    2    0    0  0.21851715757E+00 -0.58081449336E+00  0.10038753984E+01  0.90007804660E+02  0.90000066882E+02 0.  0.
        -12    1    1    2    0    0 -0.21851715757E+00  0.58081449336E+00 -0.10038753984E+01  0.11801953395E+01  0.00000000000E+00 0.  1.
         11    1    3    3    0    0 -0.28818266376E+02 -0.38020193131E+01  0.21378097011E+02  0.36082833312E+02  0.51100000000E-03 0. -1.
        -11    1    3    3    0    0 -0.77407921209E+01 -0.55176805075E+00  0.48662526094E+01  0.91599522576E+01  0.51100000000E-03 0.  1.
        -12    1    3    3    0    0  0.36777575654E+02  0.37729728705E+01 -0.25240474222E+02  0.44765019091E+02  0.00000000000E+00 0.  1.
</event>
<event>
 7    1  0.2578619E-015  0.9000759E+02  0.7816164E-02  0.1186339E+00
        -11   -1    0    0    0    0  0.00000000000E+00  0.00000000000E+00  0.45593999997E+02  0.45594000000E+02  0.51100000000E-03 0. -1.
         11   -1    0    0    0    0 -0.00000000000E+00 -0.00000000000E+00 -0.45593999997E+02  0.45594000000E+02  0.51100000000E-03 0.  1.
    9900012    2    1    2    0    0  0.63192917835E-01  0.10350175368E+01  0.56401468210E+00  0.90007590237E+02  0.89999849628E+02 0.  0.
        -12    1    1    2    0    0 -0.63192917835E-01 -0.10350175368E+01 -0.56401468210E+00  0.11804097628E+01  0.00000000000E+00 0.  1.
         11    1    3    3    0    0 -0.85874004618E+01 -0.47602956917E+01  0.48812162456E+01  0.10964950253E+02  0.51100000000E-03 0. -1.
        -11    1    3    3    0    0 -0.14522184974E+02  0.22514126736E+01 -0.36430777681E+02  0.39283129689E+02  0.51100000000E-03 0.  1.
         12    1    3    3    0    0  0.23172778354E+02  0.35439005549E+01  0.32113576118E+02  0.39759510295E+02  0.00000000000E+00 0. -1.
</event>
<event>
 7    1  0.2578619E-015  0.9000772E+02  0.7816164E-02  0.1186339E+00
        -11   -1    0    0    0    0  0.00000000000E+00  0.00000000000E+00  0.45593999997E+02  0.45594000000E+02  0.51100000000E-03 0. -1.
         11   -1    0    0    0    0 -0.00000000000E+00 -0.00000000000E+00 -0.45593999997E+02  0.45594000000E+02  0.51100000000E-03 0.  1.
    9900012    2    1    2    0    0  0.60598461888E+00  0.58317472875E+00  0.82809515909E+00  0.90007723882E+02  0.89999985037E+02 0.  0.
        -12    1    1    2    0    0 -0.60598461888E+00 -0.58317472875E+00 -0.82809515909E+00  0.11802761182E+01  0.00000000000E+00 0.  1.
         11    1    3    3    0    0  0.45877831929E+01 -0.48574737456E+01  0.18897783672E+02  0.20044177055E+02  0.51100000000E-03 0. -1.
        -11    1    3    3    0    0  0.27015140972E+02 -0.11729287627E+02  0.14893682582E+01  0.29489188664E+02  0.51100000000E-03 0.  1.
        -12    1    3    3    0    0 -0.30996939546E+02  0.17169936101E+02 -0.19559056771E+02  0.40474358163E+02  0.00000000000E+00 0.  1.
</event>
<event>
 7    1  0.2578619E-015  0.9000794E+02  0.7816164E-02  0.1186339E+00
        -11   -1    0    0    0    0  0.00000000000E+00  0.00000000000E+00  0.45593999997E+02  0.45594000000E+02  0.51100000000E-03 0.  1.
         11   -1    0    0    0    0 -0.00000000000E+00 -0.00000000000E+00 -0.45593999997E+02  0.45594000000E+02  0.51100000000E-03 0. -1.
    9900012    2    1    2    0    0  0.60616118918E+00 -0.55719071341E+00  0.84536899597E+00  0.90007939994E+02  0.90000204002E+02 0.  0.
        -12    1    1    2    0    0 -0.60616118918E+00  0.55719071341E+00 -0.84536899597E+00  0.11800600060E+01  0.00000000000E+00 0.  1.
         11    1    3    3    0    0 -0.29308291618E+00  0.82790791481E+01 -0.76997879709E+01  0.11309986039E+02  0.51100000000E-03 0. -1.
        -11    1    3    3    0    0 -0.54594383376E+01  0.15450930260E+02  0.37170763331E+02  0.40622682823E+02  0.51100000000E-03 0.  1.
         12    1    3    3    0    0  0.63586824430E+01 -0.24287200121E+02 -0.28625606364E+02  0.38075271133E+02  0.00000000000E+00 0. -1.
</event>
<event>
 7    1  0.2578619E-015  0.9000766E+02  0.7816164E-02  0.1186339E+00
        -11   -1    0    0    0    0  0.00000000000E+00  0.00000000000E+00  0.45593999997E+02  0.45594000000E+02  0.51100000000E-03 0.  1.
         11   -1    0    0    0    0 -0.00000000000E+00 -0.00000000000E+00 -0.45593999997E+02  0.45594000000E+02  0.51100000000E-03 0. -1.
    9900012    2    1    2    0    0 -0.10995788155E+01 -0.40868988168E+00 -0.13073845611E+00  0.90007663804E+02  0.89999924167E+02 0.  0.
        -12    1    1    2    0    0  0.10995788155E+01  0.40868988168E+00  0.13073845611E+00  0.11803361956E+01  0.00000000000E+00 0.  1.
         11    1    3    3    0    0 -0.76822484992E+01  0.22524844887E+01  0.60484622782E+01  0.10033669546E+02  0.51100000000E-03 0. -1.
        -11    1    3    3    0    0  0.33665364964E+02  0.98291534632E+01  0.19928048132E+02  0.40337280010E+02  0.51100000000E-03 0.  1.
         12    1    3    3    0    0 -0.27082695280E+02 -0.12490327834E+02 -0.26107248866E+02  0.39636714248E+02  0.00000000000E+00 0. -1.
</event>
<event>
 7    1  0.2578619E-015  0.9000770E+02  0.7816164E-02  0.1186339E+00
        -11   -1    0    0    0    0  0.00000000000E+00  0.00000000000E+00  0.45593999997E+02  0.45594000000E+02  0.51100000000E-03 0. -1.
         11   -1    0    0    0    0 -0.00000000000E+00 -0.00000000000E+00 -0.45593999997E+02  0.45594000000E+02  0.51100000000E-03 0.  1.
    9900012    2    1    2    0    0  0.18948523324E+00 -0.11597184295E+01  0.11066617763E+00  0.90007704066E+02  0.89999964959E+02 0.  0.
        -12    1    1    2    0    0 -0.18948523324E+00  0.11597184295E+01 -0.11066617763E+00  0.11802959342E+01  0.00000000000E+00 0.  1.
         11    1    3    3    0    0  0.12226777957E+02  0.33114950052E+02 -0.13325898797E+02  0.37731599425E+02  0.51100000000E-03 0. -1.
        -11    1    3    3    0    0  0.14535059038E+00  0.67428994046E+01  0.56208717222E+01  0.87796365729E+01  0.51100000000E-03 0.  1.
        -12    1    3    3    0    0 -0.12182643314E+02 -0.41017567886E+02  0.78156932527E+01  0.43496468068E+02  0.00000000000E+00 0.  1.
</event>
<event>
 7    1  0.2578619E-015  0.9000775E+02  0.7816164E-02  0.1186339E+00
        -11   -1    0    0    0    0  0.00000000000E+00  0.00000000000E+00  0.45593999997E+02  0.45594000000E+02  0.51100000000E-03 0. -1.
         11   -1    0    0    0    0 -0.00000000000E+00 -0.00000000000E+00 -0.45593999997E+02  0.45594000000E+02  0.51100000000E-03 0.  1.
    9900012    2    1    2    0    0 -0.94731761833E+00 -0.37631753555E+00  0.59494109718E+00  0.90007754065E+02  0.90000015619E+02 0.  0.
        -12    1    1    2    0    0  0.94731761833E+00  0.37631753555E+00 -0.59494109718E+00  0.11802459348E+01  0.00000000000E+00 0.  1.
         11    1    3    3    0    0  0.40860738336E+01 -0.79166465418E+01  0.21067052223E+02  0.22873346529E+02  0.51100000000E-03 0. -1.
        -11    1    3    3    0    0  0.25890769149E+02 -0.90248825781E+01 -0.20117386102E+01  0.27492317567E+02  0.51100000000E-03 0.  1.
        -12    1    3    3    0    0 -0.30924160601E+02  0.16565211584E+02 -0.18460372515E+02  0.39642089969E+02  0.00000000000E+00 0.  1.
</event>
<event>
 8    1  0.2578619E-015  0.9000765E+02  0.7816164E-02  0.1186339E+00
        -11   -1    0    0    0    0  0.00000000000E+00  0.00000000000E+00  0.45593999997E+02  0.45594000000E+02  0.51100000000E-03 0.  1.
         11   -1    0    0    0    0 -0.00000000000E+00 -0.00000000000E+00 -0.45593999997E+02  0.45594000000E+02  0.51100000000E-03 0. -1.
    9900012    2    1    2    0    0  0.21570358482E+00  0.16407203219E+00 -0.11488121073E+01  0.90007653896E+02  0.89999914127E+02 0.  0.
         23    2    3    3    0    0 -0.60919085742E+01  0.12963435356E+02  0.22375626307E+02  0.62493859622E+02  0.56565465007E+02 0.  0.
        -12    1    1    2    0    0 -0.21570358482E+00 -0.16407203219E+00  0.11488121073E+01  0.11803461044E+01  0.00000000000E+00 0.  1.
         11    1    4    4    0    0  0.11016268661E+02  0.20205769983E+02 -0.10058538763E+02  0.25115841975E+02  0.51100000000E-03 0. -1.
        -11    1    4    4    0    0 -0.17108177235E+02 -0.72423346272E+01  0.32434165070E+02  0.37378017647E+02  0.51100000000E-03 0.  1.
         12    1    3    3    0    0  0.63076121590E+01 -0.12799363324E+02 -0.23524438414E+02  0.27513794274E+02  0.00000000000E+00 0. -1.
</event>
<event>
 7    1  0.2578619E-015  0.9000773E+02  0.7816164E-02  0.1186339E+00
        -11   -1    0    0    0    0  0.00000000000E+00  0.00000000000E+00  0.45593999997E+02  0.45594000000E+02  0.51100000000E-03 0.  1.
         11   -1    0    0    0    0 -0.00000000000E+00 -0.00000000000E+00 -0.45593999997E+02  0.45594000000E+02  0.51100000000E-03 0. -1.
    9900012    2    1    2    0    0 -0.93178100611E+00  0.27606576188E+00  0.66977977201E+00  0.90007731771E+02  0.89999993031E+02 0.  0.
        -12    1    1    2    0    0  0.93178100611E+00 -0.27606576188E+00 -0.66977977201E+00  0.11802682285E+01  0.00000000000E+00 0.  1.
         11    1    3    3    0    0  0.28715614409E+01  0.73612516221E+01  0.55883040402E+01  0.96779663597E+01  0.51100000000E-03 0. -1.
        -11    1    3    3    0    0 -0.16075417215E+02  0.22116471334E+02  0.24786850851E+02  0.36904543328E+02  0.51100000000E-03 0.  1.
         12    1    3    3    0    0  0.12272074768E+02 -0.29201657194E+02 -0.29705375119E+02  0.43425222083E+02  0.00000000000E+00 0. -1.
</event>
<event>
 7    1  0.2578619E-015  0.9000746E+02  0.7816164E-02  0.1186340E+00
        -11   -1    0    0    0    0  0.00000000000E+00  0.00000000000E+00  0.45593999997E+02  0.45594000000E+02  0.51100000000E-03 0. -1.
         11   -1    0    0    0    0 -0.00000000000E+00 -0.00000000000E+00 -0.45593999997E+02  0.45594000000E+02  0.51100000000E-03 0.  1.
    9900012    2    1    2    0    0 -0.35433303077E+00 -0.50518949434E+00  0.10064319254E+01  0.90007460487E+02  0.89999718165E+02 0.  0.
        -12    1    1    2    0    0  0.35433303077E+00  0.50518949434E+00 -0.10064319254E+01  0.11805395133E+01  0.00000000000E+00 0.  1.
         11    1    3    3    0    0 -0.19507745860E+02  0.19289810386E+02  0.30215044472E+02  0.40811736620E+02  0.51100000000E-03 0. -1.
        -11    1    3    3    0    0  0.15440359936E+01  0.71861575474E+01 -0.48725470097E+01  0.88185385449E+01  0.51100000000E-03 0.  1.
        -12    1    3    3    0    0  0.17609376835E+02 -0.26981157428E+02 -0.24336065537E+02  0.40377185322E+02  0.00000000000E+00 0.  1.
</event>
<event>
 7    1  0.2578619E-015  0.9000778E+02  0.7816164E-02  0.1186339E+00
        -11   -1    0    0    0    0  0.00000000000E+00  0.00000000000E+00  0.45593999997E+02  0.45594000000E+02  0.51100000000E-03 0.  1.
         11   -1    0    0    0    0 -0.00000000000E+00 -0.00000000000E+00 -0.45593999997E+02  0.45594000000E+02  0.51100000000E-03 0. -1.
    9900012    2    1    2    0    0 -0.74799985227E+00 -0.70749420877E+00 -0.57694480850E+00  0.90007780890E+02  0.90000042798E+02 0.  0.
        -12    1    1    2    0    0  0.74799985227E+00  0.70749420877E+00  0.57694480850E+00  0.11802191095E+01  0.00000000000E+00 0.  1.
         11    1    3    3    0    0 -0.29134046288E+02  0.19581878027E+02  0.38472498853E+01  0.35313509201E+02  0.51100000000E-03 0. -1.
        -11    1    3    3    0    0 -0.52698138309E+01  0.68288104694E+01  0.56533767235E+01  0.10313304945E+02  0.51100000000E-03 0.  1.
        -12    1    3    3    0    0  0.33655860266E+02 -0.27118182705E+02 -0.10077571417E+02  0.44380966745E+02  0.00000000000E+00 0.  1.
</event>
<event>
 7    1  0.2578619E-015  0.9000769E+02  0.7816164E-02  0.1186339E+00
        -11   -1    0    0    0    0  0.00000000000E+00  0.00000000000E+00  0.45593999997E+02  0.45594000000E+02  0.51100000000E-03 0. -1.
         11   -1    0    0    0    0 -0.00000000000E+00 -0.00000000000E+00 -0.45593999997E+02  0.45594000000E+02  0.51100000000E-03 0.  1.
    9900012    2    1    2    0    0 -0.44383769062E+00  0.64997499387E+00  0.87959099719E+00  0.90007686605E+02  0.89999947268E+02 0.  0.
        -12    1    1    2    0    0  0.44383769062E+00 -0.64997499387E+00 -0.87959099719E+00  0.11803133951E+01  0.00000000000E+00 0.  1.
         11    1    3    3    0    0 -0.53867283200E+01  0.26950973865E+01 -0.12353132585E+02  0.13743372106E+02  0.51100000000E-03 0. -1.
        -11    1    3    3    0    0  0.69084749533E+01  0.79934992992E+01 -0.30016637000E+02  0.31821715138E+02  0.51100000000E-03 0.  1.
         12    1    3    3    0    0 -0.19655843239E+01 -0.10038621692E+02  0.43249360583E+02  0.44442599361E+02  0.00000000000E+00 0. -1.
</event>
<event>
 7    1  0.2578619E-015  0.9000771E+02  0.7816164E-02  0.1186339E+00
        -11   -1    0    0    0    0  0.00000000000E+00  0.00000000000E+00  0.45593999997E+02  0.45594000000E+02  0.51100000000E-03 0. -1.
         11   -1    0    0    0    0 -0.00000000000E+00 -0.00000000000E+00 -0.45593999997E+02  0.45594000000E+02  0.51100000000E-03 0.  1.
    9900012    2    1    2    0    0 -0.73375338826E-02 -0.51056832000E+00  0.10641197854E+01  0.90007709880E+02  0.89999970851E+02 0.  0.
        -12    1    1    2    0    0  0.73375338826E-02  0.51056832000E+00 -0.10641197854E+01  0.11802901196E+01  0.00000000000E+00 0.  1.
         11    1    3    3    0    0  0.64603572639E+01  0.23794599127E+01  0.60886105716E+01  0.91907140314E+01  0.51100000000E-03 0. -1.
        -11    1    3    3    0    0 -0.34714005858E+02 -0.19721637827E+02  0.14616610436E+02  0.42516473304E+02  0.51100000000E-03 0.  1.
         12    1    3    3    0    0  0.28246311060E+02  0.16831609594E+02 -0.19641101222E+02  0.38300522545E+02  0.00000000000E+00 0. -1.
</event>
<event>
 7    1  0.2578619E-015  0.9000777E+02  0.7816164E-02  0.1186339E+00
        -11   -1    0    0    0    0  0.00000000000E+00  0.00000000000E+00  0.45593999997E+02  0.45594000000E+02  0.51100000000E-03 0. -1.
         11   -1    0    0    0    0 -0.00000000000E+00 -0.00000000000E+00 -0.45593999997E+02  0.45594000000E+02  0.51100000000E-03 0.  1.
    9900012    2    1    2    0    0 -0.60540858079E-01 -0.10320942839E+01  0.56926950818E+00  0.90007766303E+02  0.90000028018E+02 0.  0.
        -12    1    1    2    0    0  0.60540858079E-01  0.10320942839E+01 -0.56926950818E+00  0.11802336969E+01  0.00000000000E+00 0.  1.
         11    1    3    3    0    0  0.27740750171E+02 -0.18530319817E+02  0.11089492198E+02  0.35155352509E+02  0.51100000000E-03 0. -1.
        -11    1    3    3    0    0  0.98212326576E+01  0.29441280217E+01 -0.10270219024E+02  0.14512129402E+02  0.51100000000E-03 0.  1.
        -12    1    3    3    0    0 -0.37622523687E+02  0.14554097511E+02 -0.25000366612E+00  0.40340284392E+02  0.00000000000E+00 0.  1.
</event>
<event>
 7    1  0.2578619E-015  0.9000766E+02  0.7816164E-02  0.1186339E+00
        -11   -1    0    0    0    0  0.00000000000E+00  0.00000000000E+00  0.45593999997E+02  0.45594000000E+02  0.51100000000E-03 0.  1.
         11   -1    0    0    0    0 -0.00000000000E+00 -0.00000000000E+00 -0.45593999997E+02  0.45594000000E+02  0.51100000000E-03 0. -1.
    9900012    2    1    2    0    0 -0.11571704948E+01  0.99755674819E-02  0.23252494209E+00  0.90007656442E+02  0.89999916707E+02 0.  0.
        -12    1    1    2    0    0  0.11571704948E+01 -0.99755674819E-02 -0.23252494209E+00  0.11803435579E+01  0.00000000000E+00 0.  1.
         11    1    3    3    0    0  0.12936760760E+01  0.89116591016E+01  0.51171632980E+01  0.10357443034E+02  0.51100000000E-03 0. -1.
        -11    1    3    3    0    0 -0.26522802472E+02 -0.22774043407E+02  0.21741752185E+02  0.41168190298E+02  0.51100000000E-03 0.  1.
         12    1    3    3    0    0  0.24071955901E+02  0.13872359873E+02 -0.26626390541E+02  0.38482023109E+02  0.00000000000E+00 0. -1.
</event>
<event>
 7    1  0.2578619E-015  0.9000770E+02  0.7816164E-02  0.1186339E+00
        -11   -1    0    0    0    0  0.00000000000E+00  0.00000000000E+00  0.45593999997E+02  0.45594000000E+02  0.51100000000E-03 0.  1.
         11   -1    0    0    0    0 -0.00000000000E+00 -0.00000000000E+00 -0.45593999997E+02  0.45594000000E+02  0.51100000000E-03 0. -1.
    9900012    2    1    2    0    0  0.36476196570E+00 -0.25748142773E-01 -0.11222296508E+01  0.90007697646E+02  0.89999958455E+02 0.  0.
        -12    1    1    2    0    0 -0.36476196570E+00  0.25748142773E-01  0.11222296508E+01  0.11803023543E+01  0.00000000000E+00 0.  1.
         11    1    3    3    0    0 -0.43908225807E+01  0.16301262069E+01  0.68248582895E+01  0.82773984632E+01  0.51100000000E-03 0. -1.
        -11    1    3    3    0    0 -0.15533318033E+02 -0.38649815816E+01  0.32610513069E+02  0.36327229658E+02  0.51100000000E-03 0.  1.
         12    1    3    3    0    0  0.20288902579E+02  0.22091072319E+01 -0.40557601009E+02  0.45403069525E+02  0.00000000000E+00 0. -1.
</event>
<event>
 7    1  0.2578619E-015  0.9000774E+02  0.7816164E-02  0.1186339E+00
        -11   -1    0    0    0    0  0.00000000000E+00  0.00000000000E+00  0.45593999997E+02  0.45594000000E+02  0.51100000000E-03 0.  1.
         11   -1    0    0    0    0 -0.00000000000E+00 -0.00000000000E+00 -0.45593999997E+02  0.45594000000E+02  0.51100000000E-03 0. -1.
    9900012    2    1    2    0    0  0.54884064977E+00 -0.29742007935E+00 -0.10016681788E+01  0.90007735664E+02  0.89999996975E+02 0.  0.
        -12    1    1    2    0    0 -0.54884064977E+00  0.29742007935E+00  0.10016681788E+01  0.11802643360E+01  0.00000000000E+00 0.  1.
         11    1    3    3    0    0  0.14756415839E+02  0.10573552629E+02 -0.32001587132E+02  0.36792029067E+02  0.51100000000E-03 0. -1.
        -11    1    3    3    0    0  0.41566437628E+01  0.44506852014E+01 -0.63924532930E+01  0.88289153069E+01  0.51100000000E-03 0.  1.
        -12    1    3    3    0    0 -0.18364218952E+02 -0.15321657910E+02  0.37392372246E+02  0.44386791290E+02  0.00000000000E+00 0.  1.
</event>
<event>
 7    1  0.2578619E-015  0.9000770E+02  0.7816164E-02  0.1186339E+00
        -11   -1    0    0    0    0  0.00000000000E+00  0.00000000000E+00  0.45593999997E+02  0.45594000000E+02  0.51100000000E-03 0. -1.
         11   -1    0    0    0    0 -0.00000000000E+00 -0.00000000000E+00 -0.45593999997E+02  0.45594000000E+02  0.51100000000E-03 0.  1.
    9900012    2    1    2    0    0  0.83457122464E+00 -0.56211585362E+00 -0.61694915909E+00  0.90007699349E+02  0.89999960180E+02 0.  0.
        -12    1    1    2    0    0 -0.83457122464E+00  0.56211585362E+00  0.61694915909E+00  0.11803006510E+01  0.00000000000E+00 0.  1.
         11    1    3    3    0    0 -0.40653621014E+01 -0.97702321781E+00  0.61954968580E+01  0.74743511399E+01  0.51100000000E-03 0. -1.
        -11    1    3    3    0    0 -0.36502763655E+02  0.65518781002E+01  0.83536749651E+01  0.38015296221E+02  0.51100000000E-03 0.  1.
         12    1    3    3    0    0  0.41402696981E+02 -0.61369707360E+01 -0.15166120982E+02  0.44518051988E+02  0.00000000000E+00 0. -1.
</event>
<event>
 7    1  0.2578619E-015  0.9000768E+02  0.7816164E-02  0.1186339E+00
        -11   -1    0    0    0    0  0.00000000000E+00  0.00000000000E+00  0.45593999997E+02  0.45594000000E+02  0.51100000000E-03 0. -1.
         11   -1    0    0    0    0 -0.00000000000E+00 -0.00000000000E+00 -0.45593999997E+02  0.45594000000E+02  0.51100000000E-03 0.  1.
    9900012    2    1    2    0    0 -0.42031094017E+00  0.10014988602E+01 -0.46206092258E+00  0.90007677354E+02  0.89999937895E+02 0.  0.
        -12    1    1    2    0    0  0.42031094017E+00 -0.10014988602E+01  0.46206092258E+00  0.11803226464E+01  0.00000000000E+00 0.  1.
         11    1    3    3    0    0 -0.31209497562E+02 -0.11714917051E+02 -0.16383663121E+02  0.37144265198E+02  0.51100000000E-03 0. -1.
        -11    1    3    3    0    0 -0.55770220832E+01  0.72825732531E+01 -0.51135767693E+01  0.10501795853E+02  0.51100000000E-03 0.  1.
        -12    1    3    3    0    0  0.36366208705E+02  0.54338426577E+01  0.21035178967E+02  0.42361616303E+02  0.00000000000E+00 0.  1.
</event>
<event>
 7    1  0.2578619E-015  0.9000785E+02  0.7816164E-02  0.1186339E+00
        -11   -1    0    0    0    0  0.00000000000E+00  0.00000000000E+00  0.45593999997E+02  0.45594000000E+02  0.51100000000E-03 0.  1.
         11   -1    0    0    0    0 -0.00000000000E+00 -0.00000000000E+00 -0.45593999997E+02  0.45594000000E+02  0.51100000000E-03 0. -1.
    9900012    2    1    2    0    0 -0.84621904776E+00  0.41400580873E+00 -0.71082874345E+00  0.90007845354E+02  0.90000108112E+02 0.  0.
        -12    1    1    2    0    0  0.84621904776E+00 -0.41400580873E+00  0.71082874345E+00  0.11801546462E+01  0.00000000000E+00 0.  1.
         11    1    3    3    0    0 -0.23376435813E+02 -0.28871663737E+02 -0.88874272536E+01  0.38197082110E+02  0.51100000000E-03 0. -1.
        -11    1    3    3    0    0 -0.83672235026E+01 -0.28081442509E+00  0.19377993760E+01  0.85932736816E+01  0.51100000000E-03 0.  1.
        -12    1    3    3    0    0  0.30897440267E+02  0.29566483971E+02  0.62387991341E+01  0.43217489563E+02  0.00000000000E+00 0.  1.
</event>
<event>
 7    1  0.2578619E-015  0.9000777E+02  0.7816164E-02  0.1186339E+00
        -11   -1    0    0    0    0  0.00000000000E+00  0.00000000000E+00  0.45593999997E+02  0.45594000000E+02  0.51100000000E-03 0.  1.
         11   -1    0    0    0    0 -0.00000000000E+00 -0.00000000000E+00 -0.45593999997E+02  0.45594000000E+02  0.51100000000E-03 0. -1.
    9900012    2    1    2    0    0  0.95929724422E+00 -0.11477246650E+00 -0.67788259335E+00  0.90007767509E+02  0.90000029240E+02 0.  0.
        -12    1    1    2    0    0 -0.95929724422E+00  0.11477246650E+00  0.67788259335E+00  0.11802324907E+01  0.00000000000E+00 0.  1.
         11    1    3    3    0    0 -0.27448359687E+02 -0.18905661447E+02  0.17475539208E+02  0.37632844101E+02  0.51100000000E-03 0. -1.
        -11    1    3    3    0    0 -0.35969126557E+01 -0.69376261170E+01 -0.49060692867E+01  0.92270229706E+01  0.51100000000E-03 0.  1.
        -12    1    3    3    0    0  0.32004569587E+02  0.25728515097E+02 -0.13247352515E+02  0.43147900438E+02  0.00000000000E+00 0.  1.
</event>
<event>
 7    1  0.2578619E-015  0.9000771E+02  0.7816164E-02  0.1186339E+00
        -11   -1    0    0    0    0  0.00000000000E+00  0.00000000000E+00  0.45593999997E+02  0.45594000000E+02  0.51100000000E-03 0.  1.
         11   -1    0    0    0    0 -0.00000000000E+00 -0.00000000000E+00 -0.45593999997E+02  0.45594000000E+02  0.51100000000E-03 0. -1.
    9900012    2    1    2    0    0  0.89327234034E+00  0.22505508713E+00 -0.73790270638E+00  0.90007709497E+02  0.89999970463E+02 0.  0.
        -12    1    1    2    0    0 -0.89327234034E+00 -0.22505508713E+00  0.73790270638E+00  0.11802905025E+01  0.00000000000E+00 0.  1.
         11    1    3    3    0    0  0.14056284744E+02 -0.11214386964E+02 -0.29460269842E+02  0.34514476893E+02  0.51100000000E-03 0. -1.
        -11    1    3    3    0    0  0.64881767010E+00 -0.32873387677E+01 -0.10694036218E+02  0.11206693154E+02  0.51100000000E-03 0.  1.
        -12    1    3    3    0    0 -0.13811830073E+02  0.14726780818E+02  0.39416403354E+02  0.44286539451E+02  0.00000000000E+00 0.  1.
</event>
<event>
 7    1  0.2578619E-015  0.9000779E+02  0.7816164E-02  0.1186339E+00
        -11   -1    0    0    0    0  0.00000000000E+00  0.00000000000E+00  0.45593999997E+02  0.45594000000E+02  0.51100000000E-03 0. -1.
         11   -1    0    0    0    0 -0.00000000000E+00 -0.00000000000E+00 -0.45593999997E+02  0.45594000000E+02  0.51100000000E-03 0.  1.
    9900012    2    1    2    0    0 -0.73542310908E+00  0.28762970162E-01  0.92261844993E+00  0.90007788467E+02  0.90000050475E+02 0.  0.
        -12    1    1    2    0    0  0.73542310908E+00 -0.28762970162E-01 -0.92261844993E+00  0.11802115327E+01  0.00000000000E+00 0.  1.
         11    1    3    3    0    0  0.68180957031E+01  0.35317360497E+02  0.14101472704E+02  0.38634879503E+02  0.51100000000E-03 0. -1.
        -11    1    3    3    0    0  0.82750221937E+01  0.11301972022E+01 -0.75641690024E+01  0.11268096156E+02  0.51100000000E-03 0.  1.
        -12    1    3    3    0    0 -0.15828541006E+02 -0.36418794730E+02 -0.56146852515E+01  0.40104812808E+02  0.00000000000E+00 0.  1.
</event>
<event>
 7    1  0.2578619E-015  0.9000774E+02  0.7816164E-02  0.1186339E+00
        -11   -1    0    0    0    0  0.00000000000E+00  0.00000000000E+00  0.45593999997E+02  0.45594000000E+02  0.51100000000E-03 0.  1.
         11   -1    0    0    0    0 -0.00000000000E+00 -0.00000000000E+00 -0.45593999997E+02  0.45594000000E+02  0.51100000000E-03 0. -1.
    9900012    2    1    2    0    0 -0.58921961677E+00  0.10134090366E+01  0.13721772322E+00  0.90007743106E+02  0.90000004515E+02 0.  0.
        -12    1    1    2    0    0  0.58921961677E+00 -0.10134090366E+01 -0.13721772322E+00  0.11802568940E+01  0.00000000000E+00 0.  1.
         11    1    3    3    0    0 -0.10029434507E+02  0.33434869497E+01 -0.51189051910E+01  0.11746133497E+02  0.51100000000E-03 0. -1.
        -11    1    3    3    0    0  0.21199685663E+02  0.29145203983E+02 -0.14990073969E+02  0.39032959218E+02  0.51100000000E-03 0.  1.
         12    1    3    3    0    0 -0.11759470772E+02 -0.31475281896E+02  0.20246196883E+02  0.39228650391E+02  0.00000000000E+00 0. -1.
</event>
<event>
 7    1  0.2578619E-015  0.9000773E+02  0.7816164E-02  0.1186339E+00
        -11   -1    0    0    0    0  0.00000000000E+00  0.00000000000E+00  0.45593999997E+02  0.45594000000E+02  0.51100000000E-03 0. -1.
         11   -1    0    0    0    0 -0.00000000000E+00 -0.00000000000E+00 -0.45593999997E+02  0.45594000000E+02  0.51100000000E-03 0.  1.
    9900012    2    1    2    0    0 -0.28526763917E+00 -0.19967815814E+00  0.11277410872E+01  0.90007725052E+02  0.89999986223E+02 0.  0.
        -12    1    1    2    0    0  0.28526763917E+00  0.19967815814E+00 -0.11277410872E+01  0.11802749479E+01  0.00000000000E+00 0.  1.
         11    1    3    3    0    0 -0.74737154208E+01  0.20452561887E+01 -0.70520016859E+01  0.10477128572E+02  0.51100000000E-03 0. -1.
        -11    1    3    3    0    0 -0.25670857719E+02 -0.26240313867E+02 -0.43287692698E+01  0.36963296004E+02  0.51100000000E-03 0.  1.
         12    1    3    3    0    0  0.32859305501E+02  0.23995379520E+02  0.12508512043E+02  0.42567300476E+02  0.00000000000E+00 0. -1.
</event>
<event>
 7    1  0.2578619E-015  0.9000783E+02  0.7816164E-02  0.1186339E+00
        -11   -1    0    0    0    0  0.00000000000E+00  0.00000000000E+00  0.45593999997E+02  0.45594000000E+02  0.51100000000E-03 0.  1.
         11   -1    0    0    0    0 -0.00000000000E+00 -0.00000000000E+00 -0.45593999997E+02  0.45594000000E+02  0.51100000000E-03 0. -1.
    9900012    2    1    2    0    0  0.48858734091E+00 -0.10602364605E+01  0.17318090604E+00  0.90007826043E+02  0.90000088547E+02 0.  0.
        -12    1    1    2    0    0 -0.48858734091E+00  0.10602364605E+01 -0.17318090604E+00  0.11801739567E+01  0.00000000000E+00 0.  1.
         11    1    3    3    0    0  0.35834246133E+02 -0.10513592426E+02  0.45490014979E+00  0.37347499998E+02  0.51100000000E-03 0. -1.
        -11    1    3    3    0    0  0.81977914671E+01  0.12572771500E+01 -0.94463293221E+00  0.83472667627E+01  0.51100000000E-03 0.  1.
        -12    1    3    3    0    0 -0.43543450260E+02  0.81960788160E+01  0.66291368845E+00  0.44313059283E+02  0.00000000000E+00 0.  1.
</event>
<event>
 7    1  0.2578619E-015  0.9000785E+02  0.7816164E-02  0.1186339E+00
        -11   -1    0    0    0    0  0.00000000000E+00  0.00000000000E+00  0.45593999997E+02  0.45594000000E+02  0.51100000000E-03 0.  1.
         11   -1    0    0    0    0 -0.00000000000E+00 -0.00000000000E+00 -0.45593999997E+02  0.45594000000E+02  0.51100000000E-03 0. -1.
    9900012    2    1    2    0    0  0.84446861567E-01  0.53743243238E+00 -0.10472744817E+01  0.90007852242E+02  0.90000115091E+02 0.  0.
        -12    1    1    2    0    0 -0.84446861567E-01 -0.53743243238E+00  0.10472744817E+01  0.11801477585E+01  0.00000000000E+00 0.  1.
         11    1    3    3    0    0 -0.48744831370E+01  0.85004397957E+01  0.50909179063E+01  0.11042441214E+02  0.51100000000E-03 0. -1.
        -11    1    3    3    0    0 -0.25306779079E+02  0.16436258952E+02 -0.21618576859E+02  0.37120702329E+02  0.51100000000E-03 0.  1.
         12    1    3    3    0    0  0.30265709078E+02 -0.24399266316E+02  0.15480384471E+02  0.41844708699E+02  0.00000000000E+00 0. -1.
</event>
<event>
 7    1  0.2578619E-015  0.9000771E+02  0.7816164E-02  0.1186339E+00
        -11   -1    0    0    0    0  0.00000000000E+00  0.00000000000E+00  0.45593999997E+02  0.45594000000E+02  0.51100000000E-03 0.  1.
         11   -1    0    0    0    0 -0.00000000000E+00 -0.00000000000E+00 -0.45593999997E+02  0.45594000000E+02  0.51100000000E-03 0. -1.
    9900012    2    1    2    0    0  0.17361693079E+00  0.85064360929E+00  0.79959686920E+00  0.90007706587E+02  0.89999967513E+02 0.  0.
        -12    1    1    2    0    0 -0.17361693079E+00 -0.85064360929E+00 -0.79959686920E+00  0.11802934135E+01  0.00000000000E+00 0.  1.
         11    1    3    3    0    0  0.12926988366E+02 -0.20590694387E+01  0.42499714177E+01  0.13762596139E+02  0.51100000000E-03 0. -1.
        -11    1    3    3    0    0 -0.31085038665E+02 -0.15678123028E+02  0.20848514273E+02  0.40580090170E+02  0.51100000000E-03 0.  1.
         12    1    3    3    0    0  0.18331667230E+02  0.18587836076E+02 -0.24298888822E+02  0.35665020278E+02  0.00000000000E+00 0. -1.
</event>
<event>
 7    1  0.2578619E-015  0.9000779E+02  0.7816164E-02  0.1186339E+00
        -11   -1    0    0    0    0  0.00000000000E+00  0.00000000000E+00  0.45593999997E+02  0.45594000000E+02  0.51100000000E-03 0.  1.
         11   -1    0    0    0    0 -0.00000000000E+00 -0.00000000000E+00 -0.45593999997E+02  0.45594000000E+02  0.51100000000E-03 0. -1.
    9900012    2    1    2    0    0 -0.11130528079E+01  0.39226657334E+00 -0.11480955219E-01  0.90007791785E+02  0.90000053837E+02 0.  0.
        -12    1    1    2    0    0  0.11130528079E+01 -0.39226657334E+00  0.11480955219E-01  0.11802082147E+01  0.00000000000E+00 0.  1.
         11    1    3    3    0    0  0.12966922965E+02  0.97747798003E+01 -0.58545641344E+00  0.16249005225E+02  0.51100000000E-03 0. -1.
        -11    1    3    3    0    0  0.25061396282E+02 -0.20222842015E+02 -0.55722325502E+01  0.32681595717E+02  0.51100000000E-03 0.  1.
        -12    1    3    3    0    0 -0.39141372056E+02  0.10840328788E+02  0.61462080084E+01  0.41077190843E+02  0.00000000000E+00 0.  1.
</event>
<event>
 7    1  0.2578619E-015  0.9000768E+02  0.7816164E-02  0.1186339E+00
        -11   -1    0    0    0    0  0.00000000000E+00  0.00000000000E+00  0.45593999997E+02  0.45594000000E+02  0.51100000000E-03 0.  1.
         11   -1    0    0    0    0 -0.00000000000E+00 -0.00000000000E+00 -0.45593999997E+02  0.45594000000E+02  0.51100000000E-03 0. -1.
    9900012    2    1    2    0    0 -0.23975946316E+00  0.11557153725E+01 -0.12293105403E-03  0.90007676893E+02  0.89999937428E+02 0.  0.
        -12    1    1    2    0    0  0.23975946316E+00 -0.11557153725E+01  0.12293105403E-03  0.11803231073E+01  0.00000000000E+00 0.  1.
         11    1    3    3    0    0  0.90447830360E+01  0.13528841782E+01 -0.28637190332E+01  0.95832814177E+01  0.51100000000E-03 0. -1.
        -11    1    3    3    0    0  0.30635686243E+02  0.14827635915E+02 -0.10680185710E+02  0.35671703428E+02  0.51100000000E-03 0.  1.
         12    1    3    3    0    0 -0.39920228742E+02 -0.15024804721E+02  0.13543781812E+02  0.44752692047E+02  0.00000000000E+00 0. -1.
</event>
<event>
 7    1  0.2578619E-015  0.9000825E+02  0.7816164E-02  0.1186338E+00
        -11   -1    0    0    0    0  0.00000000000E+00  0.00000000000E+00  0.45593999997E+02  0.45594000000E+02  0.51100000000E-03 0.  1.
         11   -1    0    0    0    0 -0.00000000000E+00 -0.00000000000E+00 -0.45593999997E+02  0.45594000000E+02  0.51100000000E-03 0. -1.
    9900012    2    1    2    0    0  0.73757900945E+00  0.84487378994E+00 -0.36603074261E+00  0.90008248746E+02  0.90000516828E+02 0.  0.
        -12    1    1    2    0    0 -0.73757900945E+00 -0.84487378994E+00  0.36603074261E+00  0.11797512537E+01  0.00000000000E+00 0.  1.
         11    1    3    3    0    0  0.16312077061E+02  0.16648603544E+02 -0.27713414482E+02  0.36211782620E+02  0.51100000000E-03 0. -1.
        -11    1    3    3    0    0  0.33327498954E+01  0.29603682359E+01 -0.82253176061E+01  0.93555786534E+01  0.51100000000E-03 0.  1.
        -12    1    3    3    0    0 -0.18907247947E+02 -0.18764097990E+02  0.35572701346E+02  0.44440887473E+02  0.00000000000E+00 0.  1.
</event>
<event>
 7    1  0.2578619E-015  0.9000770E+02  0.7816164E-02  0.1186339E+00
        -11   -1    0    0    0    0  0.00000000000E+00  0.00000000000E+00  0.45593999997E+02  0.45594000000E+02  0.51100000000E-03 0.  1.
         11   -1    0    0    0    0 -0.00000000000E+00 -0.00000000000E+00 -0.45593999997E+02  0.45594000000E+02  0.51100000000E-03 0. -1.
    9900012    2    1    2    0    0 -0.49929303968E+00 -0.90760417391E+00 -0.56573839318E+00  0.90007703933E+02  0.89999964825E+02 0.  0.
        -12    1    1    2    0    0  0.49929303968E+00  0.90760417391E+00  0.56573839318E+00  0.11802960669E+01  0.00000000000E+00 0.  1.
         11    1    3    3    0    0  0.13026477806E+02  0.52942609862E+00  0.36897731982E+02  0.39133260044E+02  0.51100000000E-03 0. -1.
        -11    1    3    3    0    0 -0.23896690588E+01 -0.10101294332E+02  0.48130280863E+00  0.10391261619E+02  0.51100000000E-03 0.  1.
        -12    1    3    3    0    0 -0.11136101787E+02  0.86642640591E+01 -0.37944773184E+02  0.40483182269E+02  0.00000000000E+00 0.  1.
</event>
<event>
 7    1  0.2578619E-015  0.9000778E+02  0.7816164E-02  0.1186339E+00
        -11   -1    0    0    0    0  0.00000000000E+00  0.00000000000E+00  0.45593999997E+02  0.45594000000E+02  0.51100000000E-03 0.  1.
         11   -1    0    0    0    0 -0.00000000000E+00 -0.00000000000E+00 -0.45593999997E+02  0.45594000000E+02  0.51100000000E-03 0. -1.
    9900012    2    1    2    0    0 -0.90342762452E+00 -0.31418228348E+00 -0.69140279870E+00  0.90007775526E+02  0.90000037363E+02 0.  0.
        -12    1    1    2    0    0  0.90342762452E+00  0.31418228348E+00  0.69140279870E+00  0.11802244744E+01  0.00000000000E+00 0.  1.
         11    1    3    3    0    0  0.30759414172E+01 -0.61961238518E+01  0.67751352367E+01  0.96827591174E+01  0.51100000000E-03 0. -1.
        -11    1    3    3    0    0  0.12190845504E+02  0.37528254800E+02  0.10029631746E+02  0.40713390127E+02  0.51100000000E-03 0.  1.
         12    1    3    3    0    0 -0.16170214546E+02 -0.31646313232E+02 -0.17496169781E+02  0.39611626281E+02  0.00000000000E+00 0. -1.
</event>
<event>
 7    1  0.2578619E-015  0.9000766E+02  0.7816164E-02  0.1186339E+00
        -11   -1    0    0    0    0  0.00000000000E+00  0.00000000000E+00  0.45593999997E+02  0.45594000000E+02  0.51100000000E-03 0.  1.
         11   -1    0    0    0    0 -0.00000000000E+00 -0.00000000000E+00 -0.45593999997E+02  0.45594000000E+02  0.51100000000E-03 0. -1.
    9900012    2    1    2    0    0  0.10617185382E+01  0.42322024677E+00  0.29470606697E+00  0.90007655433E+02  0.89999915684E+02 0.  0.
        -12    1    1    2    0    0 -0.10617185382E+01 -0.42322024677E+00 -0.29470606697E+00  0.11803445673E+01  0.00000000000E+00 0.  1.
         11    1    3    3    0    0  0.66737094281E+01 -0.51906297386E+01 -0.23265286002E+01  0.87689092938E+01  0.51100000000E-03 0. -1.
        -11    1    3    3    0    0  0.76345227367E+01 -0.23181024504E+02  0.30475139479E+02  0.39043308786E+02  0.51100000000E-03 0.  1.
         12    1    3    3    0    0 -0.13246513627E+02  0.28794874489E+02 -0.27853904812E+02  0.42195437352E+02  0.00000000000E+00 0. -1.
</event>
<event>
 7    1  0.2578619E-015  0.9000760E+02  0.7816164E-02  0.1186339E+00
        -11   -1    0    0    0    0  0.00000000000E+00  0.00000000000E+00  0.45593999997E+02  0.45594000000E+02  0.51100000000E-03 0. -1.
         11   -1    0    0    0    0 -0.00000000000E+00 -0.00000000000E+00 -0.45593999997E+02  0.45594000000E+02  0.51100000000E-03 0.  1.
    9900012    2    1    2    0    0 -0.11415666560E+01 -0.91539738290E-01  0.28599497439E+00  0.90007598763E+02  0.89999858267E+02 0.  0.
        -12    1    1    2    0    0  0.11415666560E+01  0.91539738290E-01 -0.28599497439E+00  0.11804012365E+01  0.00000000000E+00 0.  1.
         11    1    3    3    0    0  0.19569524737E+01  0.95124047976E+01  0.46653659328E+01  0.10774096137E+02  0.51100000000E-03 0. -1.
        -11    1    3    3    0    0  0.30024057116E+01  0.34082293678E+02  0.36150096583E+01  0.34404730452E+02  0.51100000000E-03 0.  1.
         12    1    3    3    0    0 -0.61009248413E+01 -0.43686238214E+02 -0.79943806168E+01  0.44828772174E+02  0.00000000000E+00 0. -1.
</event>
<event>
 7    1  0.2578619E-015  0.9000699E+02  0.7816164E-02  0.1186341E+00
        -11   -1    0    0    0    0  0.00000000000E+00  0.00000000000E+00  0.45593999997E+02  0.45594000000E+02  0.51100000000E-03 0.  1.
         11   -1    0    0    0    0 -0.00000000000E+00 -0.00000000000E+00 -0.45593999997E+02  0.45594000000E+02  0.51100000000E-03 0. -1.
    9900012    2    1    2    0    0 -0.42935073759E+00 -0.73683351222E+00 -0.81702094991E+00  0.90006988182E+02  0.89999239623E+02 0.  0.
        -12    1    1    2    0    0  0.42935073759E+00  0.73683351222E+00  0.81702094991E+00  0.11810118176E+01  0.00000000000E+00 0.  1.
         11    1    3    3    0    0 -0.29677705184E+02 -0.12572371056E+02  0.16652165937E+02  0.36278441664E+02  0.51100000000E-03 0. -1.
        -11    1    3    3    0    0  0.13210010689E+02  0.10467115775E+01  0.12401476158E+02  0.18149286451E+02  0.51100000000E-03 0.  1.
        -12    1    3    3    0    0  0.16038343758E+02  0.10788825966E+02 -0.29870663045E+02  0.35579260067E+02  0.00000000000E+00 0.  1.
</event>
<event>
 7    1  0.2578619E-015  0.9000783E+02  0.7816164E-02  0.1186339E+00
        -11   -1    0    0    0    0  0.00000000000E+00  0.00000000000E+00  0.45593999997E+02  0.45594000000E+02  0.51100000000E-03 0. -1.
         11   -1    0    0    0    0 -0.00000000000E+00 -0.00000000000E+00 -0.45593999997E+02  0.45594000000E+02  0.51100000000E-03 0.  1.
    9900012    2    1    2    0    0  0.11405544530E+01 -0.29233033257E+00  0.80429951386E-01  0.90007834562E+02  0.90000097178E+02 0.  0.
        -12    1    1    2    0    0 -0.11405544530E+01  0.29233033257E+00 -0.80429951386E-01  0.11801654379E+01  0.00000000000E+00 0.  1.
         11    1    3    3    0    0 -0.67097433636E+01  0.67518250500E+01 -0.55852345972E+01  0.11036423482E+02  0.51100000000E-03 0. -1.
        -11    1    3    3    0    0 -0.20460921192E+02 -0.60029067591E+01 -0.27856741945E+02  0.35081081193E+02  0.51100000000E-03 0.  1.
         12    1    3    3    0    0  0.28311219009E+02 -0.10412486235E+01  0.33522406494E+02  0.43890329887E+02  0.00000000000E+00 0. -1.
</event>
<event>
 7    1  0.2578619E-015  0.9000769E+02  0.7816164E-02  0.1186339E+00
        -11   -1    0    0    0    0  0.00000000000E+00  0.00000000000E+00  0.45593999997E+02  0.45594000000E+02  0.51100000000E-03 0. -1.
         11   -1    0    0    0    0 -0.00000000000E+00 -0.00000000000E+00 -0.45593999997E+02  0.45594000000E+02  0.51100000000E-03 0.  1.
    9900012    2    1    2    0    0 -0.11334519347E+01  0.30000346386E+00  0.13572355510E+00  0.90007688071E+02  0.89999948753E+02 0.  0.
        -12    1    1    2    0    0  0.11334519347E+01 -0.30000346386E+00 -0.13572355510E+00  0.11803119291E+01  0.00000000000E+00 0.  1.
         11    1    3    3    0    0  0.34934388239E+01  0.26765431584E+02  0.84574923368E+01  0.28286421116E+02  0.51100000000E-03 0. -1.
        -11    1    3    3    0    0  0.37126178491E+01  0.12259201728E+02  0.11689482969E+02  0.17341152518E+02  0.51100000000E-03 0.  1.
        -12    1    3    3    0    0 -0.83395086077E+01 -0.38724629848E+02 -0.20011251751E+02  0.44380114436E+02  0.00000000000E+00 0.  1.
</event>
<event>
 7    1  0.2578619E-015  0.9000775E+02  0.7816164E-02  0.1186339E+00
        -11   -1    0    0    0    0  0.00000000000E+00  0.00000000000E+00  0.45593999997E+02  0.45594000000E+02  0.51100000000E-03 0.  1.
         11   -1    0    0    0    0 -0.00000000000E+00 -0.00000000000E+00 -0.45593999997E+02  0.45594000000E+02  0.51100000000E-03 0. -1.
    9900012    2    1    2    0    0  0.76805752919E+00  0.52011324273E+00 -0.72976369873E+00  0.90007752056E+02  0.90000013583E+02 0.  0.
        -12    1    1    2    0    0 -0.76805752919E+00 -0.52011324273E+00  0.72976369873E+00  0.11802479440E+01  0.00000000000E+00 0.  1.
         11    1    3    3    0    0 -0.20595973039E+02  0.19209795488E+02 -0.23833071924E+02  0.36894791851E+02  0.51100000000E-03 0. -1.
        -11    1    3    3    0    0  0.67124242352E+01  0.99423946844E+01  0.16299444913E+02  0.20238076883E+02  0.51100000000E-03 0.  1.
        -12    1    3    3    0    0  0.14651606333E+02 -0.28632076930E+02  0.68038633121E+01  0.32874883322E+02  0.00000000000E+00 0.  1.
</event>
<event>
 7    1  0.2578619E-015  0.9000762E+02  0.7816164E-02  0.1186339E+00
        -11   -1    0    0    0    0  0.00000000000E+00  0.00000000000E+00  0.45593999997E+02  0.45594000000E+02  0.51100000000E-03 0. -1.
         11   -1    0    0    0    0 -0.00000000000E+00 -0.00000000000E+00 -0.45593999997E+02  0.45594000000E+02  0.51100000000E-03 0.  1.
    9900012    2    1    2    0    0 -0.54736548113E+00 -0.10236494391E+01 -0.21408881838E+00  0.90007618212E+02  0.89999877972E+02 0.  0.
        -12    1    1    2    0    0  0.54736548113E+00  0.10236494391E+01  0.21408881838E+00  0.11803817883E+01  0.00000000000E+00 0.  1.
         11    1    3    3    0    0  0.37142761122E+02 -0.13614149170E+00  0.10398443165E+02  0.38571114306E+02  0.51100000000E-03 0. -1.
        -11    1    3    3    0    0  0.45524467655E+01  0.55173236987E+01 -0.40208041095E+01  0.82056382017E+01  0.51100000000E-03 0.  1.
        -12    1    3    3    0    0 -0.42242573368E+02 -0.64048316461E+01 -0.65917278740E+01  0.43230865704E+02  0.00000000000E+00 0.  1.
</event>
<event>
 7    1  0.2578619E-015  0.9000777E+02  0.7816164E-02  0.1186339E+00
        -11   -1    0    0    0    0  0.00000000000E+00  0.00000000000E+00  0.45593999997E+02  0.45594000000E+02  0.51100000000E-03 0.  1.
         11   -1    0    0    0    0 -0.00000000000E+00 -0.00000000000E+00 -0.45593999997E+02  0.45594000000E+02  0.51100000000E-03 0. -1.
    9900012    2    1    2    0    0 -0.18049989659E+00 -0.93813033037E+00  0.69302064758E+00  0.90007768520E+02  0.90000030264E+02 0.  0.
        -12    1    1    2    0    0  0.18049989659E+00  0.93813033037E+00 -0.69302064758E+00  0.11802314804E+01  0.00000000000E+00 0.  1.
         11    1    3    3    0    0 -0.48324808562E+01  0.57722516176E+01  0.27071550952E+01  0.80000280583E+01  0.51100000000E-03 0. -1.
        -11    1    3    3    0    0 -0.33303635198E+02  0.16824643221E+02 -0.25771452967E+00  0.37313096279E+02  0.51100000000E-03 0.  1.
         12    1    3    3    0    0  0.37955616157E+02 -0.23535025169E+02 -0.17564199180E+01  0.44694644182E+02  0.00000000000E+00 0. -1.
</event>
<event>
 7    1  0.2578619E-015  0.9000800E+02  0.7816164E-02  0.1186339E+00
        -11   -1    0    0    0    0  0.00000000000E+00  0.00000000000E+00  0.45593999997E+02  0.45594000000E+02  0.51100000000E-03 0. -1.
         11   -1    0    0    0    0 -0.00000000000E+00 -0.00000000000E+00 -0.45593999997E+02  0.45594000000E+02  0.51100000000E-03 0.  1.
    9900012    2    1    2    0    0  0.23754261282E+00  0.89996537290E+00 -0.72528630029E+00  0.90007998143E+02  0.90000262918E+02 0.  0.
        -12    1    1    2    0    0 -0.23754261282E+00 -0.89996537290E+00  0.72528630029E+00  0.11800018571E+01  0.00000000000E+00 0.  1.
         11    1    3    3    0    0  0.89723418007E+01  0.15130855234E+02  0.31304388036E+02  0.35908361256E+02  0.51100000000E-03 0. -1.
        -11    1    3    3    0    0 -0.63964720653E+01 -0.92106042060E+00  0.88988530424E+01  0.10997854014E+02  0.51100000000E-03 0.  1.
        -12    1    3    3    0    0 -0.23383271226E+01 -0.13309829441E+02 -0.40928527378E+02  0.43101782873E+02  0.00000000000E+00 0.  1.
</event>
<event>
 7    1  0.2578619E-015  0.9000779E+02  0.7816164E-02  0.1186339E+00
        -11   -1    0    0    0    0  0.00000000000E+00  0.00000000000E+00  0.45593999997E+02  0.45594000000E+02  0.51100000000E-03 0.  1.
         11   -1    0    0    0    0 -0.00000000000E+00 -0.00000000000E+00 -0.45593999997E+02  0.45594000000E+02  0.51100000000E-03 0. -1.
    9900012    2    1    2    0    0 -0.77299261971E+00 -0.80104160271E+00 -0.39205435710E+00  0.90007791604E+02  0.90000053653E+02 0.  0.
        -12    1    1    2    0    0  0.77299261971E+00  0.80104160271E+00  0.39205435710E+00  0.11802083961E+01  0.00000000000E+00 0.  1.
         11    1    3    3    0    0 -0.39194249078E+01  0.58419932607E+01 -0.51226125863E+01  0.87024098293E+01  0.51100000000E-03 0. -1.
        -11    1    3    3    0    0 -0.14109698537E+02 -0.40572971888E+02  0.49349268626E+01  0.43238907757E+02  0.51100000000E-03 0.  1.
         12    1    3    3    0    0  0.17256130826E+02  0.33929937025E+02 -0.20436863338E+00  0.38066474017E+02  0.00000000000E+00 0. -1.
</event>
<event>
 7    1  0.2578619E-015  0.9000655E+02  0.7816164E-02  0.1186341E+00
        -11   -1    0    0    0    0  0.00000000000E+00  0.00000000000E+00  0.45593999997E+02  0.45594000000E+02  0.51100000000E-03 0. -1.
         11   -1    0    0    0    0 -0.00000000000E+00 -0.00000000000E+00 -0.45593999997E+02  0.45594000000E+02  0.51100000000E-03 0.  1.
    9900012    2    1    2    0    0 -0.38846930879E+00 -0.17618669717E+00  0.11017547493E+01  0.90006554409E+02  0.89998800120E+02 0.  0.
        -12    1    1    2    0    0  0.38846930879E+00  0.17618669717E+00 -0.11017547493E+01  0.11814455906E+01  0.00000000000E+00 0.  1.
         11    1    3    3    0    0 -0.18430014508E+02 -0.14855293125E+02  0.28140600893E+02  0.36772796841E+02  0.51100000000E-03 0. -1.
        -11    1    3    3    0    0 -0.27217141687E+01 -0.89809491004E+01  0.28685975603E+01  0.98129520015E+01  0.51100000000E-03 0.  1.
        -12    1    3    3    0    0  0.20763259368E+02  0.23660055528E+02 -0.29907443704E+02  0.43420805567E+02  0.00000000000E+00 0.  1.
</event>
<event>
 7    1  0.2578619E-015  0.9000783E+02  0.7816164E-02  0.1186339E+00
        -11   -1    0    0    0    0  0.00000000000E+00  0.00000000000E+00  0.45593999997E+02  0.45594000000E+02  0.51100000000E-03 0.  1.
         11   -1    0    0    0    0 -0.00000000000E+00 -0.00000000000E+00 -0.45593999997E+02  0.45594000000E+02  0.51100000000E-03 0. -1.
    9900012    2    1    2    0    0  0.25593487091E+00  0.11409022457E+01 -0.16014745559E+00  0.90007827216E+02  0.90000089735E+02 0.  0.
        -12    1    1    2    0    0 -0.25593487091E+00 -0.11409022457E+01  0.16014745559E+00  0.11801727839E+01  0.00000000000E+00 0.  1.
         11    1    3    3    0    0 -0.19003415880E+02  0.30968183603E+02 -0.69887679643E+01  0.37000014712E+02  0.51100000000E-03 0. -1.
        -11    1    3    3    0    0  0.36273454444E+01  0.78411335339E+01  0.85946095926E+01  0.12186399156E+02  0.51100000000E-03 0.  1.
        -12    1    3    3    0    0  0.15632005306E+02 -0.37668414891E+02 -0.17659890839E+01  0.40821413348E+02  0.00000000000E+00 0.  1.
</event>
<event>
 7    1  0.2578619E-015  0.9000785E+02  0.7816164E-02  0.1186339E+00
        -11   -1    0    0    0    0  0.00000000000E+00  0.00000000000E+00  0.45593999997E+02  0.45594000000E+02  0.51100000000E-03 0.  1.
         11   -1    0    0    0    0 -0.00000000000E+00 -0.00000000000E+00 -0.45593999997E+02  0.45594000000E+02  0.51100000000E-03 0. -1.
    9900012    2    1    2    0    0 -0.63783512377E+00 -0.30958323116E+00 -0.94344250456E+00  0.90007847814E+02  0.90000110605E+02 0.  0.
        -12    1    1    2    0    0  0.63783512377E+00  0.30958323116E+00  0.94344250456E+00  0.11801521858E+01  0.00000000000E+00 0.  1.
         11    1    3    3    0    0  0.60534108737E+01  0.53916108481E+00  0.65445448610E+01  0.89311558927E+01  0.51100000000E-03 0. -1.
        -11    1    3    3    0    0 -0.14747087052E+02  0.20269101362E+02  0.28890283692E+02  0.38248680220E+02  0.51100000000E-03 0.  1.
         12    1    3    3    0    0  0.80558410541E+01 -0.21117845678E+02 -0.36378271058E+02  0.42828011701E+02  0.00000000000E+00 0. -1.
</event>
<event>
 7    1  0.3306496E-015  0.9000782E+02  0.7816164E-02  0.1186339E+00
        -11   -1    0    0    0    0  0.00000000000E+00  0.00000000000E+00  0.45593999997E+02  0.45594000000E+02  0.51100000000E-03 0. -1.
         11   -1    0    0    0    0 -0.00000000000E+00 -0.00000000000E+00 -0.45593999997E+02  0.45594000000E+02  0.51100000000E-03 0.  1.
    9900012    2    1    2    0    0 -0.16812183145E+00  0.57336809131E+00  0.10177477489E+01  0.90007819336E+02  0.90000081752E+02 0.  0.
        -12    1    1    2    0    0  0.16812183145E+00 -0.57336809131E+00 -0.10177477489E+01  0.11801806636E+01  0.00000000000E+00 0.  1.
         11    1    3    3    0    0 -0.91465102829E+00 -0.99489614900E+01 -0.20495440712E+01  0.10198973105E+02  0.51100000000E-03 0. -1.
        -11    1    3    3    0    0  0.18488578090E+02 -0.27475265177E+01 -0.32740898640E+02  0.37700701131E+02  0.51100000000E-03 0.  1.
         12    1    3    3    0    0 -0.17742048893E+02  0.13269856099E+02  0.35808190460E+02  0.42108145101E+02  0.00000000000E+00 0. -1.
</event>
<event>
 7    1  0.2578619E-015  0.9000774E+02  0.7816164E-02  0.1186339E+00
        -11   -1    0    0    0    0  0.00000000000E+00  0.00000000000E+00  0.45593999997E+02  0.45594000000E+02  0.51100000000E-03 0.  1.
         11   -1    0    0    0    0 -0.00000000000E+00 -0.00000000000E+00 -0.45593999997E+02  0.45594000000E+02  0.51100000000E-03 0. -1.
    9900012    2    1    2    0    0  0.71763641146E+00 -0.33245050263E+00  0.87606320554E+00  0.90007740666E+02  0.90000002043E+02 0.  0.
        -12    1    1    2    0    0 -0.71763641146E+00  0.33245050263E+00 -0.87606320554E+00  0.11802593341E+01  0.00000000000E+00 0.  1.
         11    1    3    3    0    0 -0.34557703595E+01 -0.51192733841E+01  0.23574466621E+01  0.66111166821E+01  0.51100000000E-03 0. -1.
        -11    1    3    3    0    0 -0.32316533477E+02 -0.16064713691E+02  0.13856456778E+02  0.38657919714E+02  0.51100000000E-03 0.  1.
         12    1    3    3    0    0  0.36489940248E+02  0.20851536572E+02 -0.15337840234E+02  0.44738704270E+02  0.00000000000E+00 0. -1.
</event>
<event>
 7    1  0.2578619E-015  0.9000805E+02  0.7816164E-02  0.1186338E+00
        -11   -1    0    0    0    0  0.00000000000E+00  0.00000000000E+00  0.45593999997E+02  0.45594000000E+02  0.51100000000E-03 0.  1.
         11   -1    0    0    0    0 -0.00000000000E+00 -0.00000000000E+00 -0.45593999997E+02  0.45594000000E+02  0.51100000000E-03 0. -1.
    9900012    2    1    2    0    0  0.39417977597E+00  0.44985102420E+00 -0.10171262315E+01  0.90008046861E+02  0.90000312279E+02 0.  0.
        -12    1    1    2    0    0 -0.39417977597E+00 -0.44985102420E+00  0.10171262315E+01  0.11799531392E+01  0.00000000000E+00 0.  1.
         11    1    3    3    0    0  0.11964299493E+02 -0.19405060324E+01  0.14146459625E+02  0.18628804208E+02  0.51100000000E-03 0. -1.
        -11    1    3    3    0    0 -0.28634261853E+02 -0.64771253064E+01  0.16985680333E+02  0.33917361937E+02  0.51100000000E-03 0.  1.
         12    1    3    3    0    0  0.17064142136E+02  0.88674823630E+01 -0.32149266190E+02  0.37461880716E+02  0.00000000000E+00 0. -1.
</event>
<event>
 7    1  0.2578619E-015  0.9000784E+02  0.7816164E-02  0.1186339E+00
        -11   -1    0    0    0    0  0.00000000000E+00  0.00000000000E+00  0.45593999997E+02  0.45594000000E+02  0.51100000000E-03 0. -1.
         11   -1    0    0    0    0 -0.00000000000E+00 -0.00000000000E+00 -0.45593999997E+02  0.45594000000E+02  0.51100000000E-03 0.  1.
    9900012    2    1    2    0    0  0.54036304053E+00 -0.73845884484E+00  0.74529431793E+00  0.90007840137E+02  0.90000102827E+02 0.  0.
        -12    1    1    2    0    0 -0.54036304053E+00  0.73845884484E+00 -0.74529431793E+00  0.11801598627E+01  0.00000000000E+00 0.  1.
         11    1    3    3    0    0  0.14116465231E+01  0.29440247625E+02  0.25804502980E+02  0.39173885439E+02  0.51100000000E-03 0. -1.
        -11    1    3    3    0    0  0.93269049388E+00  0.61346397596E+01  0.74476227556E+00  0.62496710030E+01  0.51100000000E-03 0.  1.
        -12    1    3    3    0    0 -0.18039739764E+01 -0.36313346229E+02 -0.25803970937E+02  0.44584283695E+02  0.00000000000E+00 0.  1.
</event>
<event>
 7    1  0.2578619E-015  0.9000773E+02  0.7816164E-02  0.1186339E+00
        -11   -1    0    0    0    0  0.00000000000E+00  0.00000000000E+00  0.45593999997E+02  0.45594000000E+02  0.51100000000E-03 0.  1.
         11   -1    0    0    0    0 -0.00000000000E+00 -0.00000000000E+00 -0.45593999997E+02  0.45594000000E+02  0.51100000000E-03 0. -1.
    9900012    2    1    2    0    0  0.10637012416E+01 -0.40635312612E+00 -0.31055243081E+00  0.90007734773E+02  0.89999996072E+02 0.  0.
        -12    1    1    2    0    0 -0.10637012416E+01  0.40635312612E+00  0.31055243081E+00  0.11802652273E+01  0.00000000000E+00 0.  1.
         11    1    3    3    0    0 -0.14582876455E+02  0.30778912973E+02  0.59731748835E+01  0.34578614604E+02  0.51100000000E-03 0. -1.
        -11    1    3    3    0    0 -0.23237477066E+01  0.84412687552E+01  0.55143125179E+01  0.10347099323E+02  0.51100000000E-03 0.  1.
        -12    1    3    3    0    0  0.17970325403E+02 -0.39626534854E+02 -0.11798039832E+02  0.45082020845E+02  0.00000000000E+00 0.  1.
</event>
<event>
 7    1  0.2578619E-015  0.9000775E+02  0.7816164E-02  0.1186339E+00
        -11   -1    0    0    0    0  0.00000000000E+00  0.00000000000E+00  0.45593999997E+02  0.45594000000E+02  0.51100000000E-03 0.  1.
         11   -1    0    0    0    0 -0.00000000000E+00 -0.00000000000E+00 -0.45593999997E+02  0.45594000000E+02  0.51100000000E-03 0. -1.
    9900012    2    1    2    0    0 -0.91581621204E+00 -0.73352383771E+00 -0.12732751220E+00  0.90007750514E+02  0.90000012020E+02 0.  0.
        -12    1    1    2    0    0  0.91581621204E+00  0.73352383771E+00  0.12732751220E+00  0.11802494864E+01  0.00000000000E+00 0.  1.
         11    1    3    3    0    0  0.39123992067E+01  0.52310265063E+00  0.81505082539E+01  0.90560084470E+01  0.51100000000E-03 0. -1.
        -11    1    3    3    0    0  0.26565934189E+02 -0.26524565055E+02  0.63608329226E+01  0.38075735140E+02  0.51100000000E-03 0.  1.
         12    1    3    3    0    0 -0.31394149608E+02  0.25267938567E+02 -0.14638668689E+02  0.42876006927E+02  0.00000000000E+00 0. -1.
</event>
<event>
 7    1  0.2578619E-015  0.9000796E+02  0.7816164E-02  0.1186339E+00
        -11   -1    0    0    0    0  0.00000000000E+00  0.00000000000E+00  0.45593999997E+02  0.45594000000E+02  0.51100000000E-03 0.  1.
         11   -1    0    0    0    0 -0.00000000000E+00 -0.00000000000E+00 -0.45593999997E+02  0.45594000000E+02  0.51100000000E-03 0. -1.
    9900012    2    1    2    0    0 -0.64853607586E+00 -0.45115981319E+00 -0.87655385065E+00  0.90007961496E+02  0.90000225787E+02 0.  0.
        -12    1    1    2    0    0  0.64853607586E+00  0.45115981319E+00  0.87655385065E+00  0.11800385044E+01  0.00000000000E+00 0.  1.
         11    1    3    3    0    0  0.86223400594E+01 -0.13683457797E+01  0.37439193334E+01  0.94991605160E+01  0.51100000000E-03 0. -1.
        -11    1    3    3    0    0  0.32787921904E+02  0.18513854597E+01 -0.16558594213E+02  0.36778560242E+02  0.51100000000E-03 0.  1.
         12    1    3    3    0    0 -0.42058798040E+02 -0.93419949317E+00  0.11938121029E+02  0.43730240737E+02  0.00000000000E+00 0. -1.
</event>
<event>
 7    1  0.2578619E-015  0.9000776E+02  0.7816164E-02  0.1186339E+00
        -11   -1    0    0    0    0  0.00000000000E+00  0.00000000000E+00  0.45593999997E+02  0.45594000000E+02  0.51100000000E-03 0.  1.
         11   -1    0    0    0    0 -0.00000000000E+00 -0.00000000000E+00 -0.45593999997E+02  0.45594000000E+02  0.51100000000E-03 0. -1.
    9900012    2    1    2    0    0 -0.49560144682E+00 -0.85425923860E+00 -0.64620268995E+00  0.90007763771E+02  0.90000025452E+02 0.  0.
        -12    1    1    2    0    0  0.49560144682E+00  0.85425923860E+00  0.64620268995E+00  0.11802362295E+01  0.00000000000E+00 0.  1.
         11    1    3    3    0    0  0.29261255593E+02 -0.20371779656E+02  0.27412137593E+01  0.35759540523E+02  0.51100000000E-03 0. -1.
        -11    1    3    3    0    0  0.46835789957E+01 -0.83482828207E+01  0.14561554849E+01  0.96824649404E+01  0.51100000000E-03 0.  1.
        -12    1    3    3    0    0 -0.34440436036E+02  0.27865803238E+02 -0.48435719341E+01  0.44565758308E+02  0.00000000000E+00 0.  1.
</event>
<event>
 7    1  0.2578619E-015  0.9000775E+02  0.7816164E-02  0.1186339E+00
        -11   -1    0    0    0    0  0.00000000000E+00  0.00000000000E+00  0.45593999997E+02  0.45594000000E+02  0.51100000000E-03 0. -1.
         11   -1    0    0    0    0 -0.00000000000E+00 -0.00000000000E+00 -0.45593999997E+02  0.45594000000E+02  0.51100000000E-03 0.  1.
    9900012    2    1    2    0    0 -0.50987929270E-01 -0.34012940787E+00  0.11290272511E+01  0.90007749892E+02  0.90000011391E+02 0.  0.
        -12    1    1    2    0    0  0.50987929270E-01  0.34012940787E+00 -0.11290272511E+01  0.11802501077E+01  0.00000000000E+00 0.  1.
         11    1    3    3    0    0  0.94264174446E-01 -0.24001650731E+02  0.22233730828E+02  0.32717379332E+02  0.51100000000E-03 0. -1.
        -11    1    3    3    0    0  0.80943194593E+00 -0.14769681353E+02 -0.50591425964E+01  0.15633092829E+02  0.51100000000E-03 0.  1.
        -12    1    3    3    0    0 -0.95468404964E+00  0.38431202676E+02 -0.16045560981E+02  0.41657277731E+02  0.00000000000E+00 0.  1.
</event>
<event>
 7    1  0.2578619E-015  0.9000767E+02  0.7816164E-02  0.1186339E+00
        -11   -1    0    0    0    0  0.00000000000E+00  0.00000000000E+00  0.45593999997E+02  0.45594000000E+02  0.51100000000E-03 0. -1.
         11   -1    0    0    0    0 -0.00000000000E+00 -0.00000000000E+00 -0.45593999997E+02  0.45594000000E+02  0.51100000000E-03 0.  1.
    9900012    2    1    2    0    0 -0.76857850022E+00 -0.82077015018E+00  0.35888315835E+00  0.90007672219E+02  0.89999932692E+02 0.  0.
        -12    1    1    2    0    0  0.76857850022E+00  0.82077015018E+00 -0.35888315835E+00  0.11803277815E+01  0.00000000000E+00 0.  1.
         11    1    3    3    0    0  0.24133890251E+02 -0.18630795026E+02  0.32178069157E+02  0.44328087224E+02  0.51100000000E-03 0. -1.
        -11    1    3    3    0    0 -0.32814557257E+01  0.69193150760E+01 -0.34909981021E+01  0.84161713867E+01  0.51100000000E-03 0.  1.
        -12    1    3    3    0    0 -0.21621013026E+02  0.10890709799E+02 -0.28328187897E+02  0.37263413608E+02  0.00000000000E+00 0.  1.
</event>
<event>
 7    1  0.2578619E-015  0.9000764E+02  0.7816164E-02  0.1186339E+00
        -11   -1    0    0    0    0  0.00000000000E+00  0.00000000000E+00  0.45593999997E+02  0.45594000000E+02  0.51100000000E-03 0. -1.
         11   -1    0    0    0    0 -0.00000000000E+00 -0.00000000000E+00 -0.45593999997E+02  0.45594000000E+02  0.51100000000E-03 0.  1.
    9900012    2    1    2    0    0  0.71104082196E+00  0.92734133371E+00  0.16649191982E+00  0.90007635413E+02  0.89999895400E+02 0.  0.
        -12    1    1    2    0    0 -0.71104082196E+00 -0.92734133371E+00 -0.16649191982E+00  0.11803645873E+01  0.00000000000E+00 0.  1.
         11    1    3    3    0    0 -0.14863807659E+01  0.89200803901E+01  0.38165175647E+00  0.90511225973E+01  0.51100000000E-03 0. -1.
        -11    1    3    3    0    0 -0.29513011027E+02  0.15351524223E+01 -0.25707144907E+02  0.39169271276E+02  0.51100000000E-03 0.  1.
         12    1    3    3    0    0  0.31710432614E+02 -0.95278914787E+01  0.25491985070E+02  0.41787241539E+02  0.00000000000E+00 0. -1.
</event>
<event>
 7    1  0.2578619E-015  0.9000781E+02  0.7816164E-02  0.1186339E+00
        -11   -1    0    0    0    0  0.00000000000E+00  0.00000000000E+00  0.45593999997E+02  0.45594000000E+02  0.51100000000E-03 0.  1.
         11   -1    0    0    0    0 -0.00000000000E+00 -0.00000000000E+00 -0.45593999997E+02  0.45594000000E+02  0.51100000000E-03 0. -1.
    9900012    2    1    2    0    0  0.11113814204E+01  0.84403124680E-01  0.38802816309E+00  0.90007805777E+02  0.90000068013E+02 0.  0.
        -12    1    1    2    0    0 -0.11113814204E+01 -0.84403124680E-01 -0.38802816309E+00  0.11801942232E+01  0.00000000000E+00 0.  1.
         11    1    3    3    0    0 -0.87184280431E+01 -0.57126896481E+01 -0.99496638630E+01  0.14409775217E+02  0.51100000000E-03 0. -1.
        -11    1    3    3    0    0 -0.10017466067E+01 -0.33354964019E+02  0.10473711319E+02  0.34975073267E+02  0.51100000000E-03 0.  1.
         12    1    3    3    0    0  0.10831556070E+02  0.39152056792E+02 -0.13601929281E+00  0.40622957293E+02  0.00000000000E+00 0. -1.
</event>
<event>
 7    1  0.2578619E-015  0.9000775E+02  0.7816164E-02  0.1186339E+00
        -11   -1    0    0    0    0  0.00000000000E+00  0.00000000000E+00  0.45593999997E+02  0.45594000000E+02  0.51100000000E-03 0.  1.
         11   -1    0    0    0    0 -0.00000000000E+00 -0.00000000000E+00 -0.45593999997E+02  0.45594000000E+02  0.51100000000E-03 0. -1.
    9900012    2    1    2    0    0 -0.11655165636E+01  0.11757057817E+00 -0.14397483460E+00  0.90007754071E+02  0.90000015624E+02 0.  0.
        -12    1    1    2    0    0  0.11655165636E+01 -0.11757057817E+00  0.14397483460E+00  0.11802459294E+01  0.00000000000E+00 0.  1.
         11    1    3    3    0    0  0.66530754248E+01  0.22478778695E+01  0.43945142480E+01  0.82842092720E+01  0.51100000000E-03 0. -1.
        -11    1    3    3    0    0  0.24756535728E+02 -0.10149659550E+02  0.25301675967E+02  0.36824943411E+02  0.51100000000E-03 0.  1.
         12    1    3    3    0    0 -0.32575127716E+02  0.80193522586E+01 -0.29840165050E+02  0.44898601388E+02  0.00000000000E+00 0. -1.
</event>
<event>
 7    1  0.2578619E-015  0.9000767E+02  0.7816164E-02  0.1186339E+00
        -11   -1    0    0    0    0  0.00000000000E+00  0.00000000000E+00  0.45593999997E+02  0.45594000000E+02  0.51100000000E-03 0.  1.
         11   -1    0    0    0    0 -0.00000000000E+00 -0.00000000000E+00 -0.45593999997E+02  0.45594000000E+02  0.51100000000E-03 0. -1.
    9900012    2    1    2    0    0  0.62539218915E+00 -0.87949999035E+00 -0.47806573546E+00  0.90007668491E+02  0.89999928915E+02 0.  0.
        -12    1    1    2    0    0 -0.62539218915E+00  0.87949999035E+00  0.47806573546E+00  0.11803315088E+01  0.00000000000E+00 0.  1.
         11    1    3    3    0    0  0.13134401946E+02  0.25633173015E+02 -0.99470561102E+01  0.30471560492E+02  0.51100000000E-03 0. -1.
        -11    1    3    3    0    0  0.67700274098E+01  0.11104230405E+02 -0.62619112018E+01  0.14434290290E+02  0.51100000000E-03 0.  1.
        -12    1    3    3    0    0 -0.19279037167E+02 -0.37616903410E+02  0.15730901577E+02  0.45101817709E+02  0.00000000000E+00 0.  1.
</event>
<event>
 7    1  0.2578619E-015  0.9000733E+02  0.7816164E-02  0.1186340E+00
        -11   -1    0    0    0    0  0.00000000000E+00  0.00000000000E+00  0.45593999997E+02  0.45594000000E+02  0.51100000000E-03 0. -1.
         11   -1    0    0    0    0 -0.00000000000E+00 -0.00000000000E+00 -0.45593999997E+02  0.45594000000E+02  0.51100000000E-03 0.  1.
    9900012    2    1    2    0    0  0.40482729382E+00 -0.50553121331E-01  0.11079397364E+01  0.90007334418E+02  0.89999590432E+02 0.  0.
        -12    1    1    2    0    0 -0.40482729382E+00  0.50553121331E-01 -0.11079397364E+01  0.11806655815E+01  0.00000000000E+00 0.  1.
         11    1    3    3    0    0  0.12148039661E+02 -0.46377542421E+01  0.92199491422E+01  0.15940235082E+02  0.51100000000E-03 0. -1.
        -11    1    3    3    0    0 -0.24346515620E+02 -0.22339864395E+01 -0.35530359576E+02  0.43129455945E+02  0.51100000000E-03 0.  1.
         12    1    3    3    0    0  0.12603303252E+02  0.68211875603E+01  0.27418350170E+02  0.30937643392E+02  0.00000000000E+00 0. -1.
</event>
<event>
 7    1  0.2578619E-015  0.9000735E+02  0.7816164E-02  0.1186340E+00
        -11   -1    0    0    0    0  0.00000000000E+00  0.00000000000E+00  0.45593999997E+02  0.45594000000E+02  0.51100000000E-03 0.  1.
         11   -1    0    0    0    0 -0.00000000000E+00 -0.00000000000E+00 -0.45593999997E+02  0.45594000000E+02  0.51100000000E-03 0. -1.
    9900012    2    1    2    0    0  0.37993355625E+00 -0.79752464203E+00 -0.78328063655E+00  0.90007354576E+02  0.89999610855E+02 0.  0.
        -12    1    1    2    0    0 -0.37993355625E+00  0.79752464203E+00  0.78328063655E+00  0.11806454241E+01  0.00000000000E+00 0.  1.
         11    1    3    3    0    0  0.36356866747E+02  0.57461875664E+01  0.77493456502E+01  0.37615060674E+02  0.51100000000E-03 0. -1.
        -11    1    3    3    0    0  0.56446942361E+01 -0.76214708804E+01  0.14037034793E+01  0.95874801235E+01  0.51100000000E-03 0.  1.
        -12    1    3    3    0    0 -0.41621627427E+02  0.10777586719E+01 -0.99363297661E+01  0.42804813779E+02  0.00000000000E+00 0.  1.
</event>
<event>
 7    1  0.2578619E-015  0.9000791E+02  0.7816164E-02  0.1186339E+00
        -11   -1    0    0    0    0  0.00000000000E+00  0.00000000000E+00  0.45593999997E+02  0.45594000000E+02  0.51100000000E-03 0. -1.
         11   -1    0    0    0    0 -0.00000000000E+00 -0.00000000000E+00 -0.45593999997E+02  0.45594000000E+02  0.51100000000E-03 0.  1.
    9900012    2    1    2    0    0  0.48217764011E+00 -0.65013550670E+00  0.85874178150E+00  0.90007911486E+02  0.90000175117E+02 0.  0.
        -12    1    1    2    0    0 -0.48217764011E+00  0.65013550670E+00 -0.85874178150E+00  0.11800885140E+01  0.00000000000E+00 0.  1.
         11    1    3    3    0    0 -0.19612011508E+02  0.18674722065E+02  0.30086978739E+02  0.40479655749E+02  0.51100000000E-03 0. -1.
        -11    1    3    3    0    0 -0.29922942881E+00  0.68074211745E+01 -0.56199069500E+01  0.88325463874E+01  0.51100000000E-03 0.  1.
        -12    1    3    3    0    0  0.20393418577E+02 -0.26132278746E+02 -0.23608330008E+02  0.40695709350E+02  0.00000000000E+00 0.  1.
</event>
<event>
 7    1  0.2578619E-015  0.9000767E+02  0.7816164E-02  0.1186339E+00
        -11   -1    0    0    0    0  0.00000000000E+00  0.00000000000E+00  0.45593999997E+02  0.45594000000E+02  0.51100000000E-03 0. -1.
         11   -1    0    0    0    0 -0.00000000000E+00 -0.00000000000E+00 -0.45593999997E+02  0.45594000000E+02  0.51100000000E-03 0.  1.
    9900012    2    1    2    0    0 -0.53405544165E+00  0.63782789695E+00  0.83734317558E+00  0.90007668168E+02  0.89999928587E+02 0.  0.
        -12    1    1    2    0    0  0.53405544165E+00 -0.63782789695E+00 -0.83734317558E+00  0.11803318324E+01  0.00000000000E+00 0.  1.
         11    1    3    3    0    0  0.19728148331E+02 -0.29904681824E+02 -0.38082419401E+01  0.36027663517E+02  0.51100000000E-03 0. -1.
        -11    1    3    3    0    0  0.10163448428E+02  0.10504506974E-01 -0.20251040298E+01  0.10363244708E+02  0.51100000000E-03 0.  1.
        -12    1    3    3    0    0 -0.30425652200E+02  0.30532005214E+02  0.66706891455E+01  0.43616759942E+02  0.00000000000E+00 0.  1.
</event>
<event>
 7    1  0.2578619E-015  0.9000770E+02  0.7816164E-02  0.1186339E+00
        -11   -1    0    0    0    0  0.00000000000E+00  0.00000000000E+00  0.45593999997E+02  0.45594000000E+02  0.51100000000E-03 0.  1.
         11   -1    0    0    0    0 -0.00000000000E+00 -0.00000000000E+00 -0.45593999997E+02  0.45594000000E+02  0.51100000000E-03 0. -1.
    9900012    2    1    2    0    0 -0.20275984762E+00  0.11614615571E+01 -0.54892898373E-01  0.90007695914E+02  0.89999956700E+02 0.  0.
        -12    1    1    2    0    0  0.20275984762E+00 -0.11614615571E+01  0.54892898373E-01  0.11803040857E+01  0.00000000000E+00 0.  1.
         11    1    3    3    0    0 -0.78759557858E+01 -0.37734250252E+01  0.46027243724E+01  0.98719039638E+01  0.51100000000E-03 0. -1.
        -11    1    3    3    0    0 -0.25630490857E+02  0.13131125255E+01  0.24680016149E+02  0.35605470414E+02  0.51100000000E-03 0.  1.
         12    1    3    3    0    0  0.33303686795E+02  0.36217740568E+01 -0.29337633420E+02  0.44530321536E+02  0.00000000000E+00 0. -1.
</event>
<event>
 7    1  0.2578619E-015  0.9000775E+02  0.7816164E-02  0.1186339E+00
        -11   -1    0    0    0    0  0.00000000000E+00  0.00000000000E+00  0.45593999997E+02  0.45594000000E+02  0.51100000000E-03 0. -1.
         11   -1    0    0    0    0 -0.00000000000E+00 -0.00000000000E+00 -0.45593999997E+02  0.45594000000E+02  0.51100000000E-03 0.  1.
    9900012    2    1    2    0    0 -0.42182907053E+00  0.10958956250E+01 -0.11855603666E+00  0.90007753196E+02  0.90000014738E+02 0.  0.
        -12    1    1    2    0    0  0.42182907053E+00 -0.10958956250E+01  0.11855603666E+00  0.11802468045E+01  0.00000000000E+00 0.  1.
         11    1    3    3    0    0  0.14261833252E+02  0.26592520632E+01  0.33470084074E+02  0.36479008175E+02  0.51100000000E-03 0. -1.
        -11    1    3    3    0    0  0.52671703018E+01 -0.73685284002E+01  0.45207139999E+01  0.10123000993E+02  0.51100000000E-03 0.  1.
        -12    1    3    3    0    0 -0.19950832625E+02  0.58051719620E+01 -0.38109354110E+02  0.43405744028E+02  0.00000000000E+00 0.  1.
</event>
<event>
 7    1  0.2578619E-015  0.9000761E+02  0.7816164E-02  0.1186339E+00
        -11   -1    0    0    0    0  0.00000000000E+00  0.00000000000E+00  0.45593999997E+02  0.45594000000E+02  0.51100000000E-03 0. -1.
         11   -1    0    0    0    0 -0.00000000000E+00 -0.00000000000E+00 -0.45593999997E+02  0.45594000000E+02  0.51100000000E-03 0.  1.
    9900012    2    1    2    0    0  0.35251908643E+00  0.17222221425E+00  0.11132839345E+01  0.90007605440E+02  0.89999865032E+02 0.  0.
        -12    1    1    2    0    0 -0.35251908643E+00 -0.17222221425E+00 -0.11132839345E+01  0.11803945595E+01  0.00000000000E+00 0.  1.
         11    1    3    3    0    0  0.36259712603E+02 -0.16733965817E+02  0.10741249698E+02  0.41354163216E+02  0.51100000000E-03 0. -1.
        -11    1    3    3    0    0 -0.49208418958E+01 -0.46086135485E+01 -0.85849278414E+01  0.10915813763E+02  0.51100000000E-03 0.  1.
        -12    1    3    3    0    0 -0.30986351620E+02  0.21514801580E+02 -0.10430379224E+01  0.37737628461E+02  0.00000000000E+00 0.  1.
</event>
<event>
 7    1  0.2578619E-015  0.9000787E+02  0.7816164E-02  0.1186339E+00
        -11   -1    0    0    0    0  0.00000000000E+00  0.00000000000E+00  0.45593999997E+02  0.45594000000E+02  0.51100000000E-03 0. -1.
         11   -1    0    0    0    0 -0.00000000000E+00 -0.00000000000E+00 -0.45593999997E+02  0.45594000000E+02  0.51100000000E-03 0.  1.
    9900012    2    1    2    0    0  0.85560261358E+00 -0.74859256038E+00 -0.31665171941E+00  0.90007866548E+02  0.90000129586E+02 0.  0.
        -12    1    1    2    0    0 -0.85560261358E+00  0.74859256038E+00  0.31665171941E+00  0.11801334523E+01  0.00000000000E+00 0.  1.
         11    1    3    3    0    0  0.45422772417E+01  0.20547966447E+02 -0.38902593347E+01  0.21400591711E+02  0.51100000000E-03 0. -1.
        -11    1    3    3    0    0  0.14846863423E+02 -0.11602577744E+02 -0.26168875744E+02  0.32246848246E+02  0.51100000000E-03 0.  1.
         12    1    3    3    0    0 -0.18533538052E+02 -0.96939812635E+01  0.29742483360E+02  0.36360426591E+02  0.00000000000E+00 0. -1.
</event>
<event>
 7    1  0.2578619E-015  0.9000788E+02  0.7816164E-02  0.1186339E+00
        -11   -1    0    0    0    0  0.00000000000E+00  0.00000000000E+00  0.45593999997E+02  0.45594000000E+02  0.51100000000E-03 0. -1.
         11   -1    0    0    0    0 -0.00000000000E+00 -0.00000000000E+00 -0.45593999997E+02  0.45594000000E+02  0.51100000000E-03 0.  1.
    9900012    2    1    2    0    0  0.49630884148E+00  0.49212751306E+00  0.95087489840E+00  0.90007883469E+02  0.90000146730E+02 0.  0.
        -12    1    1    2    0    0 -0.49630884148E+00 -0.49212751306E+00 -0.95087489840E+00  0.11801165314E+01  0.00000000000E+00 0.  1.
         11    1    3    3    0    0  0.49063516102E+01  0.42542904805E+01  0.84702667659E+01  0.10673176330E+02  0.51100000000E-03 0. -1.
        -11    1    3    3    0    0  0.31436426880E+02  0.15395113260E+02  0.78644702354E+01  0.35876292166E+02  0.51100000000E-03 0.  1.
         12    1    3    3    0    0 -0.35846469649E+02 -0.19157276227E+02 -0.15383862103E+02  0.43458414973E+02  0.00000000000E+00 0. -1.
</event>
<event>
 7    1  0.2578619E-015  0.9000766E+02  0.7816164E-02  0.1186339E+00
        -11   -1    0    0    0    0  0.00000000000E+00  0.00000000000E+00  0.45593999997E+02  0.45594000000E+02  0.51100000000E-03 0. -1.
         11   -1    0    0    0    0 -0.00000000000E+00 -0.00000000000E+00 -0.45593999997E+02  0.45594000000E+02  0.51100000000E-03 0.  1.
    9900012    2    1    2    0    0  0.66296783470E+00 -0.53053132420E+00  0.81988361900E+00  0.90007661496E+02  0.89999921828E+02 0.  0.
        -12    1    1    2    0    0 -0.66296783470E+00  0.53053132420E+00 -0.81988361900E+00  0.11803385042E+01  0.00000000000E+00 0.  1.
         11    1    3    3    0    0  0.72257464504E+01 -0.35224880470E+01  0.20584367064E+01  0.82979814258E+01  0.51100000000E-03 0. -1.
        -11    1    3    3    0    0  0.17128321205E+02 -0.24514073592E+02 -0.24444163133E+02  0.38624296795E+02  0.51100000000E-03 0.  1.
         12    1    3    3    0    0 -0.23691099821E+02  0.27506030314E+02  0.23205610046E+02  0.43085383275E+02  0.00000000000E+00 0. -1.
</event>
<event>
 7    1  0.2578619E-015  0.9000777E+02  0.7816164E-02  0.1186339E+00
        -11   -1    0    0    0    0  0.00000000000E+00  0.00000000000E+00  0.45593999997E+02  0.45594000000E+02  0.51100000000E-03 0.  1.
         11   -1    0    0    0    0 -0.00000000000E+00 -0.00000000000E+00 -0.45593999997E+02  0.45594000000E+02  0.51100000000E-03 0. -1.
    9900012    2    1    2    0    0 -0.10945293643E+01 -0.38515881887E+00  0.21584624798E+00  0.90007774832E+02  0.90000036660E+02 0.  0.
        -12    1    1    2    0    0  0.10945293643E+01  0.38515881887E+00 -0.21584624798E+00  0.11802251682E+01  0.00000000000E+00 0.  1.
         11    1    3    3    0    0  0.98624892468E-01  0.11519872972E+02 -0.52646258268E+01  0.12666234070E+02  0.51100000000E-03 0. -1.
        -11    1    3    3    0    0 -0.19789662316E+02  0.24369513535E+01  0.34598779617E+02  0.39933006620E+02  0.51100000000E-03 0.  1.
         12    1    3    3    0    0  0.18596508059E+02 -0.14341983145E+02 -0.29118307542E+02  0.37408534142E+02  0.00000000000E+00 0. -1.
</event>
<event>
 7    1  0.2578619E-015  0.9000753E+02  0.7816164E-02  0.1186339E+00
        -11   -1    0    0    0    0  0.00000000000E+00  0.00000000000E+00  0.45593999997E+02  0.45594000000E+02  0.51100000000E-03 0. -1.
         11   -1    0    0    0    0 -0.00000000000E+00 -0.00000000000E+00 -0.45593999997E+02  0.45594000000E+02  0.51100000000E-03 0.  1.
    9900012    2    1    2    0    0 -0.10097961209E+01 -0.17699535717E+00  0.58523599293E+00  0.90007526904E+02  0.89999785459E+02 0.  0.
        -12    1    1    2    0    0  0.10097961209E+01  0.17699535717E+00 -0.58523599293E+00  0.11804730957E+01  0.00000000000E+00 0.  1.
         11    1    3    3    0    0  0.27287832693E+01  0.32566748025E+02  0.23221688528E+02  0.40090973466E+02  0.51100000000E-03 0. -1.
        -11    1    3    3    0    0 -0.80303967891E+01 -0.83534648505E+00  0.31507768004E+01  0.86667451242E+01  0.51100000000E-03 0.  1.
        -12    1    3    3    0    0  0.42918173989E+01 -0.31908396898E+02 -0.25787229336E+02  0.41249808314E+02  0.00000000000E+00 0.  1.
</event>
<event>
 7    1  0.2578619E-015  0.9000777E+02  0.7816164E-02  0.1186339E+00
        -11   -1    0    0    0    0  0.00000000000E+00  0.00000000000E+00  0.45593999997E+02  0.45594000000E+02  0.51100000000E-03 0. -1.
         11   -1    0    0    0    0 -0.00000000000E+00 -0.00000000000E+00 -0.45593999997E+02  0.45594000000E+02  0.51100000000E-03 0.  1.
    9900012    2    1    2    0    0  0.82274055620E+00  0.84286587096E+00  0.75017222572E-01  0.90007765920E+02  0.90000027630E+02 0.  0.
        -12    1    1    2    0    0 -0.82274055620E+00 -0.84286587096E+00 -0.75017222572E-01  0.11802340797E+01  0.00000000000E+00 0.  1.
         11    1    3    3    0    0  0.15506214549E+02 -0.28985242772E+02 -0.22344426084E+02  0.39747457346E+02  0.51100000000E-03 0. -1.
        -11    1    3    3    0    0 -0.29933866009E+00  0.40245340070E+01 -0.73092920833E+01  0.83493849251E+01  0.51100000000E-03 0.  1.
        -12    1    3    3    0    0 -0.14384135332E+02  0.25803574636E+02  0.29728735390E+02  0.41910923649E+02  0.00000000000E+00 0.  1.
</event>
<event>
 7    1  0.2578619E-015  0.9000783E+02  0.7816164E-02  0.1186339E+00
        -11   -1    0    0    0    0  0.00000000000E+00  0.00000000000E+00  0.45593999997E+02  0.45594000000E+02  0.51100000000E-03 0.  1.
         11   -1    0    0    0    0 -0.00000000000E+00 -0.00000000000E+00 -0.45593999997E+02  0.45594000000E+02  0.51100000000E-03 0. -1.
    9900012    2    1    2    0    0  0.46946957562E+00  0.60541905306E+00 -0.89769596829E+00  0.90007833925E+02  0.90000096533E+02 0.  0.
        -12    1    1    2    0    0 -0.46946957562E+00 -0.60541905306E+00  0.89769596829E+00  0.11801660746E+01  0.00000000000E+00 0.  1.
         11    1    3    3    0    0  0.22766702046E+01 -0.13313726726E+02 -0.31499584764E+01  0.13869419066E+02  0.51100000000E-03 0. -1.
        -11    1    3    3    0    0 -0.36326987063E+02 -0.50812214396E+01  0.19128747982E+00  0.36681131274E+02  0.51100000000E-03 0.  1.
         12    1    3    3    0    0  0.34519786434E+02  0.19000367219E+02  0.20609750282E+01  0.39457283586E+02  0.00000000000E+00 0. -1.
</event>
<event>
 7    1  0.2578619E-015  0.9000770E+02  0.7816164E-02  0.1186339E+00
        -11   -1    0    0    0    0  0.00000000000E+00  0.00000000000E+00  0.45593999997E+02  0.45594000000E+02  0.51100000000E-03 0. -1.
         11   -1    0    0    0    0 -0.00000000000E+00 -0.00000000000E+00 -0.45593999997E+02  0.45594000000E+02  0.51100000000E-03 0.  1.
    9900012    2    1    2    0    0 -0.17107652896E+00 -0.11628066898E+01 -0.10827572261E+00  0.90007699102E+02  0.89999959931E+02 0.  0.
        -12    1    1    2    0    0  0.17107652896E+00  0.11628066898E+01  0.10827572261E+00  0.11803008976E+01  0.00000000000E+00 0.  1.
         11    1    3    3    0    0  0.16334177072E+01 -0.70198896875E+01 -0.70719954040E+01  0.10097525632E+02  0.51100000000E-03 0. -1.
        -11    1    3    3    0    0 -0.47173791837E+01  0.13419951256E+01 -0.36140789076E+02  0.36472061260E+02  0.51100000000E-03 0.  1.
         12    1    3    3    0    0  0.29128849476E+01  0.45150878721E+01  0.43104508757E+02  0.43438112210E+02  0.00000000000E+00 0. -1.
</event>
<event>
 7    1  0.2578619E-015  0.9000761E+02  0.7816164E-02  0.1186339E+00
        -11   -1    0    0    0    0  0.00000000000E+00  0.00000000000E+00  0.45593999997E+02  0.45594000000E+02  0.51100000000E-03 0.  1.
         11   -1    0    0    0    0 -0.00000000000E+00 -0.00000000000E+00 -0.45593999997E+02  0.45594000000E+02  0.51100000000E-03 0. -1.
    9900012    2    1    2    0    0 -0.34207316802E+00  0.81560149924E-01 -0.11267862686E+01  0.90007613027E+02  0.89999872719E+02 0.  0.
        -12    1    1    2    0    0  0.34207316802E+00 -0.81560149924E-01  0.11267862686E+01  0.11803869728E+01  0.00000000000E+00 0.  1.
         11    1    3    3    0    0  0.15970690604E+01 -0.45747705586E+01  0.75412019352E+01  0.89637537972E+01  0.51100000000E-03 0. -1.
        -11    1    3    3    0    0 -0.34121339310E+02 -0.20712600217E+01  0.18069842664E+02  0.38666201372E+02  0.51100000000E-03 0.  1.
         12    1    3    3    0    0  0.32182197082E+02  0.67275907302E+01 -0.26737830867E+02  0.42377657858E+02  0.00000000000E+00 0. -1.
</event>
<event>
 7    1  0.2578619E-015  0.9000774E+02  0.7816164E-02  0.1186339E+00
        -11   -1    0    0    0    0  0.00000000000E+00  0.00000000000E+00  0.45593999997E+02  0.45594000000E+02  0.51100000000E-03 0. -1.
         11   -1    0    0    0    0 -0.00000000000E+00 -0.00000000000E+00 -0.45593999997E+02  0.45594000000E+02  0.51100000000E-03 0.  1.
    9900012    2    1    2    0    0 -0.23781642794E+00 -0.44353206048E+00  0.10675824849E+01  0.90007741679E+02  0.90000003069E+02 0.  0.
        -12    1    1    2    0    0  0.23781642794E+00  0.44353206048E+00 -0.10675824849E+01  0.11802583209E+01  0.00000000000E+00 0.  1.
         11    1    3    3    0    0  0.47399038587E+01 -0.75465369335E+01 -0.15401481885E+01  0.90437251717E+01  0.51100000000E-03 0. -1.
        -11    1    3    3    0    0 -0.37585150942E+00 -0.33006664733E+02 -0.15796929800E+02  0.36594045589E+02  0.51100000000E-03 0.  1.
         12    1    3    3    0    0 -0.46018687772E+01  0.40109669606E+02  0.18404660473E+02  0.44369970919E+02  0.00000000000E+00 0. -1.
</event>
<event>
 7    1  0.2578619E-015  0.9000792E+02  0.7816164E-02  0.1186339E+00
        -11   -1    0    0    0    0  0.00000000000E+00  0.00000000000E+00  0.45593999997E+02  0.45594000000E+02  0.51100000000E-03 0.  1.
         11   -1    0    0    0    0 -0.00000000000E+00 -0.00000000000E+00 -0.45593999997E+02  0.45594000000E+02  0.51100000000E-03 0. -1.
    9900012    2    1    2    0    0 -0.11928217363E+00 -0.51019573143E+00 -0.10573865737E+01  0.90007917678E+02  0.90000181391E+02 0.  0.
        -12    1    1    2    0    0  0.11928217363E+00  0.51019573143E+00  0.10573865737E+01  0.11800823224E+01  0.00000000000E+00 0.  1.
         11    1    3    3    0    0  0.72190504067E+01  0.61803960833E+01 -0.56173335147E-01  0.95034278145E+01  0.51100000000E-03 0. -1.
        -11    1    3    3    0    0 -0.36678979177E+02  0.14203209615E+02 -0.14668271810E+02  0.41979005169E+02  0.51100000000E-03 0.  1.
         12    1    3    3    0    0  0.29340646597E+02 -0.20893801430E+02  0.13667058571E+02  0.38525484694E+02  0.00000000000E+00 0. -1.
</event>
<event>
 7    1  0.2578619E-015  0.9000773E+02  0.7816164E-02  0.1186339E+00
        -11   -1    0    0    0    0  0.00000000000E+00  0.00000000000E+00  0.45593999997E+02  0.45594000000E+02  0.51100000000E-03 0. -1.
         11   -1    0    0    0    0 -0.00000000000E+00 -0.00000000000E+00 -0.45593999997E+02  0.45594000000E+02  0.51100000000E-03 0.  1.
    9900012    2    1    2    0    0 -0.29984438979E+00  0.10637638718E+01  0.41417203290E+00  0.90007729393E+02  0.89999990621E+02 0.  0.
        -12    1    1    2    0    0  0.29984438979E+00 -0.10637638718E+01 -0.41417203290E+00  0.11802706071E+01  0.00000000000E+00 0.  1.
         11    1    3    3    0    0 -0.95915763710E+01 -0.26694605228E+02 -0.12822675461E+01  0.28394444807E+02  0.51100000000E-03 0. -1.
        -11    1    3    3    0    0 -0.20414414712E+02  0.15591904947E+01 -0.58474610936E+01  0.21292538706E+02  0.51100000000E-03 0.  1.
        -12    1    3    3    0    0  0.29706146694E+02  0.26199178605E+02  0.75439006726E+01  0.40320745880E+02  0.00000000000E+00 0.  1.
</event>
<event>
 7    1  0.2578619E-015  0.9000773E+02  0.7816164E-02  0.1186339E+00
        -11   -1    0    0    0    0  0.00000000000E+00  0.00000000000E+00  0.45593999997E+02  0.45594000000E+02  0.51100000000E-03 0. -1.
         11   -1    0    0    0    0 -0.00000000000E+00 -0.00000000000E+00 -0.45593999997E+02  0.45594000000E+02  0.51100000000E-03 0.  1.
    9900012    2    1    2    0    0 -0.97868938015E+00 -0.48445921572E+00 -0.44777368254E+00  0.90007731003E+02  0.89999992252E+02 0.  0.
        -12    1    1    2    0    0  0.97868938015E+00  0.48445921572E+00  0.44777368254E+00  0.11802689970E+01  0.00000000000E+00 0.  1.
         11    1    3    3    0    0  0.18835667783E+02 -0.37463424870E+02  0.11432271269E+02  0.43462482792E+02  0.51100000000E-03 0. -1.
        -11    1    3    3    0    0 -0.48816854250E+01  0.33176029621E+01  0.32446303380E+01  0.67353521284E+01  0.51100000000E-03 0.  1.
        -12    1    3    3    0    0 -0.14932671738E+02  0.33661362692E+02 -0.15124675289E+02  0.39809896083E+02  0.00000000000E+00 0.  1.
</event>
<event>
 7    1  0.2578619E-015  0.9000785E+02  0.7816164E-02  0.1186339E+00
        -11   -1    0    0    0    0  0.00000000000E+00  0.00000000000E+00  0.45593999997E+02  0.45594000000E+02  0.51100000000E-03 0. -1.
         11   -1    0    0    0    0 -0.00000000000E+00 -0.00000000000E+00 -0.45593999997E+02  0.45594000000E+02  0.51100000000E-03 0.  1.
    9900012    2    1    2    0    0  0.73040102353E+00  0.79935974380E+00  0.46935603605E+00  0.90007848847E+02  0.90000111652E+02 0.  0.
        -12    1    1    2    0    0 -0.73040102353E+00 -0.79935974380E+00 -0.46935603605E+00  0.11801511529E+01  0.00000000000E+00 0.  1.
         11    1    3    3    0    0 -0.95833548572E+01  0.38792067827E+02  0.13370571188E+02  0.42135939420E+02  0.51100000000E-03 0. -1.
        -11    1    3    3    0    0  0.80863678915E+01 -0.44077968809E+01  0.41951899690E+01  0.10120159987E+02  0.51100000000E-03 0.  1.
        -12    1    3    3    0    0  0.22273879892E+01 -0.33584911203E+02 -0.17096405121E+02  0.37751749440E+02  0.00000000000E+00 0.  1.
</event>
<event>
 7    1  0.2578619E-015  0.9000772E+02  0.7816164E-02  0.1186339E+00
        -11   -1    0    0    0    0  0.00000000000E+00  0.00000000000E+00  0.45593999997E+02  0.45594000000E+02  0.51100000000E-03 0. -1.
         11   -1    0    0    0    0 -0.00000000000E+00 -0.00000000000E+00 -0.45593999997E+02  0.45594000000E+02  0.51100000000E-03 0.  1.
    9900012    2    1    2    0    0  0.44148359966E+00  0.13961486217E+00  0.10856624648E+01  0.90007719073E+02  0.89999980165E+02 0.  0.
        -12    1    1    2    0    0 -0.44148359966E+00 -0.13961486217E+00 -0.10856624648E+01  0.11802809267E+01  0.00000000000E+00 0.  1.
         11    1    3    3    0    0 -0.19135653361E+02 -0.25355541262E+02  0.86004653873E+01  0.32909644595E+02  0.51100000000E-03 0. -1.
        -11    1    3    3    0    0 -0.85524683668E+01 -0.25377633144E+01  0.10253708163E+02  0.13591301967E+02  0.51100000000E-03 0.  1.
        -12    1    3    3    0    0  0.28129605328E+02  0.28032919439E+02 -0.17768511085E+02  0.43506772511E+02  0.00000000000E+00 0.  1.
</event>
<event>
 7    1  0.3041441E-015  0.9000721E+02  0.7816164E-02  0.1186340E+00
        -11   -1    0    0    0    0  0.00000000000E+00  0.00000000000E+00  0.45593999997E+02  0.45594000000E+02  0.51100000000E-03 0.  1.
         11   -1    0    0    0    0 -0.00000000000E+00 -0.00000000000E+00 -0.45593999997E+02  0.45594000000E+02  0.51100000000E-03 0. -1.
    9900012    2    1    2    0    0 -0.10335722967E+00 -0.10181168773E+01 -0.58907753929E+00  0.90007213381E+02  0.89999467796E+02 0.  0.
        -12    1    1    2    0    0  0.10335722967E+00  0.10181168773E+01  0.58907753929E+00  0.11807866192E+01  0.00000000000E+00 0.  1.
         11    1    3    3    0    0 -0.30312192661E+01 -0.88477923661E+01 -0.26784116659E+01  0.97285974994E+01  0.51100000000E-03 0. -1.
        -11    1    3    3    0    0 -0.27107866509E+01  0.65919802937E+01  0.40659154006E+02  0.41279163911E+02  0.51100000000E-03 0.  1.
         12    1    3    3    0    0  0.56386486873E+01  0.12376951950E+01 -0.38569819880E+02  0.38999451970E+02  0.00000000000E+00 0. -1.
</event>
<event>
 7    1  0.2578619E-015  0.9000777E+02  0.7816164E-02  0.1186339E+00
        -11   -1    0    0    0    0  0.00000000000E+00  0.00000000000E+00  0.45593999997E+02  0.45594000000E+02  0.51100000000E-03 0.  1.
         11   -1    0    0    0    0 -0.00000000000E+00 -0.00000000000E+00 -0.45593999997E+02  0.45594000000E+02  0.51100000000E-03 0. -1.
    9900012    2    1    2    0    0  0.56565942576E-01  0.94455930706E+00 -0.70537768699E+00  0.90007767111E+02  0.90000028837E+02 0.  0.
        -12    1    1    2    0    0 -0.56565942576E-01 -0.94455930706E+00  0.70537768699E+00  0.11802328888E+01  0.00000000000E+00 0.  1.
         11    1    3    3    0    0  0.22040855616E+02  0.13573517570E+02 -0.18223292710E+02  0.31656406824E+02  0.51100000000E-03 0. -1.
        -11    1    3    3    0    0  0.14734686499E+02  0.29677696387E+00 -0.18822806421E+01  0.14857390197E+02  0.51100000000E-03 0.  1.
        -12    1    3    3    0    0 -0.36718976173E+02 -0.12925735227E+02  0.19400195665E+02  0.43493970090E+02  0.00000000000E+00 0.  1.
</event>
<event>
 7    1  0.2578619E-015  0.9000775E+02  0.7816164E-02  0.1186339E+00
        -11   -1    0    0    0    0  0.00000000000E+00  0.00000000000E+00  0.45593999997E+02  0.45594000000E+02  0.51100000000E-03 0.  1.
         11   -1    0    0    0    0 -0.00000000000E+00 -0.00000000000E+00 -0.45593999997E+02  0.45594000000E+02  0.51100000000E-03 0. -1.
    9900012    2    1    2    0    0  0.10055727438E+01  0.61457134917E+00 -0.64072364196E-01  0.90007754367E+02  0.90000015925E+02 0.  0.
        -12    1    1    2    0    0 -0.10055727438E+01 -0.61457134917E+00  0.64072364196E-01  0.11802456330E+01  0.00000000000E+00 0.  1.
         11    1    3    3    0    0  0.18031968254E+02 -0.12794527713E+02 -0.31030765486E+02  0.38101971411E+02  0.51100000000E-03 0. -1.
        -11    1    3    3    0    0 -0.10434875594E+01 -0.94596916165E+01 -0.89000734009E+00  0.95585953514E+01  0.51100000000E-03 0.  1.
        -12    1    3    3    0    0 -0.15982907951E+02  0.22868790679E+02  0.31856700462E+02  0.42347187604E+02  0.00000000000E+00 0.  1.
</event>
<event>
 7    1  0.2578619E-015  0.9000802E+02  0.7816164E-02  0.1186338E+00
        -11   -1    0    0    0    0  0.00000000000E+00  0.00000000000E+00  0.45593999997E+02  0.45594000000E+02  0.51100000000E-03 0.  1.
         11   -1    0    0    0    0 -0.00000000000E+00 -0.00000000000E+00 -0.45593999997E+02  0.45594000000E+02  0.51100000000E-03 0. -1.
    9900012    2    1    2    0    0  0.11377865275E+01  0.24766314974E+00 -0.19092626734E+00  0.90008022010E+02  0.90000287100E+02 0.  0.
        -12    1    1    2    0    0 -0.11377865275E+01 -0.24766314974E+00  0.19092626734E+00  0.11799779902E+01  0.00000000000E+00 0.  1.
         11    1    3    3    0    0 -0.88017876617E+01  0.17486145040E+02 -0.57221391212E+01  0.20395578216E+02  0.51100000000E-03 0. -1.
        -11    1    3    3    0    0  0.24471593823E+02  0.10812460245E+02 -0.16192518560E+02  0.31272445673E+02  0.51100000000E-03 0.  1.
         12    1    3    3    0    0 -0.14532019634E+02 -0.28050942136E+02  0.21723731414E+02  0.38339998120E+02  0.00000000000E+00 0. -1.
</event>
<event>
 7    1  0.2578619E-015  0.9000759E+02  0.7816164E-02  0.1186339E+00
        -11   -1    0    0    0    0  0.00000000000E+00  0.00000000000E+00  0.45593999997E+02  0.45594000000E+02  0.51100000000E-03 0. -1.
         11   -1    0    0    0    0 -0.00000000000E+00 -0.00000000000E+00 -0.45593999997E+02  0.45594000000E+02  0.51100000000E-03 0.  1.
    9900012    2    1    2    0    0 -0.63778259582E+00  0.94825410022E-01  0.98874288493E+00  0.90007588635E+02  0.89999848005E+02 0.  0.
        -12    1    1    2    0    0  0.63778259582E+00 -0.94825410022E-01 -0.98874288493E+00  0.11804113649E+01  0.00000000000E+00 0.  1.
         11    1    3    3    0    0 -0.14542516092E+02  0.27954263017E+02  0.21795707436E+02  0.38314207000E+02  0.51100000000E-03 0. -1.
        -11    1    3    3    0    0 -0.69719115806E+01  0.47743471284E+01 -0.22867125234E+01  0.87539131830E+01  0.51100000000E-03 0.  1.
        -12    1    3    3    0    0  0.20876645077E+02 -0.32633784735E+02 -0.18520252028E+02  0.42939468453E+02  0.00000000000E+00 0.  1.
</event>
<event>
 7    1  0.2578619E-015  0.9000770E+02  0.7816164E-02  0.1186339E+00
        -11   -1    0    0    0    0  0.00000000000E+00  0.00000000000E+00  0.45593999997E+02  0.45594000000E+02  0.51100000000E-03 0.  1.
         11   -1    0    0    0    0 -0.00000000000E+00 -0.00000000000E+00 -0.45593999997E+02  0.45594000000E+02  0.51100000000E-03 0. -1.
    9900012    2    1    2    0    0  0.69797392800E+00  0.93508069138E+00 -0.17767271331E+00  0.90007698726E+02  0.89999959550E+02 0.  0.
        -12    1    1    2    0    0 -0.69797392800E+00 -0.93508069138E+00  0.17767271331E+00  0.11803012737E+01  0.00000000000E+00 0.  1.
         11    1    3    3    0    0 -0.90634904088E+00 -0.63316836643E+01 -0.55716645186E+01  0.84826371122E+01  0.51100000000E-03 0. -1.
        -11    1    3    3    0    0  0.39045693027E+02  0.11041044060E+02  0.13997081244E+02  0.42923060021E+02  0.51100000000E-03 0.  1.
         12    1    3    3    0    0 -0.37441370058E+02 -0.37742797041E+01 -0.86030894392E+01  0.38602001594E+02  0.00000000000E+00 0. -1.
</event>
<event>
 7    1  0.2578619E-015  0.9000780E+02  0.7816164E-02  0.1186339E+00
        -11   -1    0    0    0    0  0.00000000000E+00  0.00000000000E+00  0.45593999997E+02  0.45594000000E+02  0.51100000000E-03 0.  1.
         11   -1    0    0    0    0 -0.00000000000E+00 -0.00000000000E+00 -0.45593999997E+02  0.45594000000E+02  0.51100000000E-03 0. -1.
    9900012    2    1    2    0    0 -0.83255631633E+00 -0.83365358987E+00 -0.68896301205E-01  0.90007798734E+02  0.90000060877E+02 0.  0.
        -12    1    1    2    0    0  0.83255631633E+00  0.83365358987E+00  0.68896301205E-01  0.11802012659E+01  0.00000000000E+00 0.  1.
         11    1    3    3    0    0 -0.33261643268E+02  0.95944729566E+01  0.40461796786E+01  0.34853441644E+02  0.51100000000E-03 0. -1.
        -11    1    3    3    0    0 -0.82691559376E+01  0.58144784048E+01  0.34603767997E+01  0.10684629469E+02  0.51100000000E-03 0.  1.
        -12    1    3    3    0    0  0.40698242889E+02 -0.16242604951E+02 -0.75754527795E+01  0.44469727621E+02  0.00000000000E+00 0.  1.
</event>
<event>
 7    1  0.2578619E-015  0.9000774E+02  0.7816164E-02  0.1186339E+00
        -11   -1    0    0    0    0  0.00000000000E+00  0.00000000000E+00  0.45593999997E+02  0.45594000000E+02  0.51100000000E-03 0. -1.
         11   -1    0    0    0    0 -0.00000000000E+00 -0.00000000000E+00 -0.45593999997E+02  0.45594000000E+02  0.51100000000E-03 0.  1.
    9900012    2    1    2    0    0 -0.11975192129E+00  0.61072070440E+00  0.10028454506E+01  0.90007737614E+02  0.89999998951E+02 0.  0.
        -12    1    1    2    0    0  0.11975192129E+00 -0.61072070440E+00 -0.10028454506E+01  0.11802623857E+01  0.00000000000E+00 0.  1.
         11    1    3    3    0    0  0.96013267841E+01  0.10264046251E+02 -0.58567442957E+01  0.15226213432E+02  0.51100000000E-03 0. -1.
        -11    1    3    3    0    0 -0.54477726111E+00 -0.26488806176E+02 -0.25754189356E+02  0.36949044704E+02  0.51100000000E-03 0.  1.
         12    1    3    3    0    0 -0.91763014443E+01  0.16835480629E+02  0.32613779102E+02  0.37832479479E+02  0.00000000000E+00 0. -1.
</event>
<event>
 7    1  0.2578619E-015  0.9000765E+02  0.7816164E-02  0.1186339E+00
        -11   -1    0    0    0    0  0.00000000000E+00  0.00000000000E+00  0.45593999997E+02  0.45594000000E+02  0.51100000000E-03 0.  1.
         11   -1    0    0    0    0 -0.00000000000E+00 -0.00000000000E+00 -0.45593999997E+02  0.45594000000E+02  0.51100000000E-03 0. -1.
    9900012    2    1    2    0    0 -0.83315640613E+00  0.16942369265E+00 -0.81876293790E+00  0.90007649741E+02  0.89999909918E+02 0.  0.
        -12    1    1    2    0    0  0.83315640613E+00 -0.16942369265E+00  0.81876293790E+00  0.11803502587E+01  0.00000000000E+00 0.  1.
         11    1    3    3    0    0 -0.27261773384E+02  0.12527305206E+02 -0.18330484249E+02  0.35158844077E+02  0.51100000000E-03 0. -1.
        -11    1    3    3    0    0 -0.65151772572E+01  0.64034503175E+01 -0.53412779482E+01  0.10582105700E+02  0.51100000000E-03 0.  1.
        -12    1    3    3    0    0  0.32943794235E+02 -0.18761331830E+02  0.22852999259E+02  0.44266699965E+02  0.00000000000E+00 0.  1.
</event>
<event>
 7    1  0.2578619E-015  0.9000778E+02  0.7816164E-02  0.1186339E+00
        -11   -1    0    0    0    0  0.00000000000E+00  0.00000000000E+00  0.45593999997E+02  0.45594000000E+02  0.51100000000E-03 0.  1.
         11   -1    0    0    0    0 -0.00000000000E+00 -0.00000000000E+00 -0.45593999997E+02  0.45594000000E+02  0.51100000000E-03 0. -1.
    9900012    2    1    2    0    0 -0.10756965963E+01 -0.17707047957E+00  0.45216566288E+00  0.90007775060E+02  0.90000036891E+02 0.  0.
        -12    1    1    2    0    0  0.10756965963E+01  0.17707047957E+00 -0.45216566288E+00  0.11802249399E+01  0.00000000000E+00 0.  1.
         11    1    3    3    0    0 -0.81323386268E+01 -0.17647813701E+02 -0.13717585004E+02  0.23785550206E+02  0.51100000000E-03 0. -1.
        -11    1    3    3    0    0  0.15178176254E+02 -0.19549241061E+02  0.13764241740E+02  0.28319678872E+02  0.51100000000E-03 0.  1.
         12    1    3    3    0    0 -0.81215342232E+01  0.37019984283E+02  0.40550892689E+00  0.37902545982E+02  0.00000000000E+00 0. -1.
</event>
<event>
 7    1  0.2578619E-015  0.9000772E+02  0.7816164E-02  0.1186339E+00
        -11   -1    0    0    0    0  0.00000000000E+00  0.00000000000E+00  0.45593999997E+02  0.45594000000E+02  0.51100000000E-03 0.  1.
         11   -1    0    0    0    0 -0.00000000000E+00 -0.00000000000E+00 -0.45593999997E+02  0.45594000000E+02  0.51100000000E-03 0. -1.
    9900012    2    1    2    0    0  0.31418400000E+00  0.10950484595E+01 -0.30856923185E+00  0.90007721353E+02  0.89999982474E+02 0.  0.
        -12    1    1    2    0    0 -0.31418400000E+00 -0.10950484595E+01  0.30856923185E+00  0.11802786474E+01  0.00000000000E+00 0.  1.
         11    1    3    3    0    0  0.33710665342E-01  0.77290827970E+01 -0.14634048483E+01  0.78664738799E+01  0.51100000000E-03 0. -1.
        -11    1    3    3    0    0  0.26516784700E+01  0.29516629734E+02  0.24998189489E+02  0.38770766146E+02  0.51100000000E-03 0.  1.
         12    1    3    3    0    0 -0.23712051354E+01 -0.36150664072E+02 -0.23843353872E+02  0.43370481327E+02  0.00000000000E+00 0. -1.
</event>
<event>
 7    1  0.2578619E-015  0.9000809E+02  0.7816164E-02  0.1186338E+00
        -11   -1    0    0    0    0  0.00000000000E+00  0.00000000000E+00  0.45593999997E+02  0.45594000000E+02  0.51100000000E-03 0.  1.
         11   -1    0    0    0    0 -0.00000000000E+00 -0.00000000000E+00 -0.45593999997E+02  0.45594000000E+02  0.51100000000E-03 0. -1.
    9900012    2    1    2    0    0 -0.29558222650E+00 -0.82302975945E+00 -0.79211277707E+00  0.90008089203E+02  0.90000355180E+02 0.  0.
        -12    1    1    2    0    0  0.29558222650E+00  0.82302975945E+00  0.79211277707E+00  0.11799107971E+01  0.00000000000E+00 0.  1.
         11    1    3    3    0    0 -0.13400921417E+02 -0.19011446169E+02 -0.33288160083E+02  0.40609375546E+02  0.51100000000E-03 0. -1.
        -11    1    3    3    0    0 -0.68175503207E+01 -0.35522912343E+01  0.59415259256E+01  0.97159403031E+01  0.51100000000E-03 0.  1.
        -12    1    3    3    0    0  0.19922889511E+02  0.21740707644E+02  0.26554521380E+02  0.39682773354E+02  0.00000000000E+00 0.  1.
</event>
<event>
 7    1  0.5183263E-015  0.9000777E+02  0.7816164E-02  0.1186339E+00
        -11   -1    0    0    0    0  0.00000000000E+00  0.00000000000E+00  0.45593999997E+02  0.45594000000E+02  0.51100000000E-03 0. -1.
         11   -1    0    0    0    0 -0.00000000000E+00 -0.00000000000E+00 -0.45593999997E+02  0.45594000000E+02  0.51100000000E-03 0.  1.
    9900012    2    1    2    0    0  0.80100643985E-01  0.55528446407E+00  0.10383547936E+01  0.90007772214E+02  0.90000034007E+02 0.  0.
        -12    1    1    2    0    0 -0.80100643985E-01 -0.55528446407E+00 -0.10383547936E+01  0.11802277859E+01  0.00000000000E+00 0.  1.
         11    1    3    3    0    0 -0.83476140941E+01  0.83857668900E+00  0.36658369232E+01  0.91555574672E+01  0.51100000000E-03 0. -1.
        -11    1    3    3    0    0 -0.90800846392E+01 -0.69707446614E+00 -0.39231456617E+02  0.40274570618E+02  0.51100000000E-03 0.  1.
         12    1    3    3    0    0  0.17507799377E+02  0.41378224121E+00  0.36603974488E+02  0.40577644129E+02  0.00000000000E+00 0. -1.
</event>
<event>
 7    1  0.2578619E-015  0.9000781E+02  0.7816164E-02  0.1186339E+00
        -11   -1    0    0    0    0  0.00000000000E+00  0.00000000000E+00  0.45593999997E+02  0.45594000000E+02  0.51100000000E-03 0. -1.
         11   -1    0    0    0    0 -0.00000000000E+00 -0.00000000000E+00 -0.45593999997E+02  0.45594000000E+02  0.51100000000E-03 0.  1.
    9900012    2    1    2    0    0 -0.99183643039E+00  0.16077916933E+00  0.61907476134E+00  0.90007812300E+02  0.90000074623E+02 0.  0.
        -12    1    1    2    0    0  0.99183643039E+00 -0.16077916933E+00 -0.61907476134E+00  0.11801876995E+01  0.00000000000E+00 0.  1.
         11    1    3    3    0    0 -0.10504051754E+02  0.38323599348E+02 -0.17080303674E+02  0.43252400443E+02  0.51100000000E-03 0. -1.
        -11    1    3    3    0    0 -0.21366903262E+01 -0.10256162916E+02 -0.19987313952E+01  0.10665329379E+02  0.51100000000E-03 0.  1.
        -12    1    3    3    0    0  0.11648905650E+02 -0.27906657263E+02  0.19698109830E+02  0.36090082479E+02  0.00000000000E+00 0.  1.
</event>
<event>
 7    1  0.2578619E-015  0.9000770E+02  0.7816164E-02  0.1186339E+00
        -11   -1    0    0    0    0  0.00000000000E+00  0.00000000000E+00  0.45593999997E+02  0.45594000000E+02  0.51100000000E-03 0. -1.
         11   -1    0    0    0    0 -0.00000000000E+00 -0.00000000000E+00 -0.45593999997E+02  0.45594000000E+02  0.51100000000E-03 0.  1.
    9900012    2    1    2    0    0  0.10701690618E+01 -0.31331467794E+00 -0.38689689379E+00  0.90007696177E+02  0.89999956966E+02 0.  0.
        -12    1    1    2    0    0 -0.10701690618E+01  0.31331467794E+00  0.38689689379E+00  0.11803038230E+01  0.00000000000E+00 0.  1.
         11    1    3    3    0    0  0.35824914616E+02 -0.12727217509E+02  0.93053873888E+01  0.39140730799E+02  0.51100000000E-03 0. -1.
        -11    1    3    3    0    0  0.99246047206E+00 -0.84442293610E+01 -0.24716629652E+01  0.88543269290E+01  0.51100000000E-03 0.  1.
        -12    1    3    3    0    0 -0.35747206027E+02  0.20858132192E+02 -0.72206213174E+01  0.42012638449E+02  0.00000000000E+00 0.  1.
</event>
<event>
 7    1  0.2578619E-015  0.9000752E+02  0.7816164E-02  0.1186339E+00
        -11   -1    0    0    0    0  0.00000000000E+00  0.00000000000E+00  0.45593999997E+02  0.45594000000E+02  0.51100000000E-03 0.  1.
         11   -1    0    0    0    0 -0.00000000000E+00 -0.00000000000E+00 -0.45593999997E+02  0.45594000000E+02  0.51100000000E-03 0. -1.
    9900012    2    1    2    0    0 -0.29823308225E+00  0.13805433471E+00 -0.11338158688E+01  0.90007516881E+02  0.89999775303E+02 0.  0.
        -12    1    1    2    0    0  0.29823308225E+00 -0.13805433471E+00  0.11338158688E+01  0.11804831194E+01  0.00000000000E+00 0.  1.
         11    1    3    3    0    0 -0.65033141035E+01  0.39751923615E+01 -0.64153323785E+01  0.99625166714E+01  0.51100000000E-03 0. -1.
        -11    1    3    3    0    0 -0.34797989042E+01 -0.40765180918E+02  0.83075322563E+01  0.41748342101E+02  0.51100000000E-03 0.  1.
         12    1    3    3    0    0  0.96848799255E+01  0.36928042892E+02 -0.30260157466E+01  0.38296658108E+02  0.00000000000E+00 0. -1.
</event>
<event>
 7    1  0.2578619E-015  0.9000785E+02  0.7816164E-02  0.1186339E+00
        -11   -1    0    0    0    0  0.00000000000E+00  0.00000000000E+00  0.45593999997E+02  0.45594000000E+02  0.51100000000E-03 0.  1.
         11   -1    0    0    0    0 -0.00000000000E+00 -0.00000000000E+00 -0.45593999997E+02  0.45594000000E+02  0.51100000000E-03 0. -1.
    9900012    2    1    2    0    0  0.10166487271E+01 -0.88154370967E-01 -0.59279493224E+00  0.90007851001E+02  0.90000113834E+02 0.  0.
        -12    1    1    2    0    0 -0.10166487271E+01  0.88154370967E-01  0.59279493224E+00  0.11801489987E+01  0.00000000000E+00 0.  1.
         11    1    3    3    0    0  0.35723748005E+01 -0.30294765344E+01 -0.92144910352E+01  0.10336654927E+02  0.51100000000E-03 0. -1.
        -11    1    3    3    0    0  0.23668635921E+02  0.31245375932E+02  0.11852580298E+02  0.40950720426E+02  0.51100000000E-03 0.  1.
         12    1    3    3    0    0 -0.26224361994E+02 -0.28304053768E+02 -0.32308841952E+01  0.38720475648E+02  0.00000000000E+00 0. -1.
</event>
<event>
 7    1  0.2578619E-015  0.9000771E+02  0.7816164E-02  0.1186339E+00
        -11   -1    0    0    0    0  0.00000000000E+00  0.00000000000E+00  0.45593999997E+02  0.45594000000E+02  0.51100000000E-03 0. -1.
         11   -1    0    0    0    0 -0.00000000000E+00 -0.00000000000E+00 -0.45593999997E+02  0.45594000000E+02  0.51100000000E-03 0.  1.
    9900012    2    1    2    0    0  0.75207972902E-01 -0.41679225992E+00  0.11016812319E+01  0.90007714626E+02  0.89999975659E+02 0.  0.
        -12    1    1    2    0    0 -0.75207972902E-01  0.41679225992E+00 -0.11016812319E+01  0.11802853739E+01  0.00000000000E+00 0.  1.
         11    1    3    3    0    0  0.18468806796E+02 -0.17006683980E+02 -0.13816809285E+02  0.28657081909E+02  0.51100000000E-03 0. -1.
        -11    1    3    3    0    0  0.79026587463E+01 -0.11604500849E+02 -0.83343165174E+01  0.16327194716E+02  0.51100000000E-03 0.  1.
        -12    1    3    3    0    0 -0.26296257569E+02  0.28194392569E+02  0.23252807035E+02  0.45023438001E+02  0.00000000000E+00 0.  1.
</event>
<event>
 7    1  0.2578619E-015  0.9000733E+02  0.7816164E-02  0.1186340E+00
        -11   -1    0    0    0    0  0.00000000000E+00  0.00000000000E+00  0.45593999997E+02  0.45594000000E+02  0.51100000000E-03 0.  1.
         11   -1    0    0    0    0 -0.00000000000E+00 -0.00000000000E+00 -0.45593999997E+02  0.45594000000E+02  0.51100000000E-03 0. -1.
    9900012    2    1    2    0    0  0.44052486055E+00 -0.15488032179E-01 -0.10952961949E+01  0.90007332483E+02  0.89999588470E+02 0.  0.
        -12    1    1    2    0    0 -0.44052486055E+00  0.15488032179E-01  0.10952961949E+01  0.11806675174E+01  0.00000000000E+00 0.  1.
         11    1    3    3    0    0  0.24112240431E+01  0.12081582877E+02 -0.80072079230E+01  0.14693332678E+02  0.51100000000E-03 0. -1.
        -11    1    3    3    0    0  0.36762411232E+01  0.55457731960E+01  0.38296503381E+02  0.38870200934E+02  0.51100000000E-03 0.  1.
         12    1    3    3    0    0 -0.56469403058E+01 -0.17642844105E+02 -0.31384591653E+02  0.36443798871E+02  0.00000000000E+00 0. -1.
</event>
<event>
 7    1  0.2578619E-015  0.9000781E+02  0.7816164E-02  0.1186339E+00
        -11   -1    0    0    0    0  0.00000000000E+00  0.00000000000E+00  0.45593999997E+02  0.45594000000E+02  0.51100000000E-03 0. -1.
         11   -1    0    0    0    0 -0.00000000000E+00 -0.00000000000E+00 -0.45593999997E+02  0.45594000000E+02  0.51100000000E-03 0.  1.
    9900012    2    1    2    0    0  0.11015250446E+01 -0.41742417232E+00  0.72420113062E-01  0.90007811440E+02  0.90000073751E+02 0.  0.
        -12    1    1    2    0    0 -0.11015250446E+01  0.41742417232E+00 -0.72420113062E-01  0.11801885597E+01  0.00000000000E+00 0.  1.
         11    1    3    3    0    0  0.51354266512E+01 -0.50925925746E+01 -0.66651834083E+01  0.98352313724E+01  0.51100000000E-03 0. -1.
        -11    1    3    3    0    0 -0.15664364168E+02  0.10021836954E+02 -0.33298889507E+02  0.38139553791E+02  0.51100000000E-03 0.  1.
         12    1    3    3    0    0  0.11630462561E+02 -0.53466685518E+01  0.40036493028E+02  0.42033026277E+02  0.00000000000E+00 0. -1.
</event>
<event>
 7    1  0.2578619E-015  0.9000776E+02  0.7816164E-02  0.1186339E+00
        -11   -1    0    0    0    0  0.00000000000E+00  0.00000000000E+00  0.45593999997E+02  0.45594000000E+02  0.51100000000E-03 0. -1.
         11   -1    0    0    0    0 -0.00000000000E+00 -0.00000000000E+00 -0.45593999997E+02  0.45594000000E+02  0.51100000000E-03 0.  1.
    9900012    2    1    2    0    0  0.96952667298E+00  0.67007598893E+00 -0.63140337961E-01  0.90007758286E+02  0.90000019896E+02 0.  0.
        -12    1    1    2    0    0 -0.96952667298E+00 -0.67007598893E+00  0.63140337961E-01  0.11802417137E+01  0.00000000000E+00 0.  1.
         11    1    3    3    0    0  0.20120819467E+00 -0.11714287552E+02  0.21940895180E+02  0.24873035584E+02  0.51100000000E-03 0. -1.
        -11    1    3    3    0    0  0.91254001490E+01 -0.21089595645E+02 -0.20184691538E+02  0.30585384501E+02  0.51100000000E-03 0.  1.
         12    1    3    3    0    0 -0.83570816707E+01  0.33473959186E+02 -0.18193439802E+01  0.34549338201E+02  0.00000000000E+00 0. -1.
</event>
<event>
 7    1  0.2578619E-015  0.9000830E+02  0.7816164E-02  0.1186338E+00
        -11   -1    0    0    0    0  0.00000000000E+00  0.00000000000E+00  0.45593999997E+02  0.45594000000E+02  0.51100000000E-03 0.  1.
         11   -1    0    0    0    0 -0.00000000000E+00 -0.00000000000E+00 -0.45593999997E+02  0.45594000000E+02  0.51100000000E-03 0. -1.
    9900012    2    1    2    0    0  0.10735753244E+00  0.94453845337E+00 -0.69858621949E+00  0.90008296124E+02  0.90000564831E+02 0.  0.
        -12    1    1    2    0    0 -0.10735753244E+00 -0.94453845337E+00  0.69858621949E+00  0.11797038763E+01  0.00000000000E+00 0.  1.
         11    1    3    3    0    0 -0.87826708646E+01 -0.25967426610E+01 -0.45539569438E+00  0.91698290858E+01  0.51100000000E-03 0. -1.
        -11    1    3    3    0    0  0.23181085055E+01  0.19901006207E+02  0.35624418107E+02  0.40872030055E+02  0.51100000000E-03 0.  1.
         12    1    3    3    0    0  0.65719198915E+01 -0.16359725093E+02 -0.35867608632E+02  0.39966436983E+02  0.00000000000E+00 0. -1.
</event>
<event>
 7    1  0.2578619E-015  0.9000772E+02  0.7816164E-02  0.1186339E+00
        -11   -1    0    0    0    0  0.00000000000E+00  0.00000000000E+00  0.45593999997E+02  0.45594000000E+02  0.51100000000E-03 0. -1.
         11   -1    0    0    0    0 -0.00000000000E+00 -0.00000000000E+00 -0.45593999997E+02  0.45594000000E+02  0.51100000000E-03 0.  1.
    9900012    2    1    2    0    0  0.10081587607E+01 -0.31346785408E+00  0.52764291716E+00  0.90007723240E+02  0.89999984387E+02 0.  0.
        -12    1    1    2    0    0 -0.10081587607E+01  0.31346785408E+00 -0.52764291716E+00  0.11802767601E+01  0.00000000000E+00 0.  1.
         11    1    3    3    0    0  0.33245066117E+01 -0.26130920145E+02  0.27791215037E+02  0.38291369332E+02  0.51100000000E-03 0. -1.
        -11    1    3    3    0    0 -0.13181730923E+01  0.56576167551E+01  0.87085077451E+01  0.10468252722E+02  0.51100000000E-03 0.  1.
        -12    1    3    3    0    0 -0.99817475866E+00  0.20159835536E+02 -0.35972079865E+02  0.41248101186E+02  0.00000000000E+00 0.  1.
</event>
<event>
 7    1  0.2578619E-015  0.9000765E+02  0.7816164E-02  0.1186339E+00
        -11   -1    0    0    0    0  0.00000000000E+00  0.00000000000E+00  0.45593999997E+02  0.45594000000E+02  0.51100000000E-03 0.  1.
         11   -1    0    0    0    0 -0.00000000000E+00 -0.00000000000E+00 -0.45593999997E+02  0.45594000000E+02  0.51100000000E-03 0. -1.
    9900012    2    1    2    0    0  0.74999763985E-01 -0.78934235583E+00 -0.87437697437E+00  0.90007651995E+02  0.89999912201E+02 0.  0.
        -12    1    1    2    0    0 -0.74999763985E-01  0.78934235583E+00  0.87437697437E+00  0.11803480049E+01  0.00000000000E+00 0.  1.
         11    1    3    3    0    0 -0.19061849456E+01 -0.85330976679E+01  0.56530648771E+01  0.10411745273E+02  0.51100000000E-03 0. -1.
        -11    1    3    3    0    0 -0.36843288769E+02  0.92909816566E+01  0.66351167615E+01  0.38571687053E+02  0.51100000000E-03 0.  1.
         12    1    3    3    0    0  0.38824473478E+02 -0.15472263445E+01 -0.13162558613E+02  0.41024219669E+02  0.00000000000E+00 0. -1.
</event>
<event>
 7    1  0.2578619E-015  0.9000771E+02  0.7816164E-02  0.1186339E+00
        -11   -1    0    0    0    0  0.00000000000E+00  0.00000000000E+00  0.45593999997E+02  0.45594000000E+02  0.51100000000E-03 0. -1.
         11   -1    0    0    0    0 -0.00000000000E+00 -0.00000000000E+00 -0.45593999997E+02  0.45594000000E+02  0.51100000000E-03 0.  1.
    9900012    2    1    2    0    0  0.68880073500E+00 -0.77342604252E+00 -0.56607539649E+00  0.90007713742E+02  0.89999974764E+02 0.  0.
        -12    1    1    2    0    0 -0.68880073500E+00  0.77342604252E+00  0.56607539649E+00  0.11802862578E+01  0.00000000000E+00 0.  1.
         11    1    3    3    0    0  0.28963516625E+02  0.63796835083E+01  0.12548561097E+02  0.32203292422E+02  0.51100000000E-03 0. -1.
        -11    1    3    3    0    0  0.12880819962E+02 -0.32853166621E+01  0.26657769960E+01  0.13557846279E+02  0.51100000000E-03 0.  1.
        -12    1    3    3    0    0 -0.41155535852E+02 -0.38677928887E+01 -0.15780413489E+02  0.44246575042E+02  0.00000000000E+00 0.  1.
</event>
<event>
 7    1  0.2578619E-015  0.9000772E+02  0.7816164E-02  0.1186339E+00
        -11   -1    0    0    0    0  0.00000000000E+00  0.00000000000E+00  0.45593999997E+02  0.45594000000E+02  0.51100000000E-03 0.  1.
         11   -1    0    0    0    0 -0.00000000000E+00 -0.00000000000E+00 -0.45593999997E+02  0.45594000000E+02  0.51100000000E-03 0. -1.
    9900012    2    1    2    0    0 -0.92772571879E+00 -0.24752978480E+00 -0.68637341838E+00  0.90007722713E+02  0.89999983853E+02 0.  0.
        -12    1    1    2    0    0  0.92772571879E+00  0.24752978480E+00  0.68637341838E+00  0.11802772865E+01  0.00000000000E+00 0.  1.
         11    1    3    3    0    0  0.25735943648E+02  0.26919413133E+02 -0.93378992794E+01  0.38395181496E+02  0.51100000000E-03 0. -1.
        -11    1    3    3    0    0 -0.33851623462E+01  0.80044470825E+01  0.19395304406E+01  0.89046210362E+01  0.51100000000E-03 0.  1.
        -12    1    3    3    0    0 -0.23278507021E+02 -0.35171390000E+02  0.67119954204E+01  0.42707920181E+02  0.00000000000E+00 0.  1.
</event>
<event>
 7    1  0.2578619E-015  0.9000774E+02  0.7816164E-02  0.1186339E+00
        -11   -1    0    0    0    0  0.00000000000E+00  0.00000000000E+00  0.45593999997E+02  0.45594000000E+02  0.51100000000E-03 0.  1.
         11   -1    0    0    0    0 -0.00000000000E+00 -0.00000000000E+00 -0.45593999997E+02  0.45594000000E+02  0.51100000000E-03 0. -1.
    9900012    2    1    2    0    0  0.63780945612E+00  0.97105235635E+00 -0.20801251555E+00  0.90007740373E+02  0.90000001746E+02 0.  0.
        -12    1    1    2    0    0 -0.63780945612E+00 -0.97105235635E+00  0.20801251555E+00  0.11802596272E+01  0.00000000000E+00 0.  1.
         11    1    3    3    0    0 -0.81440724023E+01  0.99753612062E+01  0.77349183438E+01  0.15022074042E+02  0.51100000000E-03 0. -1.
        -11    1    3    3    0    0 -0.70007574274E+01  0.29703632843E+02 -0.12413160923E+02  0.32945454512E+02  0.51100000000E-03 0.  1.
         12    1    3    3    0    0  0.15782639286E+02 -0.38707941693E+02  0.44702300638E+01  0.42040211819E+02  0.00000000000E+00 0. -1.
</event>
<event>
 7    1  0.2578619E-015  0.9000774E+02  0.7816164E-02  0.1186339E+00
        -11   -1    0    0    0    0  0.00000000000E+00  0.00000000000E+00  0.45593999997E+02  0.45594000000E+02  0.51100000000E-03 0. -1.
         11   -1    0    0    0    0 -0.00000000000E+00 -0.00000000000E+00 -0.45593999997E+02  0.45594000000E+02  0.51100000000E-03 0.  1.
    9900012    2    1    2    0    0  0.50764607131E+00 -0.89769388539E+00 -0.57398513611E+00  0.90007738257E+02  0.89999999602E+02 0.  0.
        -12    1    1    2    0    0 -0.50764607131E+00  0.89769388539E+00  0.57398513611E+00  0.11802617430E+01  0.00000000000E+00 0.  1.
         11    1    3    3    0    0  0.33440651184E+02 -0.93283059501E+01  0.14950366551E+02  0.37799575444E+02  0.51100000000E-03 0. -1.
        -11    1    3    3    0    0  0.53727183572E+01  0.97450803345E+01 -0.62919431699E+01  0.12783631815E+02  0.51100000000E-03 0.  1.
        -12    1    3    3    0    0 -0.38305723470E+02 -0.13144682698E+01 -0.92324085172E+01  0.39424530998E+02  0.00000000000E+00 0.  1.
</event>
<event>
 7    1  0.2578619E-015  0.9000768E+02  0.7816164E-02  0.1186339E+00
        -11   -1    0    0    0    0  0.00000000000E+00  0.00000000000E+00  0.45593999997E+02  0.45594000000E+02  0.51100000000E-03 0.  1.
         11   -1    0    0    0    0 -0.00000000000E+00 -0.00000000000E+00 -0.45593999997E+02  0.45594000000E+02  0.51100000000E-03 0. -1.
    9900012    2    1    2    0    0  0.74070566229E+00 -0.19113883824E+00 -0.89887532000E+00  0.90007679800E+02  0.89999940373E+02 0.  0.
        -12    1    1    2    0    0 -0.74070566229E+00  0.19113883824E+00  0.89887532000E+00  0.11803202000E+01  0.00000000000E+00 0.  1.
         11    1    3    3    0    0 -0.34211851602E+02  0.23007487275E+02  0.12440863464E+01  0.41247339452E+02  0.51100000000E-03 0. -1.
        -11    1    3    3    0    0  0.49279689599E+01  0.32177231927E+01 -0.62184204002E+01  0.85619725034E+01  0.51100000000E-03 0.  1.
        -12    1    3    3    0    0  0.30024588304E+02 -0.26416349306E+02  0.40754587337E+01  0.40198367845E+02  0.00000000000E+00 0.  1.
</event>
<event>
 7    1  0.2578619E-015  0.9000778E+02  0.7816164E-02  0.1186339E+00
        -11   -1    0    0    0    0  0.00000000000E+00  0.00000000000E+00  0.45593999997E+02  0.45594000000E+02  0.51100000000E-03 0. -1.
         11   -1    0    0    0    0 -0.00000000000E+00 -0.00000000000E+00 -0.45593999997E+02  0.45594000000E+02  0.51100000000E-03 0.  1.
    9900012    2    1    2    0    0  0.85715680770E+00  0.66066414682E+00  0.47087380095E+00  0.90007780934E+02  0.90000042842E+02 0.  0.
        -12    1    1    2    0    0 -0.85715680770E+00 -0.66066414682E+00 -0.47087380095E+00  0.11802190662E+01  0.00000000000E+00 0.  1.
         11    1    3    3    0    0 -0.53123361300E+00  0.60779272680E+01  0.39250929750E+02  0.39722272034E+02  0.51100000000E-03 0. -1.
        -11    1    3    3    0    0  0.66311126638E+01  0.61804053140E+01  0.41654174408E+00  0.90742808140E+01  0.51100000000E-03 0.  1.
        -12    1    3    3    0    0 -0.52427222431E+01 -0.11597668435E+02 -0.39196597693E+02  0.41211228086E+02  0.00000000000E+00 0.  1.
</event>
<event>
 7    1  0.2578619E-015  0.9000777E+02  0.7816164E-02  0.1186339E+00
        -11   -1    0    0    0    0  0.00000000000E+00  0.00000000000E+00  0.45593999997E+02  0.45594000000E+02  0.51100000000E-03 0.  1.
         11   -1    0    0    0    0 -0.00000000000E+00 -0.00000000000E+00 -0.45593999997E+02  0.45594000000E+02  0.51100000000E-03 0. -1.
    9900012    2    1    2    0    0 -0.71616360180E+00 -0.93543384418E+00  0.70854438070E-01  0.90007768187E+02  0.90000029927E+02 0.  0.
        -12    1    1    2    0    0  0.71616360180E+00  0.93543384418E+00 -0.70854438070E-01  0.11802318132E+01  0.00000000000E+00 0.  1.
         11    1    3    3    0    0 -0.52149269807E+01  0.93276051921E+01  0.74297225645E+00  0.10712221528E+02  0.51100000000E-03 0. -1.
        -11    1    3    3    0    0  0.10909376546E+02  0.13213054233E+02 -0.33973464523E+02  0.38049909208E+02  0.51100000000E-03 0.  1.
         12    1    3    3    0    0 -0.64106131666E+01 -0.23476093270E+02  0.33301346705E+02  0.41245637451E+02  0.00000000000E+00 0. -1.
</event>
<event>
 7    1  0.2578619E-015  0.9000768E+02  0.7816164E-02  0.1186339E+00
        -11   -1    0    0    0    0  0.00000000000E+00  0.00000000000E+00  0.45593999997E+02  0.45594000000E+02  0.51100000000E-03 0. -1.
         11   -1    0    0    0    0 -0.00000000000E+00 -0.00000000000E+00 -0.45593999997E+02  0.45594000000E+02  0.51100000000E-03 0.  1.
    9900012    2    1    2    0    0  0.16872794276E+00  0.86881246808E+00  0.78093277942E+00  0.90007677913E+02  0.89999938461E+02 0.  0.
        -12    1    1    2    0    0 -0.16872794276E+00 -0.86881246808E+00 -0.78093277942E+00  0.11803220871E+01  0.00000000000E+00 0.  1.
         11    1    3    3    0    0 -0.30239216791E+01  0.97144337653E+01  0.12617031163E+00  0.10174981322E+02  0.51100000000E-03 0. -1.
        -11    1    3    3    0    0  0.20118701307E+02 -0.18741783458E+01  0.35285632625E+02  0.40661413610E+02  0.51100000000E-03 0.  1.
         12    1    3    3    0    0 -0.16926051685E+02 -0.69714429514E+01 -0.34630870158E+02  0.39171282980E+02  0.00000000000E+00 0. -1.
</event>
<event>
 7    1  0.2578619E-015  0.9000762E+02  0.7816164E-02  0.1186339E+00
        -11   -1    0    0    0    0  0.00000000000E+00  0.00000000000E+00  0.45593999997E+02  0.45594000000E+02  0.51100000000E-03 0. -1.
         11   -1    0    0    0    0 -0.00000000000E+00 -0.00000000000E+00 -0.45593999997E+02  0.45594000000E+02  0.51100000000E-03 0.  1.
    9900012    2    1    2    0    0 -0.66584795680E+00  0.79392280069E+00  0.56536523641E+00  0.90007616687E+02  0.89999876427E+02 0.  0.
        -12    1    1    2    0    0  0.66584795680E+00 -0.79392280069E+00 -0.56536523641E+00  0.11803833130E+01  0.00000000000E+00 0.  1.
         11    1    3    3    0    0  0.22060530523E+01  0.89614565828E+01 -0.47747713565E+00  0.92413396664E+01  0.51100000000E-03 0. -1.
        -11    1    3    3    0    0  0.27040349569E+02 -0.16103832596E+02 -0.25099304558E+02  0.40255298020E+02  0.51100000000E-03 0.  1.
         12    1    3    3    0    0 -0.29912250578E+02  0.79362988139E+01  0.26142146930E+02  0.40510979001E+02  0.00000000000E+00 0. -1.
</event>
<event>
 7    1  0.2578619E-015  0.9000770E+02  0.7816164E-02  0.1186339E+00
        -11   -1    0    0    0    0  0.00000000000E+00  0.00000000000E+00  0.45593999997E+02  0.45594000000E+02  0.51100000000E-03 0.  1.
         11   -1    0    0    0    0 -0.00000000000E+00 -0.00000000000E+00 -0.45593999997E+02  0.45594000000E+02  0.51100000000E-03 0. -1.
    9900012    2    1    2    0    0 -0.71397124153E+00 -0.90040164914E+00 -0.26951916847E+00  0.90007695528E+02  0.89999956309E+02 0.  0.
        -12    1    1    2    0    0  0.71397124153E+00  0.90040164914E+00  0.26951916847E+00  0.11803044716E+01  0.00000000000E+00 0.  1.
         11    1    3    3    0    0  0.97650394859E+01  0.12684528844E+02 -0.15412425877E+02  0.22221524246E+02  0.51100000000E-03 0. -1.
        -11    1    3    3    0    0  0.38007818212E+01  0.99163192567E+01 -0.20309623028E+02  0.22918554009E+02  0.51100000000E-03 0.  1.
        -12    1    3    3    0    0 -0.14279792549E+02 -0.23501249750E+02  0.35452529737E+02  0.44867617273E+02  0.00000000000E+00 0.  1.
</event>
<event>
 7    1  0.2578619E-015  0.9000771E+02  0.7816164E-02  0.1186339E+00
        -11   -1    0    0    0    0  0.00000000000E+00  0.00000000000E+00  0.45593999997E+02  0.45594000000E+02  0.51100000000E-03 0. -1.
         11   -1    0    0    0    0 -0.00000000000E+00 -0.00000000000E+00 -0.45593999997E+02  0.45594000000E+02  0.51100000000E-03 0.  1.
    9900012    2    1    2    0    0 -0.85873736342E+00  0.22604952450E+00  0.77753034755E+00  0.90007711184E+02  0.89999972172E+02 0.  0.
        -12    1    1    2    0    0  0.85873736342E+00 -0.22604952450E+00 -0.77753034755E+00  0.11802888156E+01  0.00000000000E+00 0.  1.
         11    1    3    3    0    0 -0.10515345101E+02 -0.30650981158E+02 -0.10945080035E+02  0.34203068660E+02  0.51100000000E-03 0. -1.
        -11    1    3    3    0    0 -0.14716286800E+02  0.18315104905E+02 -0.45334654652E+01  0.23928319503E+02  0.51100000000E-03 0.  1.
        -12    1    3    3    0    0  0.24372894538E+02  0.12561925778E+02  0.16256075848E+02  0.31876323021E+02  0.00000000000E+00 0.  1.
</event>
<event>
 7    1  0.2578619E-015  0.9000770E+02  0.7816164E-02  0.1186339E+00
        -11   -1    0    0    0    0  0.00000000000E+00  0.00000000000E+00  0.45593999997E+02  0.45594000000E+02  0.51100000000E-03 0. -1.
         11   -1    0    0    0    0 -0.00000000000E+00 -0.00000000000E+00 -0.45593999997E+02  0.45594000000E+02  0.51100000000E-03 0.  1.
    9900012    2    1    2    0    0  0.75178778268E+00 -0.72108990837E+00  0.55492419718E+00  0.90007704956E+02  0.89999965861E+02 0.  0.
        -12    1    1    2    0    0 -0.75178778268E+00  0.72108990837E+00 -0.55492419718E+00  0.11802950439E+01  0.00000000000E+00 0.  1.
         11    1    3    3    0    0 -0.33741446617E+02 -0.16894216580E+02  0.16905795581E+02  0.41348587620E+02  0.51100000000E-03 0. -1.
        -11    1    3    3    0    0 -0.24096700190E+01  0.54049163371E+01 -0.68661911320E+01  0.90644476464E+01  0.51100000000E-03 0.  1.
        -12    1    3    3    0    0  0.36902904419E+02  0.10768210335E+02 -0.94846802516E+01  0.39594669690E+02  0.00000000000E+00 0.  1.
</event>
<event>
 7    1  0.2578619E-015  0.9000779E+02  0.7816164E-02  0.1186339E+00
        -11   -1    0    0    0    0  0.00000000000E+00  0.00000000000E+00  0.45593999997E+02  0.45594000000E+02  0.51100000000E-03 0.  1.
         11   -1    0    0    0    0 -0.00000000000E+00 -0.00000000000E+00 -0.45593999997E+02  0.45594000000E+02  0.51100000000E-03 0. -1.
    9900012    2    1    2    0    0 -0.43865756440E+00 -0.88780626290E+00 -0.64208769704E+00  0.90007789413E+02  0.90000051433E+02 0.  0.
        -12    1    1    2    0    0  0.43865756440E+00  0.88780626290E+00  0.64208769704E+00  0.11802105871E+01  0.00000000000E+00 0.  1.
         11    1    3    3    0    0  0.12491185262E+01 -0.45948016487E+01  0.16891503650E+01  0.50522993281E+01  0.51100000000E-03 0. -1.
        -11    1    3    3    0    0  0.26516421317E+01  0.17496792372E+02  0.38104431553E+02  0.42013291391E+02  0.51100000000E-03 0.  1.
         12    1    3    3    0    0 -0.43394182223E+01 -0.13789796986E+02 -0.40435669615E+02  0.42942198694E+02  0.00000000000E+00 0. -1.
</event>
<event>
 7    1  0.2578619E-015  0.9000772E+02  0.7816164E-02  0.1186339E+00
        -11   -1    0    0    0    0  0.00000000000E+00  0.00000000000E+00  0.45593999997E+02  0.45594000000E+02  0.51100000000E-03 0.  1.
         11   -1    0    0    0    0 -0.00000000000E+00 -0.00000000000E+00 -0.45593999997E+02  0.45594000000E+02  0.51100000000E-03 0. -1.
    9900012    2    1    2    0    0 -0.86373128602E+00 -0.74619397558E+00  0.30036280070E+00  0.90007722492E+02  0.89999983629E+02 0.  0.
        -12    1    1    2    0    0  0.86373128602E+00  0.74619397558E+00 -0.30036280070E+00  0.11802775079E+01  0.00000000000E+00 0.  1.
         11    1    3    3    0    0  0.27677570716E+01  0.71543178889E+01 -0.28203417819E+01  0.81730699062E+01  0.51100000000E-03 0. -1.
        -11    1    3    3    0    0  0.12153680167E+02  0.26612430869E+02 -0.21753948144E+02  0.36457751967E+02  0.51100000000E-03 0.  1.
         12    1    3    3    0    0 -0.15785168524E+02 -0.34512942734E+02  0.24874652727E+02  0.45376900619E+02  0.00000000000E+00 0. -1.
</event>
<event>
 7    1  0.2578619E-015  0.9000814E+02  0.7816164E-02  0.1186338E+00
        -11   -1    0    0    0    0  0.00000000000E+00  0.00000000000E+00  0.45593999997E+02  0.45594000000E+02  0.51100000000E-03 0.  1.
         11   -1    0    0    0    0 -0.00000000000E+00 -0.00000000000E+00 -0.45593999997E+02  0.45594000000E+02  0.51100000000E-03 0. -1.
    9900012    2    1    2    0    0  0.93674674434E-01 -0.11280810872E+01 -0.33274488813E+00  0.90008143634E+02  0.90000410329E+02 0.  0.
        -12    1    1    2    0    0 -0.93674674434E-01  0.11280810872E+01  0.33274488813E+00  0.11798563660E+01  0.00000000000E+00 0.  1.
         11    1    3    3    0    0 -0.12622709519E+01 -0.98791785703E+01 -0.23339470976E+01  0.10229311145E+02  0.51100000000E-03 0. -1.
        -11    1    3    3    0    0  0.12241614567E+02 -0.27793077570E+02  0.21248982054E+02  0.37065233395E+02  0.51100000000E-03 0.  1.
         12    1    3    3    0    0 -0.10885668941E+02  0.36544175053E+02 -0.19247779845E+02  0.42713599094E+02  0.00000000000E+00 0. -1.
</event>
<event>
 7    1  0.2578619E-015  0.9000775E+02  0.7816164E-02  0.1186339E+00
        -11   -1    0    0    0    0  0.00000000000E+00  0.00000000000E+00  0.45593999997E+02  0.45594000000E+02  0.51100000000E-03 0.  1.
         11   -1    0    0    0    0 -0.00000000000E+00 -0.00000000000E+00 -0.45593999997E+02  0.45594000000E+02  0.51100000000E-03 0. -1.
    9900012    2    1    2    0    0  0.23889544169E+00  0.77895431265E+00 -0.85390725838E+00  0.90007746443E+02  0.90000007896E+02 0.  0.
        -12    1    1    2    0    0 -0.23889544169E+00 -0.77895431265E+00  0.85390725838E+00  0.11802535571E+01  0.00000000000E+00 0.  1.
         11    1    3    3    0    0 -0.87981963925E+01  0.75195532253E+00  0.27885054886E+01  0.92601004146E+01  0.51100000000E-03 0. -1.
        -11    1    3    3    0    0 -0.37482990992E+01  0.22306809183E+02  0.30530447770E+02  0.37996733062E+02  0.51100000000E-03 0.  1.
         12    1    3    3    0    0  0.12785390933E+02 -0.22279810193E+02 -0.34172860517E+02  0.42750912966E+02  0.00000000000E+00 0. -1.
</event>
<event>
 7    1  0.2756303E-015  0.9000775E+02  0.7816164E-02  0.1186339E+00
        -11   -1    0    0    0    0  0.00000000000E+00  0.00000000000E+00  0.45593999997E+02  0.45594000000E+02  0.51100000000E-03 0.  1.
         11   -1    0    0    0    0 -0.00000000000E+00 -0.00000000000E+00 -0.45593999997E+02  0.45594000000E+02  0.51100000000E-03 0. -1.
    9900012    2    1    2    0    0  0.52441560450E+00 -0.65489910761E-01 -0.10553151916E+01  0.90007749684E+02  0.90000011180E+02 0.  0.
        -12    1    1    2    0    0 -0.52441560450E+00  0.65489910761E-01  0.10553151916E+01  0.11802503159E+01  0.00000000000E+00 0.  1.
         11    1    3    3    0    0 -0.36936625005E+01  0.87283399485E+01 -0.48329440683E+00  0.94900281701E+01  0.51100000000E-03 0. -1.
        -11    1    3    3    0    0 -0.94653073953E+01  0.69310478740E+01  0.36307017201E+02  0.38155353058E+02  0.51100000000E-03 0.  1.
         12    1    3    3    0    0  0.13683385500E+02 -0.15724877733E+02 -0.36879037985E+02  0.42362368456E+02  0.00000000000E+00 0. -1.
</event>
<event>
 7    1  0.2578619E-015  0.9000777E+02  0.7816164E-02  0.1186339E+00
        -11   -1    0    0    0    0  0.00000000000E+00  0.00000000000E+00  0.45593999997E+02  0.45594000000E+02  0.51100000000E-03 0. -1.
         11   -1    0    0    0    0 -0.00000000000E+00 -0.00000000000E+00 -0.45593999997E+02  0.45594000000E+02  0.51100000000E-03 0.  1.
    9900012    2    1    2    0    0 -0.47587634595E+00  0.59964431236E-01  0.10783778915E+01  0.90007765741E+02  0.90000027449E+02 0.  0.
        -12    1    1    2    0    0  0.47587634595E+00 -0.59964431236E-01 -0.10783778915E+01  0.11802342592E+01  0.00000000000E+00 0.  1.
         11    1    3    3    0    0  0.58310921479E+01 -0.84466526512E+01 -0.46574088870E+01  0.11271159410E+02  0.51100000000E-03 0. -1.
        -11    1    3    3    0    0  0.34516036771E+01  0.39002086047E+02 -0.13461292199E+02  0.41403896820E+02  0.51100000000E-03 0.  1.
         12    1    3    3    0    0 -0.97585721710E+01 -0.30495468964E+02  0.19197078978E+02  0.37332709511E+02  0.00000000000E+00 0. -1.
</event>
<event>
 7    1  0.2578619E-015  0.9000739E+02  0.7816164E-02  0.1186340E+00
        -11   -1    0    0    0    0  0.00000000000E+00  0.00000000000E+00  0.45593999997E+02  0.45594000000E+02  0.51100000000E-03 0.  1.
         11   -1    0    0    0    0 -0.00000000000E+00 -0.00000000000E+00 -0.45593999997E+02  0.45594000000E+02  0.51100000000E-03 0. -1.
    9900012    2    1    2    0    0 -0.30173302929E+00 -0.24506733082E+00 -0.11147805783E+01  0.90007391447E+02  0.89999648213E+02 0.  0.
        -12    1    1    2    0    0  0.30173302929E+00  0.24506733082E+00  0.11147805783E+01  0.11806085530E+01  0.00000000000E+00 0.  1.
         11    1    3    3    0    0 -0.86494795389E+01 -0.72272346189E+01 -0.29947453042E+02  0.31998380592E+02  0.51100000000E-03 0. -1.
        -11    1    3    3    0    0  0.63747153637E+01 -0.18280555508E+02 -0.34603260047E+00  0.19363249843E+02  0.51100000000E-03 0.  1.
        -12    1    3    3    0    0  0.19730311459E+01  0.25262722796E+02  0.29178705064E+02  0.38645761012E+02  0.00000000000E+00 0.  1.
</event>
<event>
 7    1  0.2578619E-015  0.9000783E+02  0.7816164E-02  0.1186339E+00
        -11   -1    0    0    0    0  0.00000000000E+00  0.00000000000E+00  0.45593999997E+02  0.45594000000E+02  0.51100000000E-03 0. -1.
         11   -1    0    0    0    0 -0.00000000000E+00 -0.00000000000E+00 -0.45593999997E+02  0.45594000000E+02  0.51100000000E-03 0.  1.
    9900012    2    1    2    0    0 -0.72437600852E+00  0.77403622858E+00  0.51859343197E+00  0.90007833981E+02  0.90000096589E+02 0.  0.
        -12    1    1    2    0    0  0.72437600852E+00 -0.77403622858E+00 -0.51859343197E+00  0.11801660191E+01  0.00000000000E+00 0.  1.
         11    1    3    3    0    0  0.10500182818E+02  0.25983217827E+00  0.24627632374E+01  0.10788260055E+02  0.51100000000E-03 0. -1.
        -11    1    3    3    0    0  0.14496575803E+02  0.19184413150E+02 -0.28864492475E+02  0.37567956346E+02  0.51100000000E-03 0.  1.
         12    1    3    3    0    0 -0.25721134630E+02 -0.18670209099E+02  0.26920322669E+02  0.41651617581E+02  0.00000000000E+00 0. -1.
</event>
<event>
 7    1  0.2578619E-015  0.9000777E+02  0.7816164E-02  0.1186339E+00
        -11   -1    0    0    0    0  0.00000000000E+00  0.00000000000E+00  0.45593999997E+02  0.45594000000E+02  0.51100000000E-03 0.  1.
         11   -1    0    0    0    0 -0.00000000000E+00 -0.00000000000E+00 -0.45593999997E+02  0.45594000000E+02  0.51100000000E-03 0. -1.
    9900012    2    1    2    0    0 -0.16456517006E+00  0.84173917484E+00 -0.81075958025E+00  0.90007772212E+02  0.90000034006E+02 0.  0.
        -12    1    1    2    0    0  0.16456517006E+00 -0.84173917484E+00  0.81075958025E+00  0.11802277876E+01  0.00000000000E+00 0.  1.
         11    1    3    3    0    0 -0.89176234663E+00 -0.69906715886E+01 -0.55681758456E+01  0.89816096470E+01  0.51100000000E-03 0. -1.
        -11    1    3    3    0    0  0.16874285752E+02 -0.32783243918E+02 -0.13384855627E+01  0.36895448842E+02  0.51100000000E-03 0.  1.
         12    1    3    3    0    0 -0.16147088576E+02  0.40615654681E+02  0.60959018280E+01  0.44130713723E+02  0.00000000000E+00 0. -1.
</event>
<event>
 7    1  0.2578619E-015  0.9000782E+02  0.7816164E-02  0.1186339E+00
        -11   -1    0    0    0    0  0.00000000000E+00  0.00000000000E+00  0.45593999997E+02  0.45594000000E+02  0.51100000000E-03 0.  1.
         11   -1    0    0    0    0 -0.00000000000E+00 -0.00000000000E+00 -0.45593999997E+02  0.45594000000E+02  0.51100000000E-03 0. -1.
    9900012    2    1    2    0    0 -0.51851195108E+00 -0.79566312615E+00  0.70064019289E+00  0.90007817330E+02  0.90000079719E+02 0.  0.
        -12    1    1    2    0    0  0.51851195108E+00  0.79566312615E+00 -0.70064019289E+00  0.11801826696E+01  0.00000000000E+00 0.  1.
         11    1    3    3    0    0 -0.11710329695E+02 -0.26253052374E+02 -0.24138886375E+02  0.37537187111E+02  0.51100000000E-03 0. -1.
        -11    1    3    3    0    0 -0.19440232159E+01  0.27462660699E+01 -0.90250853694E+01  0.96318933641E+01  0.51100000000E-03 0.  1.
        -12    1    3    3    0    0  0.13135840960E+02  0.22711123177E+02  0.33864611937E+02  0.42838736856E+02  0.00000000000E+00 0.  1.
</event>
<event>
 7    1  0.2578619E-015  0.9000749E+02  0.7816164E-02  0.1186340E+00
        -11   -1    0    0    0    0  0.00000000000E+00  0.00000000000E+00  0.45593999997E+02  0.45594000000E+02  0.51100000000E-03 0.  1.
         11   -1    0    0    0    0 -0.00000000000E+00 -0.00000000000E+00 -0.45593999997E+02  0.45594000000E+02  0.51100000000E-03 0. -1.
    9900012    2    1    2    0    0 -0.88839333824E+00  0.56024659451E+00  0.53897580511E+00  0.90007485752E+02  0.89999743764E+02 0.  0.
        -12    1    1    2    0    0  0.88839333824E+00 -0.56024659451E+00 -0.53897580511E+00  0.11805142475E+01  0.00000000000E+00 0.  1.
         11    1    3    3    0    0  0.11586927629E+01 -0.37200426166E+02  0.24375096468E+02  0.44489994425E+02  0.51100000000E-03 0. -1.
        -11    1    3    3    0    0 -0.35269695997E+01  0.86841308790E+01 -0.35043615120E+01  0.10006707428E+02  0.51100000000E-03 0.  1.
        -12    1    3    3    0    0  0.14798834986E+01  0.29076541882E+02 -0.20331759151E+02  0.35510783899E+02  0.00000000000E+00 0.  1.
</event>
<event>
 7    1  0.2578619E-015  0.9000770E+02  0.7816164E-02  0.1186339E+00
        -11   -1    0    0    0    0  0.00000000000E+00  0.00000000000E+00  0.45593999997E+02  0.45594000000E+02  0.51100000000E-03 0. -1.
         11   -1    0    0    0    0 -0.00000000000E+00 -0.00000000000E+00 -0.45593999997E+02  0.45594000000E+02  0.51100000000E-03 0.  1.
    9900012    2    1    2    0    0  0.43777892998E+00 -0.10091583964E+01 -0.42785528004E+00  0.90007698682E+02  0.89999959505E+02 0.  0.
        -12    1    1    2    0    0 -0.43777892998E+00  0.10091583964E+01  0.42785528004E+00  0.11803013180E+01  0.00000000000E+00 0.  1.
         11    1    3    3    0    0 -0.37111091177E+01 -0.17858900775E+01 -0.79254790898E+01  0.89316825580E+01  0.51100000000E-03 0. -1.
        -11    1    3    3    0    0 -0.28901106178E+02 -0.21091977868E+02 -0.10873487569E+02  0.37394895385E+02  0.51100000000E-03 0.  1.
         12    1    3    3    0    0  0.33049994226E+02  0.21868709549E+02  0.18371111379E+02  0.43681120739E+02  0.00000000000E+00 0. -1.
</event>
<event>
 7    1  0.2578619E-015  0.9000782E+02  0.7816164E-02  0.1186339E+00
        -11   -1    0    0    0    0  0.00000000000E+00  0.00000000000E+00  0.45593999997E+02  0.45594000000E+02  0.51100000000E-03 0.  1.
         11   -1    0    0    0    0 -0.00000000000E+00 -0.00000000000E+00 -0.45593999997E+02  0.45594000000E+02  0.51100000000E-03 0. -1.
    9900012    2    1    2    0    0 -0.37957371188E+00 -0.10836199094E+01 -0.27296571496E+00  0.90007822644E+02  0.90000085103E+02 0.  0.
        -12    1    1    2    0    0  0.37957371188E+00  0.10836199094E+01  0.27296571496E+00  0.11801773563E+01  0.00000000000E+00 0.  1.
         11    1    3    3    0    0 -0.33977317294E+02 -0.16575027403E+02  0.85841375754E+01  0.38766958123E+02  0.51100000000E-03 0. -1.
        -11    1    3    3    0    0 -0.37144292737E+01  0.10697863427E+02 -0.75286298870E+01  0.13598585771E+02  0.51100000000E-03 0.  1.
        -12    1    3    3    0    0  0.37312172856E+02  0.47935440665E+01 -0.13284734034E+01  0.37642278750E+02  0.00000000000E+00 0.  1.
</event>
<event>
 7    1  0.2578619E-015  0.9000781E+02  0.7816164E-02  0.1186339E+00
        -11   -1    0    0    0    0  0.00000000000E+00  0.00000000000E+00  0.45593999997E+02  0.45594000000E+02  0.51100000000E-03 0.  1.
         11   -1    0    0    0    0 -0.00000000000E+00 -0.00000000000E+00 -0.45593999997E+02  0.45594000000E+02  0.51100000000E-03 0. -1.
    9900012    2    1    2    0    0 -0.14036828602E+00  0.96192680628E+00 -0.66921423745E+00  0.90007807587E+02  0.90000069847E+02 0.  0.
        -12    1    1    2    0    0  0.14036828602E+00 -0.96192680628E+00  0.66921423745E+00  0.11801924131E+01  0.00000000000E+00 0.  1.
         11    1    3    3    0    0 -0.30211217070E+02 -0.11090142167E+02 -0.23276358926E+02  0.39717726209E+02  0.51100000000E-03 0. -1.
        -11    1    3    3    0    0 -0.23286755098E+01 -0.44240548810E+01  0.11083508941E+02  0.12158912859E+02  0.51100000000E-03 0.  1.
        -12    1    3    3    0    0  0.32399524294E+02  0.16476123854E+02  0.11523635748E+02  0.38131168518E+02  0.00000000000E+00 0.  1.
</event>
<event>
 7    1  0.2578619E-015  0.9000775E+02  0.7816164E-02  0.1186339E+00
        -11   -1    0    0    0    0  0.00000000000E+00  0.00000000000E+00  0.45593999997E+02  0.45594000000E+02  0.51100000000E-03 0.  1.
         11   -1    0    0    0    0 -0.00000000000E+00 -0.00000000000E+00 -0.45593999997E+02  0.45594000000E+02  0.51100000000E-03 0. -1.
    9900012    2    1    2    0    0  0.64477937044E+00 -0.95471235975E+00 -0.25644339718E+00  0.90007754541E+02  0.90000016101E+02 0.  0.
        -12    1    1    2    0    0 -0.64477937044E+00  0.95471235975E+00  0.25644339718E+00  0.11802454585E+01  0.00000000000E+00 0.  1.
         11    1    3    3    0    0  0.49532172012E+01 -0.12097485131E+01  0.76926500428E+01  0.92290149555E+01  0.51100000000E-03 0. -1.
        -11    1    3    3    0    0  0.10878796743E+02 -0.19956935566E+02  0.28478833873E+02  0.36437226497E+02  0.51100000000E-03 0.  1.
         12    1    3    3    0    0 -0.15187234574E+02  0.20211971719E+02 -0.36427927313E+02  0.44341513089E+02  0.00000000000E+00 0. -1.
</event>
<event>
 7    1  0.2578619E-015  0.9000786E+02  0.7816164E-02  0.1186339E+00
        -11   -1    0    0    0    0  0.00000000000E+00  0.00000000000E+00  0.45593999997E+02  0.45594000000E+02  0.51100000000E-03 0. -1.
         11   -1    0    0    0    0 -0.00000000000E+00 -0.00000000000E+00 -0.45593999997E+02  0.45594000000E+02  0.51100000000E-03 0.  1.
    9900012    2    1    2    0    0  0.40762816994E+00 -0.21149714622E+00  0.10871263813E+01  0.90007857832E+02  0.90000120755E+02 0.  0.
        -12    1    1    2    0    0 -0.40762816994E+00  0.21149714622E+00 -0.10871263813E+01  0.11801421680E+01  0.00000000000E+00 0.  1.
         11    1    3    3    0    0  0.10092294207E+02  0.65940824926E+01  0.99113582552E+01  0.15606772537E+02  0.51100000000E-03 0. -1.
        -11    1    3    3    0    0 -0.26594623534E+02  0.10210686857E+02  0.21532446866E+02  0.35709640089E+02  0.51100000000E-03 0.  1.
         12    1    3    3    0    0  0.16909957497E+02 -0.17016266496E+02 -0.30356678740E+02  0.38691445206E+02  0.00000000000E+00 0. -1.
</event>
<event>
 7    1  0.2578619E-015  0.9000772E+02  0.7816164E-02  0.1186339E+00
        -11   -1    0    0    0    0  0.00000000000E+00  0.00000000000E+00  0.45593999997E+02  0.45594000000E+02  0.51100000000E-03 0. -1.
         11   -1    0    0    0    0 -0.00000000000E+00 -0.00000000000E+00 -0.45593999997E+02  0.45594000000E+02  0.51100000000E-03 0.  1.
    9900012    2    1    2    0    0 -0.48134504651E+00 -0.64436478750E+00  0.86381153278E+00  0.90007716391E+02  0.89999977448E+02 0.  0.
        -12    1    1    2    0    0  0.48134504651E+00  0.64436478750E+00 -0.86381153278E+00  0.11802836089E+01  0.00000000000E+00 0.  1.
         11    1    3    3    0    0 -0.32412455832E+02  0.26273978175E+02 -0.24762665783E+01  0.41797381720E+02  0.51100000000E-03 0. -1.
        -11    1    3    3    0    0  0.10614802210E+02  0.11118310777E+01 -0.53507604658E+01  0.11939046533E+02  0.51100000000E-03 0.  1.
        -12    1    3    3    0    0  0.21316308575E+02 -0.28030174040E+02  0.86908385768E+01  0.36271288138E+02  0.00000000000E+00 0.  1.
</event>
<event>
 7    1  0.2578619E-015  0.9000768E+02  0.7816164E-02  0.1186339E+00
        -11   -1    0    0    0    0  0.00000000000E+00  0.00000000000E+00  0.45593999997E+02  0.45594000000E+02  0.51100000000E-03 0.  1.
         11   -1    0    0    0    0 -0.00000000000E+00 -0.00000000000E+00 -0.45593999997E+02  0.45594000000E+02  0.51100000000E-03 0. -1.
    9900012    2    1    2    0    0 -0.71599671894E+00  0.81895814820E+00 -0.45805507916E+00  0.90007678770E+02  0.89999939330E+02 0.  0.
        -12    1    1    2    0    0  0.71599671894E+00 -0.81895814820E+00  0.45805507916E+00  0.11803212298E+01  0.00000000000E+00 0.  1.
         11    1    3    3    0    0 -0.19076197935E+02  0.23223997409E+02 -0.63073912593E+01  0.30708933034E+02  0.51100000000E-03 0. -1.
        -11    1    3    3    0    0 -0.75263890687E+01  0.12097605284E+02  0.75630147877E+01  0.16130647196E+02  0.51100000000E-03 0.  1.
        -12    1    3    3    0    0  0.25886590285E+02 -0.34502644545E+02 -0.17136786076E+01  0.43168098540E+02  0.00000000000E+00 0.  1.
</event>
<event>
 7    1  0.2578619E-015  0.9000775E+02  0.7816164E-02  0.1186339E+00
        -11   -1    0    0    0    0  0.00000000000E+00  0.00000000000E+00  0.45593999997E+02  0.45594000000E+02  0.51100000000E-03 0. -1.
         11   -1    0    0    0    0 -0.00000000000E+00 -0.00000000000E+00 -0.45593999997E+02  0.45594000000E+02  0.51100000000E-03 0.  1.
    9900012    2    1    2    0    0  0.10415021420E-01  0.75224799191E+00  0.90939218452E+00  0.90007754407E+02  0.90000015965E+02 0.  0.
        -12    1    1    2    0    0 -0.10415021420E-01 -0.75224799191E+00 -0.90939218452E+00  0.11802455928E+01  0.00000000000E+00 0.  1.
         11    1    3    3    0    0 -0.17235073032E+02 -0.27399594719E+02 -0.24472796457E+02  0.40579592160E+02  0.51100000000E-03 0. -1.
        -11    1    3    3    0    0  0.10316833101E+02  0.42004988036E+01 -0.31116501874E+01  0.11565621582E+02  0.51100000000E-03 0.  1.
        -12    1    3    3    0    0  0.69286549523E+01  0.23951343907E+02  0.28493838829E+02  0.37862540665E+02  0.00000000000E+00 0.  1.
</event>
<event>
 7    1  0.2578619E-015  0.9000763E+02  0.7816164E-02  0.1186339E+00
        -11   -1    0    0    0    0  0.00000000000E+00  0.00000000000E+00  0.45593999997E+02  0.45594000000E+02  0.51100000000E-03 0.  1.
         11   -1    0    0    0    0 -0.00000000000E+00 -0.00000000000E+00 -0.45593999997E+02  0.45594000000E+02  0.51100000000E-03 0. -1.
    9900012    2    1    2    0    0 -0.10339607466E+01  0.54898117842E+00  0.15102020023E+00  0.90007634692E+02  0.89999894670E+02 0.  0.
        -12    1    1    2    0    0  0.10339607466E+01 -0.54898117842E+00 -0.15102020023E+00  0.11803653082E+01  0.00000000000E+00 0.  1.
         11    1    3    3    0    0  0.24484590417E+02  0.29874128592E+02  0.14509871936E+02  0.41261302826E+02  0.51100000000E-03 0. -1.
        -11    1    3    3    0    0  0.13564133208E+01 -0.81591081771E+00 -0.90750438428E+01  0.92120566959E+01  0.51100000000E-03 0.  1.
        -12    1    3    3    0    0 -0.26874964485E+02 -0.28509236596E+02 -0.52838078935E+01  0.39534275170E+02  0.00000000000E+00 0.  1.
</event>
<event>
 7    1  0.2578619E-015  0.9000787E+02  0.7816164E-02  0.1186339E+00
        -11   -1    0    0    0    0  0.00000000000E+00  0.00000000000E+00  0.45593999997E+02  0.45594000000E+02  0.51100000000E-03 0.  1.
         11   -1    0    0    0    0 -0.00000000000E+00 -0.00000000000E+00 -0.45593999997E+02  0.45594000000E+02  0.51100000000E-03 0. -1.
    9900012    2    1    2    0    0  0.56311349368E-04  0.11006972628E+01 -0.42562991766E+00  0.90007874882E+02  0.90000138030E+02 0.  0.
        -12    1    1    2    0    0 -0.56311349371E-04 -0.11006972628E+01  0.42562991766E+00  0.11801251181E+01  0.00000000000E+00 0.  1.
         11    1    3    3    0    0 -0.77034526840E+01 -0.54176690146E+01  0.26252456180E+01  0.97768213456E+01  0.51100000000E-03 0. -1.
        -11    1    3    3    0    0 -0.13464069743E+02  0.33025882405E+01 -0.37326544082E+02  0.39817824608E+02  0.51100000000E-03 0.  1.
         12    1    3    3    0    0  0.21167578739E+02  0.32157780369E+01  0.34275668547E+02  0.40413228928E+02  0.00000000000E+00 0. -1.
</event>
<event>
 7    1  0.2578619E-015  0.9000770E+02  0.7816164E-02  0.1186339E+00
        -11   -1    0    0    0    0  0.00000000000E+00  0.00000000000E+00  0.45593999997E+02  0.45594000000E+02  0.51100000000E-03 0. -1.
         11   -1    0    0    0    0 -0.00000000000E+00 -0.00000000000E+00 -0.45593999997E+02  0.45594000000E+02  0.51100000000E-03 0.  1.
    9900012    2    1    2    0    0  0.11488939658E+01  0.19514514224E+00  0.18728326401E+00  0.90007697500E+02  0.89999958307E+02 0.  0.
        -12    1    1    2    0    0 -0.11488939658E+01 -0.19514514224E+00 -0.18728326401E+00  0.11803025003E+01  0.00000000000E+00 0.  1.
         11    1    3    3    0    0 -0.63715169473E+01  0.44862635756E+01  0.48826352488E+01  0.91958097149E+01  0.51100000000E-03 0. -1.
        -11    1    3    3    0    0 -0.20128658589E+02  0.13302913476E+02 -0.30649800515E+02  0.39006931121E+02  0.51100000000E-03 0.  1.
         12    1    3    3    0    0  0.27649069502E+02 -0.17594031910E+02  0.25954448531E+02  0.41804956664E+02  0.00000000000E+00 0. -1.
</event>
<event>
 7    1  0.2578619E-015  0.9000776E+02  0.7816164E-02  0.1186339E+00
        -11   -1    0    0    0    0  0.00000000000E+00  0.00000000000E+00  0.45593999997E+02  0.45594000000E+02  0.51100000000E-03 0. -1.
         11   -1    0    0    0    0 -0.00000000000E+00 -0.00000000000E+00 -0.45593999997E+02  0.45594000000E+02  0.51100000000E-03 0.  1.
    9900012    2    1    2    0    0  0.30655060100E+00 -0.10261353180E+01 -0.49602760790E+00  0.90007758351E+02  0.90000019961E+02 0.  0.
        -12    1    1    2    0    0 -0.30655060100E+00  0.10261353180E+01  0.49602760790E+00  0.11802416488E+01  0.00000000000E+00 0.  1.
         11    1    3    3    0    0  0.86319594796E+00  0.26134683791E+00 -0.14776727802E+02  0.14804225553E+02  0.51100000000E-03 0. -1.
        -11    1    3    3    0    0 -0.75334664390E+00 -0.35121429687E+02  0.20686722448E+02  0.40767914348E+02  0.51100000000E-03 0.  1.
         12    1    3    3    0    0  0.19670129694E+00  0.33833947531E+02 -0.64060222533E+01  0.34435618450E+02  0.00000000000E+00 0. -1.
</event>
<event>
 7    1  0.2578619E-015  0.9000771E+02  0.7816164E-02  0.1186339E+00
        -11   -1    0    0    0    0  0.00000000000E+00  0.00000000000E+00  0.45593999997E+02  0.45594000000E+02  0.51100000000E-03 0.  1.
         11   -1    0    0    0    0 -0.00000000000E+00 -0.00000000000E+00 -0.45593999997E+02  0.45594000000E+02  0.51100000000E-03 0. -1.
    9900012    2    1    2    0    0 -0.13974749762E+00 -0.11718296045E+01  0.19030300511E-01  0.90007713536E+02  0.89999974555E+02 0.  0.
        -12    1    1    2    0    0  0.13974749762E+00  0.11718296045E+01 -0.19030300511E-01  0.11802864641E+01  0.00000000000E+00 0.  1.
         11    1    3    3    0    0 -0.74326430965E+01 -0.42642706909E+01  0.63353651065E+01  0.10656689881E+02  0.51100000000E-03 0. -1.
        -11    1    3    3    0    0  0.22302432158E+02  0.33209173575E+02  0.11026575880E+02  0.41494976390E+02  0.51100000000E-03 0.  1.
         12    1    3    3    0    0 -0.15009536559E+02 -0.30116732488E+02 -0.17342910686E+02  0.37856047265E+02  0.00000000000E+00 0. -1.
</event>
<event>
 7    1  0.2578619E-015  0.9000774E+02  0.7816164E-02  0.1186339E+00
        -11   -1    0    0    0    0  0.00000000000E+00  0.00000000000E+00  0.45593999997E+02  0.45594000000E+02  0.51100000000E-03 0.  1.
         11   -1    0    0    0    0 -0.00000000000E+00 -0.00000000000E+00 -0.45593999997E+02  0.45594000000E+02  0.51100000000E-03 0. -1.
    9900012    2    1    2    0    0 -0.99864731131E+00 -0.23601050799E+00 -0.58311069122E+00  0.90007739228E+02  0.90000000586E+02 0.  0.
        -12    1    1    2    0    0  0.99864731131E+00  0.23601050799E+00  0.58311069122E+00  0.11802607722E+01  0.00000000000E+00 0.  1.
         11    1    3    3    0    0 -0.97743982892E+01 -0.39220371409E+01 -0.25334798721E+01  0.10832347750E+02  0.51100000000E-03 0. -1.
        -11    1    3    3    0    0 -0.20836285436E+02 -0.10264520279E+02  0.28686184897E+02  0.36910816457E+02  0.51100000000E-03 0.  1.
         12    1    3    3    0    0  0.29612036414E+02  0.13950546912E+02 -0.26735815716E+02  0.42264575021E+02  0.00000000000E+00 0. -1.
</event>
<event>
 7    1  0.2578619E-015  0.9000771E+02  0.7816164E-02  0.1186339E+00
        -11   -1    0    0    0    0  0.00000000000E+00  0.00000000000E+00  0.45593999997E+02  0.45594000000E+02  0.51100000000E-03 0.  1.
         11   -1    0    0    0    0 -0.00000000000E+00 -0.00000000000E+00 -0.45593999997E+02  0.45594000000E+02  0.51100000000E-03 0. -1.
    9900012    2    1    2    0    0  0.11309733341E+01 -0.23552502198E+00 -0.24189358291E+00  0.90007709687E+02  0.89999970654E+02 0.  0.
        -12    1    1    2    0    0 -0.11309733341E+01  0.23552502198E+00  0.24189358291E+00  0.11802903134E+01  0.00000000000E+00 0.  1.
         11    1    3    3    0    0 -0.34921093732E+02  0.19364633503E+01 -0.25963024526E+01  0.35070977523E+02  0.51100000000E-03 0. -1.
        -11    1    3    3    0    0 -0.38643814667E+01  0.77023276381E+01 -0.88147466711E+01  0.12327167327E+02  0.51100000000E-03 0.  1.
        -12    1    3    3    0    0  0.39916448532E+02 -0.98743160104E+01  0.11169155541E+02  0.42609564837E+02  0.00000000000E+00 0.  1.
</event>
<event>
 7    1  0.2578619E-015  0.9000788E+02  0.7816164E-02  0.1186339E+00
        -11   -1    0    0    0    0  0.00000000000E+00  0.00000000000E+00  0.45593999997E+02  0.45594000000E+02  0.51100000000E-03 0. -1.
         11   -1    0    0    0    0 -0.00000000000E+00 -0.00000000000E+00 -0.45593999997E+02  0.45594000000E+02  0.51100000000E-03 0.  1.
    9900012    2    1    2    0    0  0.60276478370E+00 -0.10145629429E+01 -0.37090874818E-02  0.90007882588E+02  0.90000145838E+02 0.  0.
        -12    1    1    2    0    0 -0.60276478370E+00  0.10145629429E+01  0.37090874818E-02  0.11801174124E+01  0.00000000000E+00 0.  1.
         11    1    3    3    0    0  0.34588496660E+02 -0.16241235807E+02 -0.31447930243E+01  0.38340990665E+02  0.51100000000E-03 0. -1.
        -11    1    3    3    0    0  0.66263780927E+01  0.60360284229E+01  0.44500300738E+01  0.10007262047E+02  0.51100000000E-03 0.  1.
        -12    1    3    3    0    0 -0.40612109969E+02  0.91906444408E+01 -0.13089461370E+01  0.41659629876E+02  0.00000000000E+00 0.  1.
</event>
