<event>
 7    1  0.3919732E-008  0.4614232E+02  0.7816164E-02  0.1320468E+00
        -11   -1    0    0    0    0  0.00000000000E+00  0.00000000000E+00  0.45593999997E+02  0.45594000000E+02  0.51100000000E-03 0.  1.
         11   -1    0    0    0    0 -0.00000000000E+00 -0.00000000000E+00 -0.45593999997E+02  0.45594000000E+02  0.51100000000E-03 0. -1.
    9900012    2    1    2    0    0 -0.36170487758E+02 -0.50547533950E+01 -0.26367761155E+02  0.46142317134E+02  0.99999942840E+01 0.  0.
        -12    1    1    2    0    0  0.36170487758E+02  0.50547533950E+01  0.26367761155E+02  0.45045682866E+02  0.00000000000E+00 0.  1.
         11    1    3    3    0    0 -0.66930461989E+01  0.22407353024E+01 -0.56316538320E+01  0.90295784653E+01  0.51100000000E-03 0. -1.
        -11    1    3    3    0    0 -0.68393731203E+01 -0.39283402397E+01 -0.50243305500E+01  0.93516190820E+01  0.51100000000E-03 0.  1.
         12    1    3    3    0    0 -0.22638068438E+02 -0.33671484577E+01 -0.15711776773E+02  0.27761119587E+02  0.00000000000E+00 0. -1.
</event>
<event>
 7    1  0.3919732E-008  0.4614232E+02  0.7816164E-02  0.1320468E+00
        -11   -1    0    0    0    0  0.00000000000E+00  0.00000000000E+00  0.45593999997E+02  0.45594000000E+02  0.51100000000E-03 0.  1.
         11   -1    0    0    0    0 -0.00000000000E+00 -0.00000000000E+00 -0.45593999997E+02  0.45594000000E+02  0.51100000000E-03 0. -1.
    9900012    2    1    2    0    0 -0.40901479770E+02  0.83679283491E+01 -0.16916270654E+02  0.46142317798E+02  0.10000000334E+02 0.  0.
        -12    1    1    2    0    0  0.40901479770E+02 -0.83679283491E+01  0.16916270654E+02  0.45045682202E+02  0.00000000000E+00 0.  1.
         11    1    3    3    0    0 -0.13301619585E+02  0.66875187372E+01 -0.42859520971E+01  0.15492752373E+02  0.51100000000E-03 0. -1.
        -11    1    3    3    0    0 -0.70334445172E+01 -0.47967381025E+00 -0.16693564407E+01  0.72447346348E+01  0.51100000000E-03 0.  1.
         12    1    3    3    0    0 -0.20566415668E+02  0.21600834222E+01 -0.10960962116E+02  0.23404830790E+02  0.00000000000E+00 0. -1.
</event>
<event>
 7    1  0.4224025E-008  0.4614232E+02  0.7816164E-02  0.1320468E+00
        -11   -1    0    0    0    0  0.00000000000E+00  0.00000000000E+00  0.45593999997E+02  0.45594000000E+02  0.51100000000E-03 0. -1.
         11   -1    0    0    0    0 -0.00000000000E+00 -0.00000000000E+00 -0.45593999997E+02  0.45594000000E+02  0.51100000000E-03 0.  1.
    9900012    2    1    2    0    0 -0.14338117071E+02  0.38817749131E+02  0.17796470517E+02  0.46142316393E+02  0.99999875281E+01 0.  0.
        -12    1    1    2    0    0  0.14338117071E+02 -0.38817749131E+02 -0.17796470517E+02  0.45045683607E+02  0.00000000000E+00 0.  1.
         11    1    3    3    0    0 -0.11843059942E+02  0.29135285767E+02  0.13452918387E+02  0.34206782353E+02  0.51100000000E-03 0. -1.
        -11    1    3    3    0    0 -0.27568286837E+01  0.86628608372E+01  0.52916221069E+01  0.10518865293E+02  0.51100000000E-03 0.  1.
        -12    1    3    3    0    0  0.26177155525E+00  0.10196025265E+01 -0.94806997678E+00  0.14166687475E+01  0.00000000000E+00 0.  1.
</event>
<event>
 7    1  0.3919732E-008  0.4614232E+02  0.7816164E-02  0.1320468E+00
        -11   -1    0    0    0    0  0.00000000000E+00  0.00000000000E+00  0.45593999997E+02  0.45594000000E+02  0.51100000000E-03 0. -1.
         11   -1    0    0    0    0 -0.00000000000E+00 -0.00000000000E+00 -0.45593999997E+02  0.45594000000E+02  0.51100000000E-03 0.  1.
    9900012    2    1    2    0    0  0.27394961066E+02 -0.19417565528E+02  0.30026452182E+02  0.46142316817E+02  0.99999913883E+01 0.  0.
        -12    1    1    2    0    0 -0.27394961066E+02  0.19417565528E+02 -0.30026452182E+02  0.45045683183E+02  0.00000000000E+00 0.  1.
         11    1    3    3    0    0  0.78791850033E+01 -0.46233871505E+01  0.50421649310E+01  0.10434591152E+02  0.51100000000E-03 0. -1.
        -11    1    3    3    0    0  0.13703777943E+02 -0.88099355131E+01  0.20662831611E+02  0.26312755540E+02  0.51100000000E-03 0.  1.
        -12    1    3    3    0    0  0.58119981195E+01 -0.59842428642E+01  0.43214556402E+01  0.93949701250E+01  0.00000000000E+00 0.  1.
</event>
<event>
 7    1  0.3919732E-008  0.4614232E+02  0.7816164E-02  0.1320468E+00
        -11   -1    0    0    0    0  0.00000000000E+00  0.00000000000E+00  0.45593999997E+02  0.45594000000E+02  0.51100000000E-03 0.  1.
         11   -1    0    0    0    0 -0.00000000000E+00 -0.00000000000E+00 -0.45593999997E+02  0.45594000000E+02  0.51100000000E-03 0. -1.
    9900012    2    1    2    0    0  0.58599711919E+01  0.31444408454E+02 -0.31717869784E+02  0.46142319308E+02  0.10000014104E+02 0.  0.
        -12    1    1    2    0    0 -0.58599711919E+01 -0.31444408454E+02  0.31717869784E+02  0.45045680692E+02  0.00000000000E+00 0.  1.
         11    1    3    3    0    0  0.29741199196E+01  0.10742838798E+02 -0.11467049344E+02  0.15992097913E+02  0.51100000000E-03 0. -1.
        -11    1    3    3    0    0  0.85320869180E+00  0.15731367542E+02 -0.18915184931E+02  0.24616825771E+02  0.51100000000E-03 0.  1.
         12    1    3    3    0    0  0.20326425805E+01  0.49702021148E+01 -0.13356355091E+01  0.55333956243E+01  0.00000000000E+00 0. -1.
</event>
<event>
 7    1  0.3919732E-008  0.4614232E+02  0.7816164E-02  0.1320468E+00
        -11   -1    0    0    0    0  0.00000000000E+00  0.00000000000E+00  0.45593999997E+02  0.45594000000E+02  0.51100000000E-03 0.  1.
         11   -1    0    0    0    0 -0.00000000000E+00 -0.00000000000E+00 -0.45593999997E+02  0.45594000000E+02  0.51100000000E-03 0. -1.
    9900012    2    1    2    0    0 -0.73595487116E+01 -0.37863591703E+02  0.23265829659E+02  0.46142319146E+02  0.10000012627E+02 0.  0.
        -12    1    1    2    0    0  0.73595487116E+01  0.37863591703E+02 -0.23265829659E+02  0.45045680854E+02  0.00000000000E+00 0.  1.
         11    1    3    3    0    0 -0.41005561712E+01 -0.13133489061E+02  0.68400599546E+01  0.15365204726E+02  0.51100000000E-03 0. -1.
        -11    1    3    3    0    0  0.89218017632E+00 -0.11075198814E+02  0.38624007553E+01  0.11763254400E+02  0.51100000000E-03 0.  1.
        -12    1    3    3    0    0 -0.41511727167E+01 -0.13654903828E+02  0.12563368949E+02  0.19013860019E+02  0.00000000000E+00 0.  1.
</event>
<event>
 7    1  0.3919732E-008  0.4614232E+02  0.7816164E-02  0.1320468E+00
        -11   -1    0    0    0    0  0.00000000000E+00  0.00000000000E+00  0.45593999997E+02  0.45594000000E+02  0.51100000000E-03 0.  1.
         11   -1    0    0    0    0 -0.00000000000E+00 -0.00000000000E+00 -0.45593999997E+02  0.45594000000E+02  0.51100000000E-03 0. -1.
    9900012    2    1    2    0    0  0.33497219647E+01 -0.34801648603E+02 -0.28403135736E+02  0.46142317605E+02  0.99999985810E+01 0.  0.
        -12    1    1    2    0    0 -0.33497219647E+01  0.34801648603E+02  0.28403135736E+02  0.45045682395E+02  0.00000000000E+00 0.  1.
         11    1    3    3    0    0  0.12052160337E+01 -0.24693582504E+02 -0.14255767034E+02  0.28538613431E+02  0.51100000000E-03 0. -1.
        -11    1    3    3    0    0  0.17002510349E+01 -0.39402252370E+01 -0.57059421958E+01  0.71396081897E+01  0.51100000000E-03 0.  1.
        -12    1    3    3    0    0  0.44425489609E+00 -0.61678408617E+01 -0.84414265068E+01  0.10464095985E+02  0.00000000000E+00 0.  1.
</event>
<event>
 7    1  0.3919732E-008  0.4614232E+02  0.7816164E-02  0.1320468E+00
        -11   -1    0    0    0    0  0.00000000000E+00  0.00000000000E+00  0.45593999997E+02  0.45594000000E+02  0.51100000000E-03 0. -1.
         11   -1    0    0    0    0 -0.00000000000E+00 -0.00000000000E+00 -0.45593999997E+02  0.45594000000E+02  0.51100000000E-03 0.  1.
    9900012    2    1    2    0    0 -0.29508833543E+02  0.25642423874E+02 -0.22378747535E+02  0.46142317628E+02  0.99999987829E+01 0.  0.
        -12    1    1    2    0    0  0.29508833543E+02 -0.25642423874E+02  0.22378747535E+02  0.45045682372E+02  0.00000000000E+00 0.  1.
         11    1    3    3    0    0 -0.11087359650E+02  0.90964160868E+01 -0.95440409855E+01  0.17226811900E+02  0.51100000000E-03 0. -1.
        -11    1    3    3    0    0 -0.90530889207E+01  0.37864903775E+01 -0.69616516861E+01  0.12031646722E+02  0.51100000000E-03 0.  1.
         12    1    3    3    0    0 -0.93683849718E+01  0.12759517409E+02 -0.58730548630E+01  0.16883859006E+02  0.00000000000E+00 0. -1.
</event>
<event>
 7    1  0.3919732E-008  0.4614232E+02  0.7816164E-02  0.1320468E+00
        -11   -1    0    0    0    0  0.00000000000E+00  0.00000000000E+00  0.45593999997E+02  0.45594000000E+02  0.51100000000E-03 0.  1.
         11   -1    0    0    0    0 -0.00000000000E+00 -0.00000000000E+00 -0.45593999997E+02  0.45594000000E+02  0.51100000000E-03 0. -1.
    9900012    2    1    2    0    0 -0.15073044732E+02  0.26103335588E+02 -0.33474361195E+02  0.46142315815E+02  0.99999822499E+01 0.  0.
        -12    1    1    2    0    0  0.15073044732E+02 -0.26103335588E+02  0.33474361195E+02  0.45045684185E+02  0.00000000000E+00 0.  1.
         11    1    3    3    0    0 -0.10580518955E+02  0.16388541195E+02 -0.22550011163E+02  0.29816684382E+02  0.51100000000E-03 0. -1.
        -11    1    3    3    0    0 -0.46691421367E+01  0.90028067678E+01 -0.11543522310E+02  0.15365686629E+02  0.51100000000E-03 0.  1.
        -12    1    3    3    0    0  0.17661635911E+00  0.71198762519E+00  0.61917227758E+00  0.95994480365E+00  0.00000000000E+00 0.  1.
</event>
<event>
 7    1  0.3919732E-008  0.4614232E+02  0.7816164E-02  0.1320468E+00
        -11   -1    0    0    0    0  0.00000000000E+00  0.00000000000E+00  0.45593999997E+02  0.45594000000E+02  0.51100000000E-03 0.  1.
         11   -1    0    0    0    0 -0.00000000000E+00 -0.00000000000E+00 -0.45593999997E+02  0.45594000000E+02  0.51100000000E-03 0. -1.
    9900012    2    1    2    0    0 -0.29148098575E+02 -0.32265330187E+02 -0.11766487939E+02  0.46142318509E+02  0.10000006815E+02 0.  0.
        -12    1    1    2    0    0  0.29148098575E+02  0.32265330187E+02  0.11766487939E+02  0.45045681491E+02  0.00000000000E+00 0.  1.
         11    1    3    3    0    0 -0.97419415769E+01 -0.13643601484E+02 -0.40532035298E+01  0.17247659153E+02  0.51100000000E-03 0. -1.
        -11    1    3    3    0    0 -0.17420313519E+01  0.18645189372E-01  0.69073139628E+00  0.18740680343E+01  0.51100000000E-03 0.  1.
        -12    1    3    3    0    0 -0.17664125646E+02 -0.18640373892E+02 -0.84040158054E+01  0.27020591321E+02  0.00000000000E+00 0.  1.
</event>
<event>
 7    1  0.3919732E-008  0.4614232E+02  0.7816164E-02  0.1320468E+00
        -11   -1    0    0    0    0  0.00000000000E+00  0.00000000000E+00  0.45593999997E+02  0.45594000000E+02  0.51100000000E-03 0.  1.
         11   -1    0    0    0    0 -0.00000000000E+00 -0.00000000000E+00 -0.45593999997E+02  0.45594000000E+02  0.51100000000E-03 0. -1.
    9900012    2    1    2    0    0 -0.40968251147E+02  0.16236160547E+02  0.93328966722E+01  0.46142317946E+02  0.10000001690E+02 0.  0.
        -12    1    1    2    0    0  0.40968251147E+02 -0.16236160547E+02 -0.93328966722E+01  0.45045682054E+02  0.00000000000E+00 0.  1.
         11    1    3    3    0    0 -0.49803313824E+01  0.44017048815E+01  0.20374792572E+01  0.69519801874E+01  0.51100000000E-03 0.  1.
        -11    1    3    3    0    0 -0.20731566778E+02  0.92357352687E+01  0.17980370376E+01  0.22766853197E+02  0.51100000000E-03 0. -1.
        -12    1    3    3    0    0 -0.15256352987E+02  0.25987203970E+01  0.54973803774E+01  0.16423484563E+02  0.00000000000E+00 0.  1.
</event>
<event>
 7    1  0.3919732E-008  0.4614232E+02  0.7816164E-02  0.1320468E+00
        -11   -1    0    0    0    0  0.00000000000E+00  0.00000000000E+00  0.45593999997E+02  0.45594000000E+02  0.51100000000E-03 0. -1.
         11   -1    0    0    0    0 -0.00000000000E+00 -0.00000000000E+00 -0.45593999997E+02  0.45594000000E+02  0.51100000000E-03 0.  1.
    9900012    2    1    2    0    0  0.12577540727E+02 -0.43108259622E+02  0.35492032640E+01  0.46142318496E+02  0.10000006699E+02 0.  0.
        -12    1    1    2    0    0 -0.12577540727E+02  0.43108259622E+02 -0.35492032640E+01  0.45045681504E+02  0.00000000000E+00 0.  1.
         11    1    3    3    0    0  0.72882599787E+01 -0.34741574862E+02  0.24519467161E+01  0.35582408580E+02  0.51100000000E-03 0. -1.
        -11    1    3    3    0    0  0.39506884414E+01 -0.46643486498E+01 -0.84367686150E+00  0.61705654842E+01  0.51100000000E-03 0.  1.
         12    1    3    3    0    0  0.13385923071E+01 -0.37023361104E+01  0.19409334094E+01  0.43893444315E+01  0.00000000000E+00 0. -1.
</event>
<event>
 7    1  0.3919732E-008  0.4614232E+02  0.7816164E-02  0.1320468E+00
        -11   -1    0    0    0    0  0.00000000000E+00  0.00000000000E+00  0.45593999997E+02  0.45594000000E+02  0.51100000000E-03 0. -1.
         11   -1    0    0    0    0 -0.00000000000E+00 -0.00000000000E+00 -0.45593999997E+02  0.45594000000E+02  0.51100000000E-03 0.  1.
    9900012    2    1    2    0    0  0.13344235634E+02  0.42763093874E+02  0.47289151516E+01  0.46142318066E+02  0.10000002784E+02 0.  0.
        -12    1    1    2    0    0 -0.13344235634E+02 -0.42763093874E+02 -0.47289151516E+01  0.45045681934E+02  0.00000000000E+00 0.  1.
         11    1    3    3    0    0  0.83731617113E+01  0.27485775828E+02  0.31010931164E+01  0.28899731637E+02  0.51100000000E-03 0. -1.
        -11    1    3    3    0    0  0.43308174595E+01  0.45829246520E+01  0.16931174723E+01  0.65288456307E+01  0.51100000000E-03 0.  1.
         12    1    3    3    0    0  0.64025646359E+00  0.10694393394E+02 -0.65295437167E-01  0.10713740799E+02  0.00000000000E+00 0. -1.
</event>
<event>
 7    1  0.3919732E-008  0.4614232E+02  0.7816164E-02  0.1320468E+00
        -11   -1    0    0    0    0  0.00000000000E+00  0.00000000000E+00  0.45593999997E+02  0.45594000000E+02  0.51100000000E-03 0.  1.
         11   -1    0    0    0    0 -0.00000000000E+00 -0.00000000000E+00 -0.45593999997E+02  0.45594000000E+02  0.51100000000E-03 0. -1.
    9900012    2    1    2    0    0  0.20396864302E+02 -0.37826486914E+02  0.13499567582E+02  0.46142317515E+02  0.99999977562E+01 0.  0.
        -12    1    1    2    0    0 -0.20396864302E+02  0.37826486914E+02 -0.13499567582E+02  0.45045682485E+02  0.00000000000E+00 0.  1.
         11    1    3    3    0    0  0.72637185563E+01 -0.98538558367E+01  0.35922479758E+01  0.12757912364E+02  0.51100000000E-03 0. -1.
        -11    1    3    3    0    0  0.78341269629E+01 -0.23957612808E+02  0.72848412598E+01  0.26237562180E+02  0.51100000000E-03 0.  1.
        -12    1    3    3    0    0  0.52990187824E+01 -0.40150182697E+01  0.26224783466E+01  0.71468429702E+01  0.00000000000E+00 0.  1.
</event>
<event>
 7    1  0.3919732E-008  0.4614232E+02  0.7816164E-02  0.1320468E+00
        -11   -1    0    0    0    0  0.00000000000E+00  0.00000000000E+00  0.45593999997E+02  0.45594000000E+02  0.51100000000E-03 0. -1.
         11   -1    0    0    0    0 -0.00000000000E+00 -0.00000000000E+00 -0.45593999997E+02  0.45594000000E+02  0.51100000000E-03 0.  1.
    9900012    2    1    2    0    0 -0.38742719198E+02  0.22387883700E+02  0.51863183379E+01  0.46142317351E+02  0.99999962611E+01 0.  0.
        -12    1    1    2    0    0  0.38742719198E+02 -0.22387883700E+02 -0.51863183379E+01  0.45045682649E+02  0.00000000000E+00 0.  1.
         11    1    3    3    0    0 -0.12526328761E+02  0.54834282481E+01  0.47988709987E+01  0.14491585859E+02  0.51100000000E-03 0. -1.
        -11    1    3    3    0    0 -0.21430763224E+01  0.97819182300E+00 -0.13831247182E+01  0.27317887205E+01  0.51100000000E-03 0.  1.
         12    1    3    3    0    0 -0.24073314114E+02  0.15926263629E+02  0.17705720574E+01  0.28918942772E+02  0.00000000000E+00 0. -1.
</event>
<event>
 7    1  0.3919732E-008  0.4614232E+02  0.7816164E-02  0.1320468E+00
        -11   -1    0    0    0    0  0.00000000000E+00  0.00000000000E+00  0.45593999997E+02  0.45594000000E+02  0.51100000000E-03 0.  1.
         11   -1    0    0    0    0 -0.00000000000E+00 -0.00000000000E+00 -0.45593999997E+02  0.45594000000E+02  0.51100000000E-03 0. -1.
    9900012    2    1    2    0    0 -0.17456367464E+01 -0.17069821241E+02 -0.41649579020E+02  0.46142317883E+02  0.10000001110E+02 0.  0.
        -12    1    1    2    0    0  0.17456367464E+01  0.17069821241E+02  0.41649579020E+02  0.45045682117E+02  0.00000000000E+00 0.  1.
         11    1    3    3    0    0  0.83451022684E+00 -0.35115658492E+01 -0.91245758383E+01  0.98125117336E+01  0.51100000000E-03 0. -1.
        -11    1    3    3    0    0  0.28540269588E+01 -0.66628715943E+01 -0.12218488494E+02  0.14206716337E+02  0.51100000000E-03 0.  1.
        -12    1    3    3    0    0 -0.54341739320E+01 -0.68953837972E+01 -0.20306514688E+02  0.22123089812E+02  0.00000000000E+00 0.  1.
</event>
<event>
 7    1  0.3919732E-008  0.4614232E+02  0.7816164E-02  0.1320468E+00
        -11   -1    0    0    0    0  0.00000000000E+00  0.00000000000E+00  0.45593999997E+02  0.45594000000E+02  0.51100000000E-03 0.  1.
         11   -1    0    0    0    0 -0.00000000000E+00 -0.00000000000E+00 -0.45593999997E+02  0.45594000000E+02  0.51100000000E-03 0. -1.
    9900012    2    1    2    0    0 -0.52557900661E+01  0.33943198811E+02 -0.29143599842E+02  0.46142317782E+02  0.10000000193E+02 0.  0.
        -12    1    1    2    0    0  0.52557900661E+01 -0.33943198811E+02  0.29143599842E+02  0.45045682218E+02  0.00000000000E+00 0.  1.
         11    1    3    3    0    0  0.26452298638E+00  0.14295045158E+02 -0.12786665737E+02  0.19181165486E+02  0.51100000000E-03 0. -1.
        -11    1    3    3    0    0 -0.29338112115E+01  0.14332434672E+02 -0.78522861062E+01  0.16603744434E+02  0.51100000000E-03 0.  1.
         12    1    3    3    0    0 -0.25865018410E+01  0.53157189810E+01 -0.85046479983E+01  0.10357407863E+02  0.00000000000E+00 0. -1.
</event>
<event>
 7    1  0.3919732E-008  0.4614232E+02  0.7816164E-02  0.1320468E+00
        -11   -1    0    0    0    0  0.00000000000E+00  0.00000000000E+00  0.45593999997E+02  0.45594000000E+02  0.51100000000E-03 0.  1.
         11   -1    0    0    0    0 -0.00000000000E+00 -0.00000000000E+00 -0.45593999997E+02  0.45594000000E+02  0.51100000000E-03 0. -1.
    9900012    2    1    2    0    0 -0.38996951664E+02  0.16972465334E+02 -0.14842057994E+02  0.46142317586E+02  0.99999984063E+01 0.  0.
        -12    1    1    2    0    0  0.38996951664E+02 -0.16972465334E+02  0.14842057994E+02  0.45045682414E+02  0.00000000000E+00 0.  1.
         11    1    3    3    0    0 -0.63204495540E+01  0.10862875220E+01 -0.16871716256E+01  0.66313385903E+01  0.51100000000E-03 0. -1.
        -11    1    3    3    0    0 -0.64136679465E+00 -0.17241736877E+00  0.81337967107E+00  0.10500789803E+01  0.51100000000E-03 0.  1.
         12    1    3    3    0    0 -0.32035135316E+02  0.16058595181E+02 -0.13968266039E+02  0.38460900016E+02  0.00000000000E+00 0. -1.
</event>
<event>
 7    1  0.3919732E-008  0.4614232E+02  0.7816164E-02  0.1320468E+00
        -11   -1    0    0    0    0  0.00000000000E+00  0.00000000000E+00  0.45593999997E+02  0.45594000000E+02  0.51100000000E-03 0.  1.
         11   -1    0    0    0    0 -0.00000000000E+00 -0.00000000000E+00 -0.45593999997E+02  0.45594000000E+02  0.51100000000E-03 0. -1.
    9900012    2    1    2    0    0 -0.24110410065E+02  0.33921961213E+02 -0.17236652366E+02  0.46142317512E+02  0.99999977305E+01 0.  0.
        -12    1    1    2    0    0  0.24110410065E+02 -0.33921961213E+02  0.17236652366E+02  0.45045682488E+02  0.00000000000E+00 0.  1.
         11    1    3    3    0    0 -0.11199331267E+02  0.20156557167E+02 -0.92684133130E+01  0.24851867199E+02  0.51100000000E-03 0. -1.
        -11    1    3    3    0    0 -0.57310105295E+01  0.72786145703E+01 -0.90040496361E+00  0.93077086929E+01  0.51100000000E-03 0.  1.
        -12    1    3    3    0    0 -0.71800682688E+01  0.64867894751E+01 -0.70678340890E+01  0.11982741621E+02  0.00000000000E+00 0.  1.
</event>
<event>
 7    1  0.3919732E-008  0.4614232E+02  0.7816164E-02  0.1320468E+00
        -11   -1    0    0    0    0  0.00000000000E+00  0.00000000000E+00  0.45593999997E+02  0.45594000000E+02  0.51100000000E-03 0.  1.
         11   -1    0    0    0    0 -0.00000000000E+00 -0.00000000000E+00 -0.45593999997E+02  0.45594000000E+02  0.51100000000E-03 0. -1.
    9900012    2    1    2    0    0  0.25133190894E+02 -0.13206309574E+02 -0.34971840457E+02  0.46142317387E+02  0.99999965903E+01 0.  0.
        -12    1    1    2    0    0 -0.25133190894E+02  0.13206309574E+02  0.34971840457E+02  0.45045682613E+02  0.00000000000E+00 0.  1.
         11    1    3    3    0    0  0.12449406645E+01 -0.71479887532E+00 -0.33269085528E+01  0.36234148907E+01  0.51100000000E-03 0.  1.
        -11    1    3    3    0    0  0.21176480733E+02 -0.11505508865E+02 -0.22652992867E+02  0.33075340612E+02  0.51100000000E-03 0. -1.
         12    1    3    3    0    0  0.27117694963E+01 -0.98600183395E+00 -0.89919390376E+01  0.94435618849E+01  0.00000000000E+00 0. -1.
</event>
<event>
 7    1  0.3919732E-008  0.4614232E+02  0.7816164E-02  0.1320468E+00
        -11   -1    0    0    0    0  0.00000000000E+00  0.00000000000E+00  0.45593999997E+02  0.45594000000E+02  0.51100000000E-03 0. -1.
         11   -1    0    0    0    0 -0.00000000000E+00 -0.00000000000E+00 -0.45593999997E+02  0.45594000000E+02  0.51100000000E-03 0.  1.
    9900012    2    1    2    0    0  0.27645711575E+02  0.22329780541E+01  0.35494252240E+02  0.46142317615E+02  0.99999986649E+01 0.  0.
        -12    1    1    2    0    0 -0.27645711575E+02 -0.22329780541E+01 -0.35494252240E+02  0.45045682385E+02  0.00000000000E+00 0.  1.
         11    1    3    3    0    0  0.21301661638E+02  0.34236752450E+01  0.22386440772E+02  0.31090755401E+02  0.51100000000E-03 0. -1.
        -11    1    3    3    0    0  0.21018505015E+01 -0.15494676237E+01  0.24737761002E+01  0.35969701003E+01  0.51100000000E-03 0.  1.
        -12    1    3    3    0    0  0.42421994358E+01  0.35877043274E+00  0.10634035368E+02  0.11454592114E+02  0.00000000000E+00 0.  1.
</event>
<event>
 7    1  0.4239680E-008  0.4614232E+02  0.7816164E-02  0.1320468E+00
        -11   -1    0    0    0    0  0.00000000000E+00  0.00000000000E+00  0.45593999997E+02  0.45594000000E+02  0.51100000000E-03 0. -1.
         11   -1    0    0    0    0 -0.00000000000E+00 -0.00000000000E+00 -0.45593999997E+02  0.45594000000E+02  0.51100000000E-03 0.  1.
    9900012    2    1    2    0    0 -0.21197615016E+02  0.39705931186E+02  0.17926657167E+01  0.46142317586E+02  0.99999984039E+01 0.  0.
        -12    1    1    2    0    0  0.21197615016E+02 -0.39705931186E+02 -0.17926657167E+01  0.45045682414E+02  0.00000000000E+00 0.  1.
         11    1    3    3    0    0 -0.82375468817E+01  0.19408965420E+02 -0.97339918289E+00  0.21107169956E+02  0.51100000000E-03 0. -1.
        -11    1    3    3    0    0 -0.28119581869E+01  0.95702344480E+01 -0.18607200144E+00  0.99765284185E+01  0.51100000000E-03 0.  1.
        -12    1    3    3    0    0 -0.10148109948E+02  0.10726731318E+02  0.29521369010E+01  0.15058619212E+02  0.00000000000E+00 0.  1.
</event>
<event>
 7    1  0.3919732E-008  0.4614232E+02  0.7816164E-02  0.1320468E+00
        -11   -1    0    0    0    0  0.00000000000E+00  0.00000000000E+00  0.45593999997E+02  0.45594000000E+02  0.51100000000E-03 0. -1.
         11   -1    0    0    0    0 -0.00000000000E+00 -0.00000000000E+00 -0.45593999997E+02  0.45594000000E+02  0.51100000000E-03 0.  1.
    9900012    2    1    2    0    0  0.89247835181E+01  0.22721322374E+01  0.44094207424E+02  0.46142317919E+02  0.10000001440E+02 0.  0.
        -12    1    1    2    0    0 -0.89247835181E+01 -0.22721322374E+01 -0.44094207424E+02  0.45045682081E+02  0.00000000000E+00 0.  1.
         11    1    3    3    0    0  0.18214601771E+01  0.20259278070E+01  0.17705431732E+02  0.17913805116E+02  0.51100000000E-03 0. -1.
        -11    1    3    3    0    0 -0.30237499495E+00 -0.14158621766E+00  0.12323192161E+02  0.12327714411E+02  0.51100000000E-03 0.  1.
         12    1    3    3    0    0  0.74056983360E+01  0.38779064809E+00  0.14065583532E+02  0.15900798392E+02  0.00000000000E+00 0. -1.
</event>
<event>
 7    1  0.3919732E-008  0.4614232E+02  0.7816164E-02  0.1320468E+00
        -11   -1    0    0    0    0  0.00000000000E+00  0.00000000000E+00  0.45593999997E+02  0.45594000000E+02  0.51100000000E-03 0.  1.
         11   -1    0    0    0    0 -0.00000000000E+00 -0.00000000000E+00 -0.45593999997E+02  0.45594000000E+02  0.51100000000E-03 0. -1.
    9900012    2    1    2    0    0  0.21866684852E+02  0.35931850123E+02 -0.16120286789E+02  0.46142318677E+02  0.10000008350E+02 0.  0.
        -12    1    1    2    0    0 -0.21866684852E+02 -0.35931850123E+02  0.16120286789E+02  0.45045681323E+02  0.00000000000E+00 0.  1.
         11    1    3    3    0    0  0.16477047702E+02  0.23947893402E+02 -0.14024469036E+02  0.32275074460E+02  0.51100000000E-03 0. -1.
        -11    1    3    3    0    0 -0.25147188125E+00  0.41608908773E-01 -0.50301088718E+00  0.56390568546E+00  0.51100000000E-03 0.  1.
         12    1    3    3    0    0  0.56411090318E+01  0.11942347812E+02 -0.15928068657E+01  0.13303338532E+02  0.00000000000E+00 0. -1.
</event>
<event>
 7    1  0.3919732E-008  0.4614232E+02  0.7816164E-02  0.1320468E+00
        -11   -1    0    0    0    0  0.00000000000E+00  0.00000000000E+00  0.45593999997E+02  0.45594000000E+02  0.51100000000E-03 0. -1.
         11   -1    0    0    0    0 -0.00000000000E+00 -0.00000000000E+00 -0.45593999997E+02  0.45594000000E+02  0.51100000000E-03 0.  1.
    9900012    2    1    2    0    0  0.17536274455E+02  0.19435617352E+02  0.36658550802E+02  0.46142317737E+02  0.99999997838E+01 0.  0.
        -12    1    1    2    0    0 -0.17536274455E+02 -0.19435617352E+02 -0.36658550802E+02  0.45045682263E+02  0.00000000000E+00 0.  1.
         11    1    3    3    0    0  0.14004387836E+02  0.13609000900E+02  0.28837265840E+02  0.34826939078E+02  0.51100000000E-03 0.  1.
        -11    1    3    3    0    0  0.38635748105E+01  0.61696291125E+01  0.79903803565E+01  0.10809149467E+02  0.51100000000E-03 0. -1.
         12    1    3    3    0    0 -0.33168819203E+00 -0.34301266061E+00 -0.16909539484E+00  0.50622919179E+00  0.00000000000E+00 0. -1.
</event>
<event>
 7    1  0.3919732E-008  0.4614232E+02  0.7816164E-02  0.1320468E+00
        -11   -1    0    0    0    0  0.00000000000E+00  0.00000000000E+00  0.45593999997E+02  0.45594000000E+02  0.51100000000E-03 0.  1.
         11   -1    0    0    0    0 -0.00000000000E+00 -0.00000000000E+00 -0.45593999997E+02  0.45594000000E+02  0.51100000000E-03 0. -1.
    9900012    2    1    2    0    0  0.36430112179E+02 -0.16460739775E+02 -0.20760645521E+02  0.46142318411E+02  0.10000005927E+02 0.  0.
        -12    1    1    2    0    0 -0.36430112179E+02  0.16460739775E+02  0.20760645521E+02  0.45045681589E+02  0.00000000000E+00 0.  1.
         11    1    3    3    0    0  0.56006210628E+01 -0.31620861866E+01 -0.70713358223E+01  0.95587413352E+01  0.51100000000E-03 0. -1.
        -11    1    3    3    0    0  0.11057103971E+02 -0.32562580489E+01 -0.66968031817E+01  0.13330789092E+02  0.51100000000E-03 0.  1.
         12    1    3    3    0    0  0.19772387145E+02 -0.10042395540E+02 -0.69925065171E+01  0.23252787983E+02  0.00000000000E+00 0. -1.
</event>
<event>
 7    1  0.3919732E-008  0.4614232E+02  0.7816164E-02  0.1320468E+00
        -11   -1    0    0    0    0  0.00000000000E+00  0.00000000000E+00  0.45593999997E+02  0.45594000000E+02  0.51100000000E-03 0.  1.
         11   -1    0    0    0    0 -0.00000000000E+00 -0.00000000000E+00 -0.45593999997E+02  0.45594000000E+02  0.51100000000E-03 0. -1.
    9900012    2    1    2    0    0  0.67823458335E+01 -0.35532574388E+02 -0.26843054412E+02  0.46142316213E+02  0.99999858860E+01 0.  0.
        -12    1    1    2    0    0 -0.67823458335E+01  0.35532574388E+02  0.26843054412E+02  0.45045683787E+02  0.00000000000E+00 0.  1.
         11    1    3    3    0    0  0.33873502554E+01 -0.24348902768E+02 -0.16416930283E+02  0.29561102955E+02  0.51100000000E-03 0. -1.
        -11    1    3    3    0    0 -0.88921317427E+00 -0.15558722558E+01 -0.50710723609E-01  0.17927661265E+01  0.51100000000E-03 0.  1.
        -12    1    3    3    0    0  0.42842087524E+01 -0.96277993646E+01 -0.10375413405E+02  0.14788447132E+02  0.00000000000E+00 0.  1.
</event>
<event>
 7    1  0.3919732E-008  0.4614232E+02  0.7816164E-02  0.1320468E+00
        -11   -1    0    0    0    0  0.00000000000E+00  0.00000000000E+00  0.45593999997E+02  0.45594000000E+02  0.51100000000E-03 0.  1.
         11   -1    0    0    0    0 -0.00000000000E+00 -0.00000000000E+00 -0.45593999997E+02  0.45594000000E+02  0.51100000000E-03 0. -1.
    9900012    2    1    2    0    0 -0.16553259129E+02  0.19806207320E+02 -0.36916355608E+02  0.46142317104E+02  0.99999940082E+01 0.  0.
        -12    1    1    2    0    0  0.16553259129E+02 -0.19806207320E+02  0.36916355608E+02  0.45045682896E+02  0.00000000000E+00 0.  1.
         11    1    3    3    0    0 -0.30520794882E+01  0.55356148582E+01 -0.73474717784E+01  0.96924487544E+01  0.51100000000E-03 0. -1.
        -11    1    3    3    0    0 -0.74750600867E+01  0.80126781120E+01 -0.92086314071E+01  0.14313574902E+02  0.51100000000E-03 0.  1.
        -12    1    3    3    0    0 -0.60261195541E+01  0.62579143498E+01 -0.20360252422E+02  0.22136293448E+02  0.00000000000E+00 0.  1.
</event>
<event>
 7    1  0.3919732E-008  0.4614231E+02  0.7816164E-02  0.1320468E+00
        -11   -1    0    0    0    0  0.00000000000E+00  0.00000000000E+00  0.45593999997E+02  0.45594000000E+02  0.51100000000E-03 0.  1.
         11   -1    0    0    0    0 -0.00000000000E+00 -0.00000000000E+00 -0.45593999997E+02  0.45594000000E+02  0.51100000000E-03 0. -1.
    9900012    2    1    2    0    0  0.30172391279E+02  0.31065786973E+02 -0.12395874270E+02  0.46142311919E+02  0.99999467286E+01 0.  0.
        -12    1    1    2    0    0 -0.30172391279E+02 -0.31065786973E+02  0.12395874270E+02  0.45045688081E+02  0.00000000000E+00 0.  1.
         11    1    3    3    0    0  0.14547068039E+02  0.17158896081E+02 -0.36078472412E+01  0.22782920472E+02  0.51100000000E-03 0. -1.
        -11    1    3    3    0    0  0.15953875575E+01  0.11703457421E+01  0.78621807395E+00  0.21291100806E+01  0.51100000000E-03 0.  1.
         12    1    3    3    0    0  0.14029935683E+02  0.12736545149E+02 -0.95742451029E+01  0.21230281367E+02  0.00000000000E+00 0. -1.
</event>
<event>
 7    1  0.3919732E-008  0.4614232E+02  0.7816164E-02  0.1320468E+00
        -11   -1    0    0    0    0  0.00000000000E+00  0.00000000000E+00  0.45593999997E+02  0.45594000000E+02  0.51100000000E-03 0. -1.
         11   -1    0    0    0    0 -0.00000000000E+00 -0.00000000000E+00 -0.45593999997E+02  0.45594000000E+02  0.51100000000E-03 0.  1.
    9900012    2    1    2    0    0  0.18749893403E+02  0.34830520328E+02  0.21549706099E+02  0.46142317833E+02  0.10000000652E+02 0.  0.
        -12    1    1    2    0    0 -0.18749893403E+02 -0.34830520328E+02 -0.21549706099E+02  0.45045682167E+02  0.00000000000E+00 0.  1.
         11    1    3    3    0    0  0.44838110725E+00  0.39315338128E-01  0.76809669536E-01  0.45660847518E+00  0.51100000000E-03 0. -1.
        -11    1    3    3    0    0  0.47675745097E+01  0.12904326919E+02  0.12028880717E+02  0.18274172799E+02  0.51100000000E-03 0.  1.
         12    1    3    3    0    0  0.13533937786E+02  0.21886878071E+02  0.94440157133E+01  0.27411536558E+02  0.00000000000E+00 0. -1.
</event>
<event>
 7    1  0.3919732E-008  0.4614232E+02  0.7816164E-02  0.1320468E+00
        -11   -1    0    0    0    0  0.00000000000E+00  0.00000000000E+00  0.45593999997E+02  0.45594000000E+02  0.51100000000E-03 0. -1.
         11   -1    0    0    0    0 -0.00000000000E+00 -0.00000000000E+00 -0.45593999997E+02  0.45594000000E+02  0.51100000000E-03 0.  1.
    9900012    2    1    2    0    0 -0.39204121124E+01 -0.30583231252E+02 -0.32839152594E+02  0.46142316433E+02  0.99999878898E+01 0.  0.
        -12    1    1    2    0    0  0.39204121124E+01  0.30583231252E+02  0.32839152594E+02  0.45045683567E+02  0.00000000000E+00 0.  1.
         11    1    3    3    0    0 -0.28162087817E+01 -0.19526609970E+02 -0.23999506189E+02  0.31067600911E+02  0.51100000000E-03 0. -1.
        -11    1    3    3    0    0 -0.15235507518E+01 -0.10782342741E+02 -0.93549039541E+01  0.14355986561E+02  0.51100000000E-03 0.  1.
        -12    1    3    3    0    0  0.41934742110E+00 -0.27427854069E+00  0.51525754903E+00  0.71872896094E+00  0.00000000000E+00 0.  1.
</event>
<event>
 7    1  0.3919732E-008  0.4614232E+02  0.7816164E-02  0.1320468E+00
        -11   -1    0    0    0    0  0.00000000000E+00  0.00000000000E+00  0.45593999997E+02  0.45594000000E+02  0.51100000000E-03 0.  1.
         11   -1    0    0    0    0 -0.00000000000E+00 -0.00000000000E+00 -0.45593999997E+02  0.45594000000E+02  0.51100000000E-03 0. -1.
    9900012    2    1    2    0    0 -0.60403772469E+01 -0.34210600963E+01 -0.44507569014E+02  0.46142317532E+02  0.99999979074E+01 0.  0.
        -12    1    1    2    0    0  0.60403772469E+01  0.34210600963E+01  0.44507569014E+02  0.45045682468E+02  0.00000000000E+00 0.  1.
         11    1    3    3    0    0 -0.28813996058E+01 -0.40264245424E+01 -0.37393520823E+02  0.37719888097E+02  0.51100000000E-03 0. -1.
        -11    1    3    3    0    0  0.23583722203E+00 -0.76185885669E+00 -0.83512363973E+00  0.11547639878E+01  0.51100000000E-03 0.  1.
         12    1    3    3    0    0 -0.33948148631E+01  0.13672233028E+01 -0.62789245518E+01  0.72676654465E+01  0.00000000000E+00 0. -1.
</event>
<event>
 7    1  0.3919732E-008  0.4614232E+02  0.7816164E-02  0.1320468E+00
        -11   -1    0    0    0    0  0.00000000000E+00  0.00000000000E+00  0.45593999997E+02  0.45594000000E+02  0.51100000000E-03 0. -1.
         11   -1    0    0    0    0 -0.00000000000E+00 -0.00000000000E+00 -0.45593999997E+02  0.45594000000E+02  0.51100000000E-03 0.  1.
    9900012    2    1    2    0    0 -0.35855254170E+02  0.42529567138E+01  0.26933746036E+02  0.46142316878E+02  0.99999919460E+01 0.  0.
        -12    1    1    2    0    0  0.35855254170E+02 -0.42529567138E+01 -0.26933746036E+02  0.45045683122E+02  0.00000000000E+00 0.  1.
         11    1    3    3    0    0 -0.83928431992E+01  0.23529281118E+01  0.85232608899E+01  0.12191064930E+02  0.51100000000E-03 0. -1.
        -11    1    3    3    0    0 -0.71960744168E+01  0.27573486917E+01  0.22843359698E+01  0.80377017800E+01  0.51100000000E-03 0.  1.
        -12    1    3    3    0    0 -0.20266336554E+02 -0.85732008971E+00  0.16126149176E+02  0.25913550168E+02  0.00000000000E+00 0.  1.
</event>
<event>
 7    1  0.3919732E-008  0.4614232E+02  0.7816164E-02  0.1320468E+00
        -11   -1    0    0    0    0  0.00000000000E+00  0.00000000000E+00  0.45593999997E+02  0.45594000000E+02  0.51100000000E-03 0. -1.
         11   -1    0    0    0    0 -0.00000000000E+00 -0.00000000000E+00 -0.45593999997E+02  0.45594000000E+02  0.51100000000E-03 0.  1.
    9900012    2    1    2    0    0  0.20601189131E+02  0.39976168281E+02 -0.25710967656E+01  0.46142316937E+02  0.99999924877E+01 0.  0.
        -12    1    1    2    0    0 -0.20601189131E+02 -0.39976168281E+02  0.25710967656E+01  0.45045683063E+02  0.00000000000E+00 0.  1.
         11    1    3    3    0    0  0.97541755357E+01  0.17111067555E+02 -0.26562798599E+01  0.19874314987E+02  0.51100000000E-03 0.  1.
        -11    1    3    3    0    0  0.37391919181E+01  0.15830192109E+02 -0.83628525290E-01  0.16266023865E+02  0.51100000000E-03 0. -1.
         12    1    3    3    0    0  0.71078216773E+01  0.70349086164E+01  0.16881161959E+00  0.10001978084E+02  0.00000000000E+00 0. -1.
</event>
<event>
 7    1  0.4626217E-008  0.4614232E+02  0.7816164E-02  0.1320468E+00
        -11   -1    0    0    0    0  0.00000000000E+00  0.00000000000E+00  0.45593999997E+02  0.45594000000E+02  0.51100000000E-03 0. -1.
         11   -1    0    0    0    0 -0.00000000000E+00 -0.00000000000E+00 -0.45593999997E+02  0.45594000000E+02  0.51100000000E-03 0.  1.
    9900012    2    1    2    0    0  0.72537107691E+00  0.36597343943E+02  0.26253034084E+02  0.46142317127E+02  0.99999942175E+01 0.  0.
        -12    1    1    2    0    0 -0.72537107691E+00 -0.36597343943E+02 -0.26253034084E+02  0.45045682873E+02  0.00000000000E+00 0.  1.
         11    1    3    3    0    0  0.83302529937E+00  0.21847997514E+02  0.13017848184E+02  0.25445889611E+02  0.51100000000E-03 0. -1.
        -11    1    3    3    0    0 -0.21559060750E+01  0.23170834485E+01  0.16012708969E+01  0.35469529822E+01  0.51100000000E-03 0.  1.
        -12    1    3    3    0    0  0.20482518526E+01  0.12432262981E+02  0.11633915003E+02  0.17149474534E+02  0.00000000000E+00 0.  1.
</event>
<event>
 7    1  0.3919732E-008  0.4614231E+02  0.7816164E-02  0.1320468E+00
        -11   -1    0    0    0    0  0.00000000000E+00  0.00000000000E+00  0.45593999997E+02  0.45594000000E+02  0.51100000000E-03 0. -1.
         11   -1    0    0    0    0 -0.00000000000E+00 -0.00000000000E+00 -0.45593999997E+02  0.45594000000E+02  0.51100000000E-03 0.  1.
    9900012    2    1    2    0    0  0.20160181932E+02 -0.38226086218E+02  0.12706191057E+02  0.46142313256E+02  0.99999589167E+01 0.  0.
        -12    1    1    2    0    0 -0.20160181932E+02  0.38226086218E+02 -0.12706191057E+02  0.45045686744E+02  0.00000000000E+00 0.  1.
         11    1    3    3    0    0  0.54536702754E+00 -0.63072955006E+01  0.30708757515E+01  0.70363115244E+01  0.51100000000E-03 0. -1.
        -11    1    3    3    0    0  0.44489496750E+00 -0.34396454909E+01  0.72674365317E-01  0.34690595930E+01  0.51100000000E-03 0.  1.
         12    1    3    3    0    0  0.19169919937E+02 -0.28479145227E+02  0.95626409400E+01  0.35636942138E+02  0.00000000000E+00 0. -1.
</event>
<event>
 7    1  0.3919732E-008  0.4614232E+02  0.7816164E-02  0.1320468E+00
        -11   -1    0    0    0    0  0.00000000000E+00  0.00000000000E+00  0.45593999997E+02  0.45594000000E+02  0.51100000000E-03 0.  1.
         11   -1    0    0    0    0 -0.00000000000E+00 -0.00000000000E+00 -0.45593999997E+02  0.45594000000E+02  0.51100000000E-03 0. -1.
    9900012    2    1    2    0    0 -0.32007618368E+02 -0.14102328851E+02 -0.28385739008E+02  0.46142317725E+02  0.99999996718E+01 0.  0.
        -12    1    1    2    0    0  0.32007618368E+02  0.14102328851E+02  0.28385739008E+02  0.45045682275E+02  0.00000000000E+00 0.  1.
         11    1    3    3    0    0 -0.30528025118E+02 -0.11927926385E+02 -0.23662742609E+02  0.40424758917E+02  0.51100000000E-03 0. -1.
        -11    1    3    3    0    0  0.40028370582E+00 -0.79675662800E+00 -0.13272450280E+01  0.15989458386E+01  0.51100000000E-03 0.  1.
         12    1    3    3    0    0 -0.18798769558E+01 -0.13776458375E+01 -0.33957513704E+01  0.41186129694E+01  0.00000000000E+00 0. -1.
</event>
<event>
 7    1  0.3919732E-008  0.4614232E+02  0.7816164E-02  0.1320468E+00
        -11   -1    0    0    0    0  0.00000000000E+00  0.00000000000E+00  0.45593999997E+02  0.45594000000E+02  0.51100000000E-03 0. -1.
         11   -1    0    0    0    0 -0.00000000000E+00 -0.00000000000E+00 -0.45593999997E+02  0.45594000000E+02  0.51100000000E-03 0.  1.
    9900012    2    1    2    0    0 -0.34267176113E+01 -0.81856636126E+00  0.44907692887E+02  0.46142319575E+02  0.10000016545E+02 0.  0.
        -12    1    1    2    0    0  0.34267176113E+01  0.81856636126E+00 -0.44907692887E+02  0.45045680425E+02  0.00000000000E+00 0.  1.
         11    1    3    3    0    0  0.68386918670E-01  0.20746189319E+01  0.41750423352E+01  0.46625850389E+01  0.51100000000E-03 0.  1.
        -11    1    3    3    0    0  0.16592959781E+01 -0.12561004166E+01  0.17636203267E+02  0.17758567435E+02  0.51100000000E-03 0. -1.
        -12    1    3    3    0    0 -0.51544005080E+01 -0.16370848766E+01  0.23096447285E+02  0.23721167102E+02  0.00000000000E+00 0.  1.
</event>
<event>
 7    1  0.3919732E-008  0.4614232E+02  0.7816164E-02  0.1320468E+00
        -11   -1    0    0    0    0  0.00000000000E+00  0.00000000000E+00  0.45593999997E+02  0.45594000000E+02  0.51100000000E-03 0. -1.
         11   -1    0    0    0    0 -0.00000000000E+00 -0.00000000000E+00 -0.45593999997E+02  0.45594000000E+02  0.51100000000E-03 0.  1.
    9900012    2    1    2    0    0  0.40721412332E+02  0.11334680666E+02  0.15569363671E+02  0.46142317706E+02  0.99999995018E+01 0.  0.
        -12    1    1    2    0    0 -0.40721412332E+02 -0.11334680666E+02 -0.15569363671E+02  0.45045682294E+02  0.00000000000E+00 0.  1.
         11    1    3    3    0    0  0.24953202366E+02  0.51604534009E+01  0.11600294501E+02  0.27997489537E+02  0.51100000000E-03 0. -1.
        -11    1    3    3    0    0  0.43257726036E+01 -0.66210866368E+00  0.94846595942E+00  0.44777543968E+01  0.51100000000E-03 0.  1.
         12    1    3    3    0    0  0.11442437363E+02  0.68363359293E+01  0.30206032106E+01  0.13667073772E+02  0.00000000000E+00 0. -1.
</event>
<event>
 7    1  0.3919732E-008  0.4614232E+02  0.7816164E-02  0.1320468E+00
        -11   -1    0    0    0    0  0.00000000000E+00  0.00000000000E+00  0.45593999997E+02  0.45594000000E+02  0.51100000000E-03 0.  1.
         11   -1    0    0    0    0 -0.00000000000E+00 -0.00000000000E+00 -0.45593999997E+02  0.45594000000E+02  0.51100000000E-03 0. -1.
    9900012    2    1    2    0    0  0.33615502792E+02 -0.20998300017E+02 -0.21405204563E+02  0.46142318587E+02  0.10000007530E+02 0.  0.
        -12    1    1    2    0    0 -0.33615502792E+02  0.20998300017E+02  0.21405204563E+02  0.45045681413E+02  0.00000000000E+00 0.  1.
         11    1    3    3    0    0  0.49144096510E-01 -0.44526671995E+00  0.17693552994E+00  0.48164721218E+00  0.51100000000E-03 0.  1.
        -11    1    3    3    0    0  0.12831255257E+02 -0.32749734920E+01 -0.67582096618E+01  0.14867412718E+02  0.51100000000E-03 0. -1.
         12    1    3    3    0    0  0.20735103439E+02 -0.17278059805E+02 -0.14823930431E+02  0.30793258656E+02  0.00000000000E+00 0. -1.
</event>
<event>
 7    1  0.3919732E-008  0.4614232E+02  0.7816164E-02  0.1320468E+00
        -11   -1    0    0    0    0  0.00000000000E+00  0.00000000000E+00  0.45593999997E+02  0.45594000000E+02  0.51100000000E-03 0.  1.
         11   -1    0    0    0    0 -0.00000000000E+00 -0.00000000000E+00 -0.45593999997E+02  0.45594000000E+02  0.51100000000E-03 0. -1.
    9900012    2    1    2    0    0  0.29434307255E+02  0.26125936269E+02  0.21912791892E+02  0.46142318320E+02  0.10000005099E+02 0.  0.
        -12    1    1    2    0    0 -0.29434307255E+02 -0.26125936269E+02 -0.21912791892E+02  0.45045681680E+02  0.00000000000E+00 0.  1.
         11    1    3    3    0    0  0.17198275084E+02  0.92674053948E+01  0.89691962116E+01  0.21496789285E+02  0.51100000000E-03 0. -1.
        -11    1    3    3    0    0  0.54359202610E+01  0.85992798862E+01  0.51019320504E+01  0.11380973357E+02  0.51100000000E-03 0.  1.
         12    1    3    3    0    0  0.68001119105E+01  0.82592509877E+01  0.78416636296E+01  0.13264555679E+02  0.00000000000E+00 0. -1.
</event>
<event>
 7    1  0.3919732E-008  0.4614232E+02  0.7816164E-02  0.1320468E+00
        -11   -1    0    0    0    0  0.00000000000E+00  0.00000000000E+00  0.45593999997E+02  0.45594000000E+02  0.51100000000E-03 0. -1.
         11   -1    0    0    0    0 -0.00000000000E+00 -0.00000000000E+00 -0.45593999997E+02  0.45594000000E+02  0.51100000000E-03 0.  1.
    9900012    2    1    2    0    0  0.91758205170E+01  0.26269212304E+02  0.35423809234E+02  0.46142318100E+02  0.10000003089E+02 0.  0.
        -12    1    1    2    0    0 -0.91758205170E+01 -0.26269212304E+02 -0.35423809234E+02  0.45045681900E+02  0.00000000000E+00 0.  1.
         11    1    3    3    0    0  0.53135220375E+01  0.97322448975E+01  0.15240001672E+02  0.18846956211E+02  0.51100000000E-03 0. -1.
        -11    1    3    3    0    0  0.57043795413E+01  0.93999638090E+01  0.11663803204E+02  0.16029459473E+02  0.51100000000E-03 0.  1.
        -12    1    3    3    0    0 -0.18420810618E+01  0.71370035970E+01  0.85200043585E+01  0.11265902416E+02  0.00000000000E+00 0.  1.
</event>
<event>
 7    1  0.3919732E-008  0.4614232E+02  0.7816164E-02  0.1320468E+00
        -11   -1    0    0    0    0  0.00000000000E+00  0.00000000000E+00  0.45593999997E+02  0.45594000000E+02  0.51100000000E-03 0.  1.
         11   -1    0    0    0    0 -0.00000000000E+00 -0.00000000000E+00 -0.45593999997E+02  0.45594000000E+02  0.51100000000E-03 0. -1.
    9900012    2    1    2    0    0  0.88665469280E+01  0.17916185574E+02 -0.40367167796E+02  0.46142316568E+02  0.99999891204E+01 0.  0.
        -12    1    1    2    0    0 -0.88665469280E+01 -0.17916185574E+02  0.40367167796E+02  0.45045683432E+02  0.00000000000E+00 0.  1.
         11    1    3    3    0    0 -0.16048303568E+00 -0.68951664672E+00 -0.17062884058E+01  0.18473246590E+01  0.51100000000E-03 0.  1.
        -11    1    3    3    0    0  0.19445091024E+01  0.86430955076E+01 -0.11553893525E+02  0.14559418651E+02  0.51100000000E-03 0. -1.
         12    1    3    3    0    0  0.70825208613E+01  0.99626067133E+01 -0.27106985866E+02  0.29735573258E+02  0.00000000000E+00 0. -1.
</event>
<event>
 7    1  0.3919732E-008  0.4614232E+02  0.7816164E-02  0.1320468E+00
        -11   -1    0    0    0    0  0.00000000000E+00  0.00000000000E+00  0.45593999997E+02  0.45594000000E+02  0.51100000000E-03 0. -1.
         11   -1    0    0    0    0 -0.00000000000E+00 -0.00000000000E+00 -0.45593999997E+02  0.45594000000E+02  0.51100000000E-03 0.  1.
    9900012    2    1    2    0    0  0.19854106681E+02  0.40036493802E+02  0.56574844181E+01  0.46142317432E+02  0.99999970021E+01 0.  0.
        -12    1    1    2    0    0 -0.19854106681E+02 -0.40036493802E+02 -0.56574844181E+01  0.45045682568E+02  0.00000000000E+00 0.  1.
         11    1    3    3    0    0  0.78671234799E+01  0.16537842286E+02  0.13531224612E+01  0.18363627092E+02  0.51100000000E-03 0. -1.
        -11    1    3    3    0    0  0.24103455363E+01  0.63131810536E+01 -0.21204568991E+01  0.70825389756E+01  0.51100000000E-03 0.  1.
         12    1    3    3    0    0  0.95766376647E+01  0.17185470462E+02  0.64248188559E+01  0.20696151364E+02  0.00000000000E+00 0. -1.
</event>
<event>
 7    1  0.3919732E-008  0.4614232E+02  0.7816164E-02  0.1320468E+00
        -11   -1    0    0    0    0  0.00000000000E+00  0.00000000000E+00  0.45593999997E+02  0.45594000000E+02  0.51100000000E-03 0. -1.
         11   -1    0    0    0    0 -0.00000000000E+00 -0.00000000000E+00 -0.45593999997E+02  0.45594000000E+02  0.51100000000E-03 0.  1.
    9900012    2    1    2    0    0 -0.40970507418E+02  0.18566794958E+02 -0.24093521282E+01  0.46142319511E+02  0.10000015954E+02 0.  0.
        -12    1    1    2    0    0  0.40970507418E+02 -0.18566794958E+02  0.24093521282E+01  0.45045680489E+02  0.00000000000E+00 0.  1.
         11    1    3    3    0    0 -0.51022080559E+01  0.62113120842E+01 -0.21596970214E+00  0.80411173370E+01  0.51100000000E-03 0. -1.
        -11    1    3    3    0    0 -0.41128392528E+01  0.12382572342E+01 -0.11201235358E+01  0.44388517314E+01  0.51100000000E-03 0.  1.
        -12    1    3    3    0    0 -0.31755460109E+02  0.11117225639E+02 -0.10732588904E+01  0.33662350442E+02  0.00000000000E+00 0.  1.
</event>
<event>
 7    1  0.3919732E-008  0.4614232E+02  0.7816164E-02  0.1320468E+00
        -11   -1    0    0    0    0  0.00000000000E+00  0.00000000000E+00  0.45593999997E+02  0.45594000000E+02  0.51100000000E-03 0.  1.
         11   -1    0    0    0    0 -0.00000000000E+00 -0.00000000000E+00 -0.45593999997E+02  0.45594000000E+02  0.51100000000E-03 0. -1.
    9900012    2    1    2    0    0 -0.21099609389E+02  0.28825132272E+02 -0.27441424016E+02  0.46142317423E+02  0.99999969125E+01 0.  0.
        -12    1    1    2    0    0  0.21099609389E+02 -0.28825132272E+02  0.27441424016E+02  0.45045682577E+02  0.00000000000E+00 0.  1.
         11    1    3    3    0    0 -0.82898700668E+01  0.78931064001E+01 -0.67889876316E+01  0.13308396887E+02  0.51100000000E-03 0. -1.
        -11    1    3    3    0    0 -0.51390326216E+01  0.48894487771E+01 -0.27697156166E+01  0.76149649039E+01  0.51100000000E-03 0.  1.
         12    1    3    3    0    0 -0.76707067010E+01  0.16042577095E+02 -0.17882720767E+02  0.25218955632E+02  0.00000000000E+00 0. -1.
</event>
<event>
 7    1  0.3919732E-008  0.4614232E+02  0.7816164E-02  0.1320468E+00
        -11   -1    0    0    0    0  0.00000000000E+00  0.00000000000E+00  0.45593999997E+02  0.45594000000E+02  0.51100000000E-03 0.  1.
         11   -1    0    0    0    0 -0.00000000000E+00 -0.00000000000E+00 -0.45593999997E+02  0.45594000000E+02  0.51100000000E-03 0. -1.
    9900012    2    1    2    0    0  0.28332087215E+02 -0.32261905885E+02 -0.13622618413E+02  0.46142317968E+02  0.10000001886E+02 0.  0.
        -12    1    1    2    0    0 -0.28332087215E+02  0.32261905885E+02  0.13622618413E+02  0.45045682032E+02  0.00000000000E+00 0.  1.
         11    1    3    3    0    0  0.92552971012E+01 -0.14631923880E+02 -0.30257368150E+01  0.17575801671E+02  0.51100000000E-03 0. -1.
        -11    1    3    3    0    0  0.14836444546E+01 -0.37068860351E+01 -0.25175447956E+01  0.47201945938E+01  0.51100000000E-03 0.  1.
        -12    1    3    3    0    0  0.17593145659E+02 -0.13923095970E+02 -0.80793368021E+01  0.23846321703E+02  0.00000000000E+00 0.  1.
</event>
<event>
 7    1  0.3919732E-008  0.4614232E+02  0.7816164E-02  0.1320468E+00
        -11   -1    0    0    0    0  0.00000000000E+00  0.00000000000E+00  0.45593999997E+02  0.45594000000E+02  0.51100000000E-03 0.  1.
         11   -1    0    0    0    0 -0.00000000000E+00 -0.00000000000E+00 -0.45593999997E+02  0.45594000000E+02  0.51100000000E-03 0. -1.
    9900012    2    1    2    0    0 -0.12516313701E+02  0.34693316988E+02 -0.25861735155E+02  0.46142315440E+02  0.99999788301E+01 0.  0.
        -12    1    1    2    0    0  0.12516313701E+02 -0.34693316988E+02  0.25861735155E+02  0.45045684560E+02  0.00000000000E+00 0.  1.
         11    1    3    3    0    0 -0.44088079404E+01  0.64421908145E+01 -0.78388019892E+01  0.11062830869E+02  0.51100000000E-03 0. -1.
        -11    1    3    3    0    0 -0.36998517684E+01  0.57570068631E+01 -0.20592930835E+01  0.71465179909E+01  0.51100000000E-03 0.  1.
        -12    1    3    3    0    0 -0.44076539919E+01  0.22494119310E+02 -0.15963640083E+02  0.27932966580E+02  0.00000000000E+00 0.  1.
</event>
<event>
 7    1  0.3919732E-008  0.4614232E+02  0.7816164E-02  0.1320468E+00
        -11   -1    0    0    0    0  0.00000000000E+00  0.00000000000E+00  0.45593999997E+02  0.45594000000E+02  0.51100000000E-03 0.  1.
         11   -1    0    0    0    0 -0.00000000000E+00 -0.00000000000E+00 -0.45593999997E+02  0.45594000000E+02  0.51100000000E-03 0. -1.
    9900012    2    1    2    0    0 -0.15254543555E+02  0.37573408918E+02 -0.19612533833E+02  0.46142316077E+02  0.99999846395E+01 0.  0.
        -12    1    1    2    0    0  0.15254543555E+02 -0.37573408918E+02  0.19612533833E+02  0.45045683923E+02  0.00000000000E+00 0.  1.
         11    1    3    3    0    0 -0.25966128259E+01  0.13500805072E+02 -0.79086814662E+01  0.15860686573E+02  0.51100000000E-03 0. -1.
        -11    1    3    3    0    0 -0.79119351173E+01  0.83481438705E+01 -0.46608322957E+01  0.12410220841E+02  0.51100000000E-03 0.  1.
        -12    1    3    3    0    0 -0.47459956113E+01  0.15724459976E+02 -0.70430200708E+01  0.17871408663E+02  0.00000000000E+00 0.  1.
</event>
<event>
 7    1  0.3919732E-008  0.4614232E+02  0.7816164E-02  0.1320468E+00
        -11   -1    0    0    0    0  0.00000000000E+00  0.00000000000E+00  0.45593999997E+02  0.45594000000E+02  0.51100000000E-03 0. -1.
         11   -1    0    0    0    0 -0.00000000000E+00 -0.00000000000E+00 -0.45593999997E+02  0.45594000000E+02  0.51100000000E-03 0.  1.
    9900012    2    1    2    0    0  0.38142728661E+02  0.22565509105E+02 -0.80649627043E+01  0.46142316807E+02  0.99999912993E+01 0.  0.
        -12    1    1    2    0    0 -0.38142728661E+02 -0.22565509105E+02  0.80649627043E+01  0.45045683193E+02  0.00000000000E+00 0.  1.
         11    1    3    3    0    0  0.20451127814E+02  0.11799034349E+02 -0.12879610204E+01  0.23645817480E+02  0.51100000000E-03 0. -1.
        -11    1    3    3    0    0  0.17982892396E+02  0.10123530611E+02 -0.69395429657E+01  0.21772173704E+02  0.51100000000E-03 0.  1.
         12    1    3    3    0    0 -0.29129154880E+00  0.64294414516E+00  0.16254128179E+00  0.72432562324E+00  0.00000000000E+00 0. -1.
</event>
<event>
 7    1  0.3919732E-008  0.4614232E+02  0.7816164E-02  0.1320468E+00
        -11   -1    0    0    0    0  0.00000000000E+00  0.00000000000E+00  0.45593999997E+02  0.45594000000E+02  0.51100000000E-03 0.  1.
         11   -1    0    0    0    0 -0.00000000000E+00 -0.00000000000E+00 -0.45593999997E+02  0.45594000000E+02  0.51100000000E-03 0. -1.
    9900012    2    1    2    0    0 -0.12257139266E+02  0.39144177929E+02  0.18617447191E+02  0.46142317980E+02  0.10000001996E+02 0.  0.
        -12    1    1    2    0    0  0.12257139266E+02 -0.39144177929E+02 -0.18617447191E+02  0.45045682020E+02  0.00000000000E+00 0.  1.
         11    1    3    3    0    0 -0.44465291408E+01  0.16550141104E+02  0.91569116703E+01  0.19430075233E+02  0.51100000000E-03 0. -1.
        -11    1    3    3    0    0 -0.67048887714E+01  0.18929630681E+02  0.47379828617E+01  0.20633345172E+02  0.51100000000E-03 0.  1.
        -12    1    3    3    0    0 -0.11057213537E+01  0.36644061445E+01  0.47225526593E+01  0.60788975747E+01  0.00000000000E+00 0.  1.
</event>
<event>
 7    1  0.3919732E-008  0.4614232E+02  0.7816164E-02  0.1320468E+00
        -11   -1    0    0    0    0  0.00000000000E+00  0.00000000000E+00  0.45593999997E+02  0.45594000000E+02  0.51100000000E-03 0.  1.
         11   -1    0    0    0    0 -0.00000000000E+00 -0.00000000000E+00 -0.45593999997E+02  0.45594000000E+02  0.51100000000E-03 0. -1.
    9900012    2    1    2    0    0 -0.22191726004E+02  0.15993808300E+02 -0.35788807219E+02  0.46142319529E+02  0.10000016121E+02 0.  0.
        -12    1    1    2    0    0  0.22191726004E+02 -0.15993808300E+02  0.35788807219E+02  0.45045680471E+02  0.00000000000E+00 0.  1.
         11    1    3    3    0    0 -0.89116934497E+01  0.70739064104E+01 -0.18753543128E+02  0.21935218535E+02  0.51100000000E-03 0. -1.
        -11    1    3    3    0    0 -0.62428186705E+01  0.72383664818E+01 -0.12226679446E+02  0.15519614197E+02  0.51100000000E-03 0.  1.
         12    1    3    3    0    0 -0.70372138838E+01  0.16815354074E+01 -0.48085846445E+01  0.86874867974E+01  0.00000000000E+00 0. -1.
</event>
<event>
 7    1  0.3919732E-008  0.4614232E+02  0.7816164E-02  0.1320468E+00
        -11   -1    0    0    0    0  0.00000000000E+00  0.00000000000E+00  0.45593999997E+02  0.45594000000E+02  0.51100000000E-03 0.  1.
         11   -1    0    0    0    0 -0.00000000000E+00 -0.00000000000E+00 -0.45593999997E+02  0.45594000000E+02  0.51100000000E-03 0. -1.
    9900012    2    1    2    0    0  0.35427448315E+02 -0.28980649490E+01 -0.27669669871E+02  0.46142317573E+02  0.99999982853E+01 0.  0.
        -12    1    1    2    0    0 -0.35427448315E+02  0.28980649490E+01  0.27669669871E+02  0.45045682427E+02  0.00000000000E+00 0.  1.
         11    1    3    3    0    0  0.22280779336E+01 -0.32510504282E+00 -0.49212820795E+00  0.23048242886E+01  0.51100000000E-03 0.  1.
        -11    1    3    3    0    0  0.88773538564E+01 -0.37067608880E+01 -0.47284625333E+01  0.10719414441E+02  0.51100000000E-03 0. -1.
         12    1    3    3    0    0  0.24322016525E+02  0.11338009818E+01 -0.22449079130E+02  0.33118078843E+02  0.00000000000E+00 0. -1.
</event>
<event>
 7    1  0.3919732E-008  0.4614232E+02  0.7816164E-02  0.1320468E+00
        -11   -1    0    0    0    0  0.00000000000E+00  0.00000000000E+00  0.45593999997E+02  0.45594000000E+02  0.51100000000E-03 0.  1.
         11   -1    0    0    0    0 -0.00000000000E+00 -0.00000000000E+00 -0.45593999997E+02  0.45594000000E+02  0.51100000000E-03 0. -1.
    9900012    2    1    2    0    0 -0.79197950069E+01  0.36437431374E+02 -0.25272595088E+02  0.46142316294E+02  0.99999866217E+01 0.  0.
        -12    1    1    2    0    0  0.79197950069E+01 -0.36437431374E+02  0.25272595088E+02  0.45045683706E+02  0.00000000000E+00 0.  1.
         11    1    3    3    0    0 -0.15476618266E+01  0.30385574641E+01 -0.32922245480E+01  0.47399189157E+01  0.51100000000E-03 0. -1.
        -11    1    3    3    0    0 -0.23719548300E+01  0.13250926169E+02 -0.38419898798E+01  0.13999074989E+02  0.51100000000E-03 0.  1.
        -12    1    3    3    0    0 -0.40001783504E+01  0.20147947740E+02 -0.18138380660E+02  0.27403322389E+02  0.00000000000E+00 0.  1.
</event>
<event>
 7    1  0.3919732E-008  0.4614232E+02  0.7816164E-02  0.1320468E+00
        -11   -1    0    0    0    0  0.00000000000E+00  0.00000000000E+00  0.45593999997E+02  0.45594000000E+02  0.51100000000E-03 0.  1.
         11   -1    0    0    0    0 -0.00000000000E+00 -0.00000000000E+00 -0.45593999997E+02  0.45594000000E+02  0.51100000000E-03 0. -1.
    9900012    2    1    2    0    0 -0.37319891724E+02 -0.18683499110E+02 -0.16948926340E+02  0.46142316951E+02  0.99999926090E+01 0.  0.
        -12    1    1    2    0    0  0.37319891724E+02  0.18683499110E+02  0.16948926340E+02  0.45045683049E+02  0.00000000000E+00 0.  1.
         11    1    3    3    0    0 -0.10113230578E+02 -0.38343409698E+01 -0.15226737963E+00  0.10816782748E+02  0.51100000000E-03 0. -1.
        -11    1    3    3    0    0 -0.38212896073E+01 -0.29682392619E+01 -0.23328155375E+01  0.53716596292E+01  0.51100000000E-03 0.  1.
         12    1    3    3    0    0 -0.23385371539E+02 -0.11880918879E+02 -0.14463843423E+02  0.29953874574E+02  0.00000000000E+00 0. -1.
</event>
<event>
 7    1  0.3919732E-008  0.4614232E+02  0.7816164E-02  0.1320468E+00
        -11   -1    0    0    0    0  0.00000000000E+00  0.00000000000E+00  0.45593999997E+02  0.45594000000E+02  0.51100000000E-03 0.  1.
         11   -1    0    0    0    0 -0.00000000000E+00 -0.00000000000E+00 -0.45593999997E+02  0.45594000000E+02  0.51100000000E-03 0. -1.
    9900012    2    1    2    0    0  0.14419963487E+02 -0.98883598469E+01 -0.41513835935E+02  0.46142316728E+02  0.99999905760E+01 0.  0.
        -12    1    1    2    0    0 -0.14419963487E+02  0.98883598469E+01  0.41513835935E+02  0.45045683272E+02  0.00000000000E+00 0.  1.
         11    1    3    3    0    0 -0.10981270894E+00 -0.14352541738E+01 -0.53190163585E+01  0.55103492319E+01  0.51100000000E-03 0.  1.
        -11    1    3    3    0    0  0.12267892041E+02 -0.98707281770E+01 -0.31914669888E+02  0.35587618692E+02  0.51100000000E-03 0. -1.
        -12    1    3    3    0    0  0.22618841542E+01  0.14176225039E+01 -0.42801496887E+01  0.50443488032E+01  0.00000000000E+00 0.  1.
</event>
<event>
 7    1  0.3919732E-008  0.4614232E+02  0.7816164E-02  0.1320468E+00
        -11   -1    0    0    0    0  0.00000000000E+00  0.00000000000E+00  0.45593999997E+02  0.45594000000E+02  0.51100000000E-03 0.  1.
         11   -1    0    0    0    0 -0.00000000000E+00 -0.00000000000E+00 -0.45593999997E+02  0.45594000000E+02  0.51100000000E-03 0. -1.
    9900012    2    1    2    0    0 -0.30931083892E+02  0.70488840407E+01 -0.31979599758E+02  0.46142317437E+02  0.99999970434E+01 0.  0.
        -12    1    1    2    0    0  0.30931083892E+02 -0.70488840407E+01  0.31979599758E+02  0.45045682563E+02  0.00000000000E+00 0.  1.
         11    1    3    3    0    0 -0.19892990345E+02  0.82027806815E+01 -0.23568302077E+02  0.31913657559E+02  0.51100000000E-03 0. -1.
        -11    1    3    3    0    0 -0.10017664231E+02 -0.62142203424E+00 -0.63773113919E+01  0.11891587902E+02  0.51100000000E-03 0.  1.
        -12    1    3    3    0    0 -0.10204293165E+01 -0.53247460657E+00 -0.20339862891E+01  0.23370719760E+01  0.00000000000E+00 0.  1.
</event>
<event>
 7    1  0.3919732E-008  0.4614232E+02  0.7816164E-02  0.1320468E+00
        -11   -1    0    0    0    0  0.00000000000E+00  0.00000000000E+00  0.45593999997E+02  0.45594000000E+02  0.51100000000E-03 0.  1.
         11   -1    0    0    0    0 -0.00000000000E+00 -0.00000000000E+00 -0.45593999997E+02  0.45594000000E+02  0.51100000000E-03 0. -1.
    9900012    2    1    2    0    0  0.20797273526E+02  0.10466922795E+02 -0.38562033344E+02  0.46142317915E+02  0.10000001400E+02 0.  0.
        -12    1    1    2    0    0 -0.20797273526E+02 -0.10466922795E+02  0.38562033344E+02  0.45045682085E+02  0.00000000000E+00 0.  1.
         11    1    3    3    0    0  0.42139643021E+01  0.28904704504E+01 -0.11538509576E+02  0.12619410369E+02  0.51100000000E-03 0. -1.
        -11    1    3    3    0    0  0.50877390712E+01 -0.10118107097E+01 -0.99430479253E+01  0.11214858540E+02  0.51100000000E-03 0.  1.
        -12    1    3    3    0    0  0.11495570152E+02  0.85882630540E+01 -0.17080475843E+02  0.22308049005E+02  0.00000000000E+00 0.  1.
</event>
<event>
 7    1  0.3919732E-008  0.4614232E+02  0.7816164E-02  0.1320468E+00
        -11   -1    0    0    0    0  0.00000000000E+00  0.00000000000E+00  0.45593999997E+02  0.45594000000E+02  0.51100000000E-03 0. -1.
         11   -1    0    0    0    0 -0.00000000000E+00 -0.00000000000E+00 -0.45593999997E+02  0.45594000000E+02  0.51100000000E-03 0.  1.
    9900012    2    1    2    0    0 -0.12911701228E+02 -0.17422507333E+02  0.39482372305E+02  0.46142317486E+02  0.99999974870E+01 0.  0.
        -12    1    1    2    0    0  0.12911701228E+02  0.17422507333E+02 -0.39482372305E+02  0.45045682514E+02  0.00000000000E+00 0.  1.
         11    1    3    3    0    0 -0.75737483828E+01 -0.12531812460E+02  0.20462619595E+02  0.25162010831E+02  0.51100000000E-03 0. -1.
        -11    1    3    3    0    0 -0.33645794450E+01 -0.54431297218E+01  0.16705569837E+02  0.17889217977E+02  0.51100000000E-03 0.  1.
         12    1    3    3    0    0 -0.19733734003E+01  0.55243484926E+00  0.23141828730E+01  0.30910886770E+01  0.00000000000E+00 0. -1.
</event>
<event>
 7    1  0.3919732E-008  0.4614232E+02  0.7816164E-02  0.1320468E+00
        -11   -1    0    0    0    0  0.00000000000E+00  0.00000000000E+00  0.45593999997E+02  0.45594000000E+02  0.51100000000E-03 0.  1.
         11   -1    0    0    0    0 -0.00000000000E+00 -0.00000000000E+00 -0.45593999997E+02  0.45594000000E+02  0.51100000000E-03 0. -1.
    9900012    2    1    2    0    0 -0.34255328121E+02  0.21400458374E+02  0.19942575740E+02  0.46142318182E+02  0.10000003840E+02 0.  0.
        -12    1    1    2    0    0  0.34255328121E+02 -0.21400458374E+02 -0.19942575740E+02  0.45045681818E+02  0.00000000000E+00 0.  1.
         11    1    3    3    0    0 -0.83600439286E+01  0.71090956510E+01  0.52964778584E+01  0.12185329435E+02  0.51100000000E-03 0.  1.
        -11    1    3    3    0    0 -0.16887386575E+02  0.13321277022E+02  0.11317845511E+02  0.24305017467E+02  0.51100000000E-03 0. -1.
        -12    1    3    3    0    0 -0.90078976175E+01  0.97008570129E+00  0.33282523703E+01  0.96519712803E+01  0.00000000000E+00 0.  1.
</event>
<event>
 7    1  0.3919732E-008  0.4614232E+02  0.7816164E-02  0.1320468E+00
        -11   -1    0    0    0    0  0.00000000000E+00  0.00000000000E+00  0.45593999997E+02  0.45594000000E+02  0.51100000000E-03 0. -1.
         11   -1    0    0    0    0 -0.00000000000E+00 -0.00000000000E+00 -0.45593999997E+02  0.45594000000E+02  0.51100000000E-03 0.  1.
    9900012    2    1    2    0    0  0.73430457037E+01 -0.35383862417E+02  0.26891919781E+02  0.46142318861E+02  0.10000010033E+02 0.  0.
        -12    1    1    2    0    0 -0.73430457037E+01  0.35383862417E+02 -0.26891919781E+02  0.45045681139E+02  0.00000000000E+00 0.  1.
         11    1    3    3    0    0  0.73836732747E+01 -0.31552146100E+02  0.26426662752E+02  0.41814172944E+02  0.51100000000E-03 0. -1.
        -11    1    3    3    0    0  0.66611009050E+00 -0.16969444982E+01 -0.48574404820E+00  0.18866029853E+01  0.51100000000E-03 0.  1.
         12    1    3    3    0    0 -0.70673766154E+00 -0.21347718180E+01  0.95100107767E+00  0.24415429316E+01  0.00000000000E+00 0. -1.
</event>
<event>
 7    1  0.3919732E-008  0.4614232E+02  0.7816164E-02  0.1320468E+00
        -11   -1    0    0    0    0  0.00000000000E+00  0.00000000000E+00  0.45593999997E+02  0.45594000000E+02  0.51100000000E-03 0.  1.
         11   -1    0    0    0    0 -0.00000000000E+00 -0.00000000000E+00 -0.45593999997E+02  0.45594000000E+02  0.51100000000E-03 0. -1.
    9900012    2    1    2    0    0 -0.20433058740E+02 -0.50782520843E+01 -0.39822292630E+02  0.46142317365E+02  0.99999963920E+01 0.  0.
        -12    1    1    2    0    0  0.20433058740E+02  0.50782520843E+01  0.39822292630E+02  0.45045682635E+02  0.00000000000E+00 0.  1.
         11    1    3    3    0    0 -0.68911884114E+01 -0.26054105620E+01 -0.89205446629E+01  0.11569475324E+02  0.51100000000E-03 0. -1.
        -11    1    3    3    0    0 -0.10919181868E+02  0.57807760548E+00 -0.26166124522E+02  0.28358927680E+02  0.51100000000E-03 0.  1.
        -12    1    3    3    0    0 -0.26226884603E+01 -0.30509191278E+01 -0.47356234448E+01  0.62139143618E+01  0.00000000000E+00 0.  1.
</event>
<event>
 7    1  0.3919732E-008  0.4614232E+02  0.7816164E-02  0.1320468E+00
        -11   -1    0    0    0    0  0.00000000000E+00  0.00000000000E+00  0.45593999997E+02  0.45594000000E+02  0.51100000000E-03 0.  1.
         11   -1    0    0    0    0 -0.00000000000E+00 -0.00000000000E+00 -0.45593999997E+02  0.45594000000E+02  0.51100000000E-03 0. -1.
    9900012    2    1    2    0    0 -0.24891065905E+02  0.37228385340E+02  0.48575399904E+01  0.46142317280E+02  0.99999956173E+01 0.  0.
        -12    1    1    2    0    0  0.24891065905E+02 -0.37228385340E+02 -0.48575399904E+01  0.45045682720E+02  0.00000000000E+00 0.  1.
         11    1    3    3    0    0 -0.94764631230E+01  0.13447056283E+02  0.42373717907E+01  0.16987701315E+02  0.51100000000E-03 0. -1.
        -11    1    3    3    0    0 -0.66448329820E+01  0.16231276963E+02 -0.34732710505E+00  0.17542200363E+02  0.51100000000E-03 0.  1.
         12    1    3    3    0    0 -0.87697697995E+01  0.75500520943E+01  0.96749530475E+00  0.11612415603E+02  0.00000000000E+00 0. -1.
</event>
<event>
 7    1  0.3919732E-008  0.4614232E+02  0.7816164E-02  0.1320468E+00
        -11   -1    0    0    0    0  0.00000000000E+00  0.00000000000E+00  0.45593999997E+02  0.45594000000E+02  0.51100000000E-03 0.  1.
         11   -1    0    0    0    0 -0.00000000000E+00 -0.00000000000E+00 -0.45593999997E+02  0.45594000000E+02  0.51100000000E-03 0. -1.
    9900012    2    1    2    0    0 -0.54452240794E+01  0.29445258520E+02 -0.33651742244E+02  0.46142317958E+02  0.10000001793E+02 0.  0.
        -12    1    1    2    0    0  0.54452240794E+01 -0.29445258520E+02  0.33651742244E+02  0.45045682042E+02  0.00000000000E+00 0.  1.
         11    1    3    3    0    0 -0.60914804452E+00  0.10576463624E+02 -0.14126547170E+02  0.17657632325E+02  0.51100000000E-03 0. -1.
        -11    1    3    3    0    0 -0.25798803824E+01  0.68191905796E+01 -0.12174734089E+02  0.14190887687E+02  0.51100000000E-03 0.  1.
        -12    1    3    3    0    0 -0.22561956525E+01  0.12049604317E+02 -0.73504609852E+01  0.14293797945E+02  0.00000000000E+00 0.  1.
</event>
<event>
 7    1  0.3919732E-008  0.4614232E+02  0.7816164E-02  0.1320468E+00
        -11   -1    0    0    0    0  0.00000000000E+00  0.00000000000E+00  0.45593999997E+02  0.45594000000E+02  0.51100000000E-03 0.  1.
         11   -1    0    0    0    0 -0.00000000000E+00 -0.00000000000E+00 -0.45593999997E+02  0.45594000000E+02  0.51100000000E-03 0. -1.
    9900012    2    1    2    0    0  0.99028157176E+01  0.41488522516E+02 -0.14482752273E+02  0.46142319041E+02  0.10000011670E+02 0.  0.
        -12    1    1    2    0    0 -0.99028157176E+01 -0.41488522516E+02  0.14482752273E+02  0.45045680959E+02  0.00000000000E+00 0.  1.
         11    1    3    3    0    0  0.99760683987E+01  0.32786844320E+02 -0.10531719060E+02  0.35852701541E+02  0.51100000000E-03 0. -1.
        -11    1    3    3    0    0  0.10554983501E+01  0.52334578666E+00 -0.92058763771E+00  0.14951419462E+01  0.51100000000E-03 0.  1.
         12    1    3    3    0    0 -0.11287510313E+01  0.81783324092E+01 -0.30304455753E+01  0.87944755540E+01  0.00000000000E+00 0. -1.
</event>
<event>
 7    1  0.3919732E-008  0.4614232E+02  0.7816164E-02  0.1320468E+00
        -11   -1    0    0    0    0  0.00000000000E+00  0.00000000000E+00  0.45593999997E+02  0.45594000000E+02  0.51100000000E-03 0.  1.
         11   -1    0    0    0    0 -0.00000000000E+00 -0.00000000000E+00 -0.45593999997E+02  0.45594000000E+02  0.51100000000E-03 0. -1.
    9900012    2    1    2    0    0  0.22281471530E+02  0.32904698081E+02 -0.21211559857E+02  0.46142318732E+02  0.10000008855E+02 0.  0.
        -12    1    1    2    0    0 -0.22281471530E+02 -0.32904698081E+02  0.21211559857E+02  0.45045681268E+02  0.00000000000E+00 0.  1.
         11    1    3    3    0    0  0.23420829948E+01  0.39291000359E+01 -0.11965530437E-01  0.45742019284E+01  0.51100000000E-03 0. -1.
        -11    1    3    3    0    0  0.42799179301E+01  0.23938529925E+01 -0.28230883906E+01  0.56584501377E+01  0.51100000000E-03 0.  1.
        -12    1    3    3    0    0  0.15659470605E+02  0.26581745053E+02 -0.18376505936E+02  0.35909666666E+02  0.00000000000E+00 0.  1.
</event>
<event>
 7    1  0.3919732E-008  0.4614232E+02  0.7816164E-02  0.1320468E+00
        -11   -1    0    0    0    0  0.00000000000E+00  0.00000000000E+00  0.45593999997E+02  0.45594000000E+02  0.51100000000E-03 0.  1.
         11   -1    0    0    0    0 -0.00000000000E+00 -0.00000000000E+00 -0.45593999997E+02  0.45594000000E+02  0.51100000000E-03 0. -1.
    9900012    2    1    2    0    0 -0.34009514597E+02  0.27282505181E+02 -0.11319500360E+02  0.46142320291E+02  0.10000023069E+02 0.  0.
        -12    1    1    2    0    0  0.34009514597E+02 -0.27282505181E+02  0.11319500360E+02  0.45045679709E+02  0.00000000000E+00 0.  1.
         11    1    3    3    0    0 -0.13065798672E+02  0.11399829426E+02 -0.56584310486E+01  0.18239765571E+02  0.51100000000E-03 0. -1.
        -11    1    3    3    0    0 -0.25245449684E+01 -0.40801170110E+00 -0.14956614193E+01  0.29625671618E+01  0.51100000000E-03 0.  1.
         12    1    3    3    0    0 -0.18419170956E+02  0.16290687456E+02 -0.41654078921E+01  0.24939987559E+02  0.00000000000E+00 0. -1.
</event>
<event>
 7    1  0.3919732E-008  0.4614232E+02  0.7816164E-02  0.1320468E+00
        -11   -1    0    0    0    0  0.00000000000E+00  0.00000000000E+00  0.45593999997E+02  0.45594000000E+02  0.51100000000E-03 0.  1.
         11   -1    0    0    0    0 -0.00000000000E+00 -0.00000000000E+00 -0.45593999997E+02  0.45594000000E+02  0.51100000000E-03 0. -1.
    9900012    2    1    2    0    0 -0.31216329926E+02  0.23828631184E+02 -0.22064690692E+02  0.46142317705E+02  0.99999994870E+01 0.  0.
        -12    1    1    2    0    0  0.31216329926E+02 -0.23828631184E+02  0.22064690692E+02  0.45045682295E+02  0.00000000000E+00 0.  1.
         11    1    3    3    0    0 -0.27157074201E+02  0.17356369869E+02 -0.18488938454E+02  0.37156306324E+02  0.51100000000E-03 0. -1.
        -11    1    3    3    0    0 -0.31299414591E+01  0.21232367969E+01 -0.19100711709E+01  0.42371028041E+01  0.51100000000E-03 0.  1.
        -12    1    3    3    0    0 -0.92931426554E+00  0.43490245175E+01 -0.16656810667E+01  0.47489085771E+01  0.00000000000E+00 0.  1.
</event>
<event>
 7    1  0.3919732E-008  0.4614232E+02  0.7816164E-02  0.1320468E+00
        -11   -1    0    0    0    0  0.00000000000E+00  0.00000000000E+00  0.45593999997E+02  0.45594000000E+02  0.51100000000E-03 0. -1.
         11   -1    0    0    0    0 -0.00000000000E+00 -0.00000000000E+00 -0.45593999997E+02  0.45594000000E+02  0.51100000000E-03 0.  1.
    9900012    2    1    2    0    0  0.12253437593E+02  0.29596705094E+01  0.43245891215E+02  0.46142317750E+02  0.99999999001E+01 0.  0.
        -12    1    1    2    0    0 -0.12253437593E+02 -0.29596705094E+01 -0.43245891215E+02  0.45045682250E+02  0.00000000000E+00 0.  1.
         11    1    3    3    0    0  0.57935581959E+01  0.27637782444E+01  0.25810067915E+02  0.26596304119E+02  0.51100000000E-03 0. -1.
        -11    1    3    3    0    0  0.64818983730E+01 -0.18869341719E+01  0.13350970001E+02  0.14960746215E+02  0.51100000000E-03 0.  1.
         12    1    3    3    0    0 -0.22018975773E-01  0.20828264369E+01  0.40848532999E+01  0.45852674167E+01  0.00000000000E+00 0. -1.
</event>
<event>
 7    1  0.3919732E-008  0.4614232E+02  0.7816164E-02  0.1320468E+00
        -11   -1    0    0    0    0  0.00000000000E+00  0.00000000000E+00  0.45593999997E+02  0.45594000000E+02  0.51100000000E-03 0.  1.
         11   -1    0    0    0    0 -0.00000000000E+00 -0.00000000000E+00 -0.45593999997E+02  0.45594000000E+02  0.51100000000E-03 0. -1.
    9900012    2    1    2    0    0 -0.31195466447E+02  0.18637405435E+02 -0.26619606593E+02  0.46142318038E+02  0.10000002524E+02 0.  0.
        -12    1    1    2    0    0  0.31195466447E+02 -0.18637405435E+02  0.26619606593E+02  0.45045681962E+02  0.00000000000E+00 0.  1.
         11    1    3    3    0    0 -0.12125590946E+02  0.84228953320E+01 -0.81377551168E+01  0.16858178436E+02  0.51100000000E-03 0. -1.
        -11    1    3    3    0    0 -0.15598072016E+02  0.95797634985E+01 -0.11951723257E+02  0.21861276458E+02  0.51100000000E-03 0.  1.
         12    1    3    3    0    0 -0.34718034850E+01  0.63474660500E+00 -0.65301282192E+01  0.74228631437E+01  0.00000000000E+00 0. -1.
</event>
<event>
 7    1  0.3919732E-008  0.4614232E+02  0.7816164E-02  0.1320468E+00
        -11   -1    0    0    0    0  0.00000000000E+00  0.00000000000E+00  0.45593999997E+02  0.45594000000E+02  0.51100000000E-03 0.  1.
         11   -1    0    0    0    0 -0.00000000000E+00 -0.00000000000E+00 -0.45593999997E+02  0.45594000000E+02  0.51100000000E-03 0. -1.
    9900012    2    1    2    0    0 -0.26001912644E+02 -0.23365890297E+01 -0.36709051053E+02  0.46142317203E+02  0.99999949092E+01 0.  0.
        -12    1    1    2    0    0  0.26001912644E+02  0.23365890297E+01  0.36709051053E+02  0.45045682797E+02  0.00000000000E+00 0.  1.
         11    1    3    3    0    0 -0.30103697181E+01  0.19316105760E+01 -0.66122020681E+01  0.75176234082E+01  0.51100000000E-03 0. -1.
        -11    1    3    3    0    0 -0.60449002256E+01 -0.23928539067E+01 -0.46467889429E+01  0.79911961744E+01  0.51100000000E-03 0.  1.
        -12    1    3    3    0    0 -0.16946642701E+02 -0.18753456990E+01 -0.25450060042E+02  0.30633497620E+02  0.00000000000E+00 0.  1.
</event>
<event>
 7    1  0.3919732E-008  0.4614231E+02  0.7816164E-02  0.1320468E+00
        -11   -1    0    0    0    0  0.00000000000E+00  0.00000000000E+00  0.45593999997E+02  0.45594000000E+02  0.51100000000E-03 0. -1.
         11   -1    0    0    0    0 -0.00000000000E+00 -0.00000000000E+00 -0.45593999997E+02  0.45594000000E+02  0.51100000000E-03 0.  1.
    9900012    2    1    2    0    0 -0.31063986276E+02  0.11132353425E+02  0.30662899407E+02  0.46142312790E+02  0.99999546693E+01 0.  0.
        -12    1    1    2    0    0  0.31063986276E+02 -0.11132353425E+02 -0.30662899407E+02  0.45045687210E+02  0.00000000000E+00 0.  1.
         11    1    3    3    0    0 -0.37291513732E+01 -0.68865754219E+00  0.15106551625E+01  0.40820213689E+01  0.51100000000E-03 0.  1.
        -11    1    3    3    0    0 -0.31538551041E+01  0.29215798217E+01  0.62550420084E+01  0.75899921910E+01  0.51100000000E-03 0. -1.
         12    1    3    3    0    0 -0.24180979799E+02  0.88994311459E+01  0.22897202236E+02  0.34470299230E+02  0.00000000000E+00 0. -1.
</event>
<event>
 7    1  0.3919732E-008  0.4614232E+02  0.7816164E-02  0.1320468E+00
        -11   -1    0    0    0    0  0.00000000000E+00  0.00000000000E+00  0.45593999997E+02  0.45594000000E+02  0.51100000000E-03 0.  1.
         11   -1    0    0    0    0 -0.00000000000E+00 -0.00000000000E+00 -0.45593999997E+02  0.45594000000E+02  0.51100000000E-03 0. -1.
    9900012    2    1    2    0    0  0.22708709810E+02 -0.90474711071E+01 -0.37836106578E+02  0.46142321010E+02  0.10000029628E+02 0.  0.
        -12    1    1    2    0    0 -0.22708709810E+02  0.90474711071E+01  0.37836106578E+02  0.45045678990E+02  0.00000000000E+00 0.  1.
         11    1    3    3    0    0  0.42209491940E+01  0.53495188339E-01 -0.13551355606E+02  0.14193608169E+02  0.51100000000E-03 0. -1.
        -11    1    3    3    0    0  0.58025718460E+00 -0.29535132275E+00 -0.16476781380E+01  0.17716586330E+01  0.51100000000E-03 0.  1.
         12    1    3    3    0    0  0.17907503432E+02 -0.88056149727E+01 -0.22637072834E+02  0.30177054208E+02  0.00000000000E+00 0. -1.
</event>
<event>
 7    1  0.3919732E-008  0.4614232E+02  0.7816164E-02  0.1320468E+00
        -11   -1    0    0    0    0  0.00000000000E+00  0.00000000000E+00  0.45593999997E+02  0.45594000000E+02  0.51100000000E-03 0. -1.
         11   -1    0    0    0    0 -0.00000000000E+00 -0.00000000000E+00 -0.45593999997E+02  0.45594000000E+02  0.51100000000E-03 0.  1.
    9900012    2    1    2    0    0  0.19122636419E+02  0.40766464636E+02 -0.12384133392E+01  0.46142317298E+02  0.99999957753E+01 0.  0.
        -12    1    1    2    0    0 -0.19122636419E+02 -0.40766464636E+02  0.12384133392E+01  0.45045682702E+02  0.00000000000E+00 0.  1.
         11    1    3    3    0    0  0.53691721825E+01  0.78204584016E+01  0.24276602658E+00  0.94892842270E+01  0.51100000000E-03 0. -1.
        -11    1    3    3    0    0  0.62632362974E+01  0.22068774311E+02 -0.37741629907E+01  0.23248725450E+02  0.51100000000E-03 0.  1.
        -12    1    3    3    0    0  0.74902279391E+01  0.10877231923E+02  0.22929836249E+01  0.13404307621E+02  0.00000000000E+00 0.  1.
</event>
<event>
 7    1  0.3919732E-008  0.4614232E+02  0.7816164E-02  0.1320468E+00
        -11   -1    0    0    0    0  0.00000000000E+00  0.00000000000E+00  0.45593999997E+02  0.45594000000E+02  0.51100000000E-03 0. -1.
         11   -1    0    0    0    0 -0.00000000000E+00 -0.00000000000E+00 -0.45593999997E+02  0.45594000000E+02  0.51100000000E-03 0.  1.
    9900012    2    1    2    0    0  0.14059374570E+01 -0.37218502145E+02  0.25336137678E+02  0.46142318359E+02  0.10000005453E+02 0.  0.
        -12    1    1    2    0    0 -0.14059374570E+01  0.37218502145E+02 -0.25336137678E+02  0.45045681641E+02  0.00000000000E+00 0.  1.
         11    1    3    3    0    0 -0.23485142040E+01 -0.23201305926E+01  0.10736914593E+01  0.34715037871E+01  0.51100000000E-03 0. -1.
        -11    1    3    3    0    0  0.34318731444E+00 -0.40800194935E+01  0.29194386414E+01  0.50286637233E+01  0.51100000000E-03 0.  1.
         12    1    3    3    0    0  0.34112643466E+01 -0.30818352059E+02  0.21343007578E+02  0.37642150849E+02  0.00000000000E+00 0. -1.
</event>
<event>
 7    1  0.3919732E-008  0.4614232E+02  0.7816164E-02  0.1320468E+00
        -11   -1    0    0    0    0  0.00000000000E+00  0.00000000000E+00  0.45593999997E+02  0.45594000000E+02  0.51100000000E-03 0.  1.
         11   -1    0    0    0    0 -0.00000000000E+00 -0.00000000000E+00 -0.45593999997E+02  0.45594000000E+02  0.51100000000E-03 0. -1.
    9900012    2    1    2    0    0  0.43080856827E+02 -0.58998864797E+01 -0.11761998939E+02  0.46142317583E+02  0.99999983720E+01 0.  0.
        -12    1    1    2    0    0 -0.43080856827E+02  0.58998864797E+01  0.11761998939E+02  0.45045682417E+02  0.00000000000E+00 0.  1.
         11    1    3    3    0    0  0.19355342366E+02 -0.54116560628E+01 -0.85595947058E+01  0.21844494987E+02  0.51100000000E-03 0. -1.
        -11    1    3    3    0    0 -0.94017533311E-01  0.38889166848E-01  0.20613285122E+00  0.22987535175E+00  0.51100000000E-03 0.  1.
        -12    1    3    3    0    0  0.23819531994E+02 -0.52711958377E+00 -0.34085370845E+01  0.24067947244E+02  0.00000000000E+00 0.  1.
</event>
<event>
 7    1  0.3919732E-008  0.4614232E+02  0.7816164E-02  0.1320468E+00
        -11   -1    0    0    0    0  0.00000000000E+00  0.00000000000E+00  0.45593999997E+02  0.45594000000E+02  0.51100000000E-03 0.  1.
         11   -1    0    0    0    0 -0.00000000000E+00 -0.00000000000E+00 -0.45593999997E+02  0.45594000000E+02  0.51100000000E-03 0. -1.
    9900012    2    1    2    0    0  0.13073408282E+01  0.16589801414E+02 -0.41859083278E+02  0.46142317590E+02  0.99999984362E+01 0.  0.
        -12    1    1    2    0    0 -0.13073408282E+01 -0.16589801414E+02  0.41859083278E+02  0.45045682410E+02  0.00000000000E+00 0.  1.
         11    1    3    3    0    0 -0.24939636252E+01  0.79180813552E+01 -0.24127982196E+02  0.25516179024E+02  0.51100000000E-03 0. -1.
        -11    1    3    3    0    0  0.25808990981E+01  0.37588533472E+01 -0.42786152768E+01  0.62527248131E+01  0.51100000000E-03 0.  1.
        -12    1    3    3    0    0  0.12204053553E+01  0.49128667111E+01 -0.13452485805E+02  0.14373413752E+02  0.00000000000E+00 0.  1.
</event>
<event>
 7    1  0.3919732E-008  0.4614232E+02  0.7816164E-02  0.1320468E+00
        -11   -1    0    0    0    0  0.00000000000E+00  0.00000000000E+00  0.45593999997E+02  0.45594000000E+02  0.51100000000E-03 0.  1.
         11   -1    0    0    0    0 -0.00000000000E+00 -0.00000000000E+00 -0.45593999997E+02  0.45594000000E+02  0.51100000000E-03 0. -1.
    9900012    2    1    2    0    0  0.22505676623E+02 -0.33756689159E+01 -0.38874321450E+02  0.46142317753E+02  0.99999999275E+01 0.  0.
        -12    1    1    2    0    0 -0.22505676623E+02  0.33756689159E+01  0.38874321450E+02  0.45045682247E+02  0.00000000000E+00 0.  1.
         11    1    3    3    0    0  0.72132578818E+01 -0.12000111220E+00 -0.70677879753E+01  0.10099461206E+02  0.51100000000E-03 0. -1.
        -11    1    3    3    0    0  0.10115285004E+02  0.20138087742E+00 -0.14755052579E+02  0.17890531625E+02  0.51100000000E-03 0.  1.
         12    1    3    3    0    0  0.51771337376E+01 -0.34570486811E+01 -0.17051480895E+02  0.18152324921E+02  0.00000000000E+00 0. -1.
</event>
<event>
 7    1  0.3919732E-008  0.4614232E+02  0.7816164E-02  0.1320468E+00
        -11   -1    0    0    0    0  0.00000000000E+00  0.00000000000E+00  0.45593999997E+02  0.45594000000E+02  0.51100000000E-03 0.  1.
         11   -1    0    0    0    0 -0.00000000000E+00 -0.00000000000E+00 -0.45593999997E+02  0.45594000000E+02  0.51100000000E-03 0. -1.
    9900012    2    1    2    0    0 -0.22450581074E+02 -0.88731519143E+01 -0.38030935768E+02  0.46142317733E+02  0.99999997472E+01 0.  0.
        -12    1    1    2    0    0  0.22450581074E+02  0.88731519143E+01  0.38030935768E+02  0.45045682267E+02  0.00000000000E+00 0.  1.
         11    1    3    3    0    0 -0.14912435404E+02 -0.48913070304E+01 -0.22474185628E+02  0.27411578467E+02  0.51100000000E-03 0. -1.
        -11    1    3    3    0    0 -0.54588234861E+01  0.22779561803E+00 -0.10460270980E+02  0.11801182734E+02  0.51100000000E-03 0.  1.
        -12    1    3    3    0    0 -0.20793221841E+01 -0.42096405020E+01 -0.50964791603E+01  0.69295565322E+01  0.00000000000E+00 0.  1.
</event>
<event>
 7    1  0.3919732E-008  0.4614232E+02  0.7816164E-02  0.1320468E+00
        -11   -1    0    0    0    0  0.00000000000E+00  0.00000000000E+00  0.45593999997E+02  0.45594000000E+02  0.51100000000E-03 0. -1.
         11   -1    0    0    0    0 -0.00000000000E+00 -0.00000000000E+00 -0.45593999997E+02  0.45594000000E+02  0.51100000000E-03 0.  1.
    9900012    2    1    2    0    0  0.24205592984E+02  0.30159453000E+02 -0.23100003025E+02  0.46142317890E+02  0.10000001177E+02 0.  0.
        -12    1    1    2    0    0 -0.24205592984E+02 -0.30159453000E+02  0.23100003025E+02  0.45045682110E+02  0.00000000000E+00 0.  1.
         11    1    3    3    0    0  0.67125912834E+01  0.13273531396E+02 -0.62472569977E+01  0.16133001510E+02  0.51100000000E-03 0. -1.
        -11    1    3    3    0    0  0.14875299962E+02  0.14632868084E+02 -0.12056221464E+02  0.24098710621E+02  0.51100000000E-03 0.  1.
        -12    1    3    3    0    0  0.26177017385E+01  0.22530535192E+01 -0.47965245634E+01  0.59106057591E+01  0.00000000000E+00 0.  1.
</event>
<event>
 7    1  0.3919732E-008  0.4614232E+02  0.7816164E-02  0.1320468E+00
        -11   -1    0    0    0    0  0.00000000000E+00  0.00000000000E+00  0.45593999997E+02  0.45594000000E+02  0.51100000000E-03 0.  1.
         11   -1    0    0    0    0 -0.00000000000E+00 -0.00000000000E+00 -0.45593999997E+02  0.45594000000E+02  0.51100000000E-03 0. -1.
    9900012    2    1    2    0    0  0.31588666835E+02  0.65958982165E+01 -0.31428708714E+02  0.46142317886E+02  0.10000001140E+02 0.  0.
        -12    1    1    2    0    0 -0.31588666835E+02 -0.65958982165E+01  0.31428708714E+02  0.45045682114E+02  0.00000000000E+00 0.  1.
         11    1    3    3    0    0  0.22563669598E+02  0.38315133185E+01 -0.20292255035E+02  0.30587175331E+02  0.51100000000E-03 0. -1.
        -11    1    3    3    0    0  0.93582023630E+01  0.17126571841E+01 -0.87482930375E+01  0.12924464299E+02  0.51100000000E-03 0.  1.
        -12    1    3    3    0    0 -0.33320512568E+00  0.10517277140E+01 -0.23881606409E+01  0.26306782560E+01  0.00000000000E+00 0.  1.
</event>
<event>
 7    1  0.3919732E-008  0.4614232E+02  0.7816164E-02  0.1320468E+00
        -11   -1    0    0    0    0  0.00000000000E+00  0.00000000000E+00  0.45593999997E+02  0.45594000000E+02  0.51100000000E-03 0.  1.
         11   -1    0    0    0    0 -0.00000000000E+00 -0.00000000000E+00 -0.45593999997E+02  0.45594000000E+02  0.51100000000E-03 0. -1.
    9900012    2    1    2    0    0 -0.17698306686E+02  0.33447303020E+02 -0.24436884152E+02  0.46142318233E+02  0.10000004300E+02 0.  0.
        -12    1    1    2    0    0  0.17698306686E+02 -0.33447303020E+02  0.24436884152E+02  0.45045681767E+02  0.00000000000E+00 0.  1.
         11    1    3    3    0    0 -0.52044197815E+01  0.68855899737E+01 -0.69875844744E+01  0.11105119162E+02  0.51100000000E-03 0. -1.
        -11    1    3    3    0    0 -0.64277059352E+01  0.10485155323E+02 -0.31829316007E+01  0.12703737229E+02  0.51100000000E-03 0.  1.
        -12    1    3    3    0    0 -0.60661809696E+01  0.16076557723E+02 -0.14266368077E+02  0.22333461843E+02  0.00000000000E+00 0.  1.
</event>
<event>
 7    1  0.3919732E-008  0.4614232E+02  0.7816164E-02  0.1320468E+00
        -11   -1    0    0    0    0  0.00000000000E+00  0.00000000000E+00  0.45593999997E+02  0.45594000000E+02  0.51100000000E-03 0.  1.
         11   -1    0    0    0    0 -0.00000000000E+00 -0.00000000000E+00 -0.45593999997E+02  0.45594000000E+02  0.51100000000E-03 0. -1.
    9900012    2    1    2    0    0 -0.17547792158E+02  0.39824538091E+01 -0.41295623906E+02  0.46142317613E+02  0.99999986501E+01 0.  0.
        -12    1    1    2    0    0  0.17547792158E+02 -0.39824538091E+01  0.41295623906E+02  0.45045682387E+02  0.00000000000E+00 0.  1.
         11    1    3    3    0    0 -0.16746197683E+01 -0.12975681208E+01 -0.67106810745E+01  0.70371354357E+01  0.51100000000E-03 0.  1.
        -11    1    3    3    0    0 -0.11316529827E+02  0.41537952060E+01 -0.30801507447E+02  0.33076437583E+02  0.51100000000E-03 0. -1.
         12    1    3    3    0    0 -0.45566425622E+01  0.11262267240E+01 -0.37834353843E+01  0.60287445940E+01  0.00000000000E+00 0. -1.
</event>
<event>
 7    1  0.3919732E-008  0.4614232E+02  0.7816164E-02  0.1320468E+00
        -11   -1    0    0    0    0  0.00000000000E+00  0.00000000000E+00  0.45593999997E+02  0.45594000000E+02  0.51100000000E-03 0. -1.
         11   -1    0    0    0    0 -0.00000000000E+00 -0.00000000000E+00 -0.45593999997E+02  0.45594000000E+02  0.51100000000E-03 0.  1.
    9900012    2    1    2    0    0  0.37612003032E+02 -0.16584429205E+02 -0.18423004497E+02  0.46142321419E+02  0.10000033352E+02 0.  0.
        -12    1    1    2    0    0 -0.37612003032E+02  0.16584429205E+02  0.18423004497E+02  0.45045678581E+02  0.00000000000E+00 0.  1.
         11    1    3    3    0    0  0.21959305713E+02 -0.72457764251E+01 -0.77073850902E+01  0.24374498324E+02  0.51100000000E-03 0. -1.
        -11    1    3    3    0    0  0.13023674141E+02 -0.77014841435E+01 -0.63353220759E+01  0.16403208595E+02  0.51100000000E-03 0.  1.
         12    1    3    3    0    0  0.26290231788E+01 -0.16371686369E+01 -0.43802973306E+01  0.53646144991E+01  0.00000000000E+00 0. -1.
</event>
<event>
 7    1  0.3919732E-008  0.4614232E+02  0.7816164E-02  0.1320468E+00
        -11   -1    0    0    0    0  0.00000000000E+00  0.00000000000E+00  0.45593999997E+02  0.45594000000E+02  0.51100000000E-03 0. -1.
         11   -1    0    0    0    0 -0.00000000000E+00 -0.00000000000E+00 -0.45593999997E+02  0.45594000000E+02  0.51100000000E-03 0.  1.
    9900012    2    1    2    0    0 -0.25535951911E+02 -0.34632934382E+02  0.13326233313E+02  0.46142317874E+02  0.10000001030E+02 0.  0.
        -12    1    1    2    0    0  0.25535951911E+02  0.34632934382E+02 -0.13326233313E+02  0.45045682126E+02  0.00000000000E+00 0.  1.
         11    1    3    3    0    0 -0.14565668430E+02 -0.23398760503E+02  0.76384251184E+01  0.28600808178E+02  0.51100000000E-03 0. -1.
        -11    1    3    3    0    0 -0.10106204536E+02 -0.11810041451E+02  0.54867225589E+01  0.16483827647E+02  0.51100000000E-03 0.  1.
        -12    1    3    3    0    0 -0.86407894483E+00  0.57586757227E+00  0.20108563559E+00  0.10576820489E+01  0.00000000000E+00 0.  1.
</event>
<event>
 7    1  0.3919732E-008  0.4614232E+02  0.7816164E-02  0.1320468E+00
        -11   -1    0    0    0    0  0.00000000000E+00  0.00000000000E+00  0.45593999997E+02  0.45594000000E+02  0.51100000000E-03 0.  1.
         11   -1    0    0    0    0 -0.00000000000E+00 -0.00000000000E+00 -0.45593999997E+02  0.45594000000E+02  0.51100000000E-03 0. -1.
    9900012    2    1    2    0    0 -0.72530941958E+01  0.12171077347E+02 -0.42759454460E+02  0.46142318244E+02  0.10000004399E+02 0.  0.
        -12    1    1    2    0    0  0.72530941958E+01 -0.12171077347E+02  0.42759454460E+02  0.45045681756E+02  0.00000000000E+00 0.  1.
         11    1    3    3    0    0 -0.36881368173E+01  0.53917034816E+01 -0.14090917699E+02  0.15531477118E+02  0.51100000000E-03 0. -1.
        -11    1    3    3    0    0  0.61973466406E+00  0.48802177629E+01 -0.76458173971E+01  0.90917061324E+01  0.51100000000E-03 0.  1.
         12    1    3    3    0    0 -0.41846920426E+01  0.18991561028E+01 -0.21022719364E+02  0.21519134993E+02  0.00000000000E+00 0. -1.
</event>
<event>
 7    1  0.3919732E-008  0.4614232E+02  0.7816164E-02  0.1320468E+00
        -11   -1    0    0    0    0  0.00000000000E+00  0.00000000000E+00  0.45593999997E+02  0.45594000000E+02  0.51100000000E-03 0.  1.
         11   -1    0    0    0    0 -0.00000000000E+00 -0.00000000000E+00 -0.45593999997E+02  0.45594000000E+02  0.51100000000E-03 0. -1.
    9900012    2    1    2    0    0  0.12634051714E+02  0.61523539076E+01 -0.42797695720E+02  0.46142317851E+02  0.10000000818E+02 0.  0.
        -12    1    1    2    0    0 -0.12634051714E+02 -0.61523539076E+01  0.42797695720E+02  0.45045682149E+02  0.00000000000E+00 0.  1.
         11    1    3    3    0    0  0.41866191456E+01  0.11034772303E+01 -0.59548407626E+01  0.73624432519E+01  0.51100000000E-03 0.  1.
        -11    1    3    3    0    0 -0.12031871132E+01  0.11911179527E+01 -0.44870239938E+01  0.47958112753E+01  0.51100000000E-03 0. -1.
         12    1    3    3    0    0  0.96506196817E+01  0.38577587246E+01 -0.32355830964E+02  0.33984063324E+02  0.00000000000E+00 0. -1.
</event>
<event>
 7    1  0.3919732E-008  0.4614232E+02  0.7816164E-02  0.1320468E+00
        -11   -1    0    0    0    0  0.00000000000E+00  0.00000000000E+00  0.45593999997E+02  0.45594000000E+02  0.51100000000E-03 0. -1.
         11   -1    0    0    0    0 -0.00000000000E+00 -0.00000000000E+00 -0.45593999997E+02  0.45594000000E+02  0.51100000000E-03 0.  1.
    9900012    2    1    2    0    0  0.12071210514E+02 -0.13580425486E+02  0.41218580756E+02  0.46142317864E+02  0.10000000935E+02 0.  0.
        -12    1    1    2    0    0 -0.12071210514E+02  0.13580425486E+02 -0.41218580756E+02  0.45045682136E+02  0.00000000000E+00 0.  1.
         11    1    3    3    0    0  0.57244590357E+01 -0.34824094453E+01  0.18913876689E+02  0.20065675629E+02  0.51100000000E-03 0. -1.
        -11    1    3    3    0    0  0.61407909794E+01 -0.44298082031E+01  0.10144905388E+02  0.12659052893E+02  0.51100000000E-03 0.  1.
        -12    1    3    3    0    0  0.20596049844E+00 -0.56682078372E+01  0.12159798679E+02  0.13417589341E+02  0.00000000000E+00 0.  1.
</event>
<event>
 7    1  0.3919732E-008  0.4614232E+02  0.7816164E-02  0.1320468E+00
        -11   -1    0    0    0    0  0.00000000000E+00  0.00000000000E+00  0.45593999997E+02  0.45594000000E+02  0.51100000000E-03 0. -1.
         11   -1    0    0    0    0 -0.00000000000E+00 -0.00000000000E+00 -0.45593999997E+02  0.45594000000E+02  0.51100000000E-03 0.  1.
    9900012    2    1    2    0    0  0.43721313183E+02 -0.10120742740E+02 -0.38898237030E+01  0.46142318869E+02  0.10000010105E+02 0.  0.
        -12    1    1    2    0    0 -0.43721313183E+02  0.10120742740E+02  0.38898237030E+01  0.45045681131E+02  0.00000000000E+00 0.  1.
         11    1    3    3    0    0  0.25773428645E+02 -0.50703660697E+01 -0.16233772842E+01  0.26317552893E+02  0.51100000000E-03 0. -1.
        -11    1    3    3    0    0  0.80473334429E+01 -0.39816512937E+01  0.16415514885E+01  0.91273114396E+01  0.51100000000E-03 0.  1.
        -12    1    3    3    0    0  0.99005510956E+01 -0.10687253771E+01 -0.39079979073E+01  0.10697454537E+02  0.00000000000E+00 0.  1.
</event>
<event>
 7    1  0.3919732E-008  0.4614232E+02  0.7816164E-02  0.1320468E+00
        -11   -1    0    0    0    0  0.00000000000E+00  0.00000000000E+00  0.45593999997E+02  0.45594000000E+02  0.51100000000E-03 0. -1.
         11   -1    0    0    0    0 -0.00000000000E+00 -0.00000000000E+00 -0.45593999997E+02  0.45594000000E+02  0.51100000000E-03 0.  1.
    9900012    2    1    2    0    0  0.19812660748E+02  0.38977671282E+02  0.10831118416E+02  0.46142317514E+02  0.99999977506E+01 0.  0.
        -12    1    1    2    0    0 -0.19812660748E+02 -0.38977671282E+02 -0.10831118416E+02  0.45045682486E+02  0.00000000000E+00 0.  1.
         11    1    3    3    0    0  0.87807817096E+01  0.19989400641E+02  0.70054079559E+01  0.22929326338E+02  0.51100000000E-03 0. -1.
        -11    1    3    3    0    0  0.62394543259E+01  0.10725596680E+02 -0.11159217176E+01  0.12458510985E+02  0.51100000000E-03 0.  1.
         12    1    3    3    0    0  0.47924247121E+01  0.82626739599E+01  0.49416321782E+01  0.10754480191E+02  0.00000000000E+00 0. -1.
</event>
<event>
 7    1  0.3919732E-008  0.4614232E+02  0.7816164E-02  0.1320468E+00
        -11   -1    0    0    0    0  0.00000000000E+00  0.00000000000E+00  0.45593999997E+02  0.45594000000E+02  0.51100000000E-03 0.  1.
         11   -1    0    0    0    0 -0.00000000000E+00 -0.00000000000E+00 -0.45593999997E+02  0.45594000000E+02  0.51100000000E-03 0. -1.
    9900012    2    1    2    0    0  0.44718193276E+02 -0.34923253443E+01 -0.41473311191E+01  0.46142317614E+02  0.99999986589E+01 0.  0.
        -12    1    1    2    0    0 -0.44718193276E+02  0.34923253443E+01  0.41473311191E+01  0.45045682386E+02  0.00000000000E+00 0.  1.
         11    1    3    3    0    0  0.16823193020E+02 -0.38354977373E+01 -0.43808319576E+01  0.17802318815E+02  0.51100000000E-03 0. -1.
        -11    1    3    3    0    0  0.97952287428E+01  0.24979215209E+01 -0.10554073267E+00  0.10109265906E+02  0.51100000000E-03 0.  1.
        -12    1    3    3    0    0  0.18099771513E+02 -0.21547491279E+01  0.33904157113E+00  0.18230732893E+02  0.00000000000E+00 0.  1.
</event>
<event>
 7    1  0.3919732E-008  0.4614232E+02  0.7816164E-02  0.1320468E+00
        -11   -1    0    0    0    0  0.00000000000E+00  0.00000000000E+00  0.45593999997E+02  0.45594000000E+02  0.51100000000E-03 0.  1.
         11   -1    0    0    0    0 -0.00000000000E+00 -0.00000000000E+00 -0.45593999997E+02  0.45594000000E+02  0.51100000000E-03 0. -1.
    9900012    2    1    2    0    0 -0.15127541840E+02  0.33771789665E+02  0.25685348936E+02  0.46142318195E+02  0.10000003957E+02 0.  0.
        -12    1    1    2    0    0  0.15127541840E+02 -0.33771789665E+02 -0.25685348936E+02  0.45045681805E+02  0.00000000000E+00 0.  1.
         11    1    3    3    0    0 -0.14380563710E+02  0.30646798597E+02  0.20942679879E+02  0.39807319900E+02  0.51100000000E-03 0. -1.
        -11    1    3    3    0    0 -0.15906445738E+01  0.12829968930E+01  0.31638783721E+01  0.37664781697E+01  0.51100000000E-03 0.  1.
         12    1    3    3    0    0  0.84366644302E+00  0.18419941747E+01  0.15787906847E+01  0.25685201251E+01  0.00000000000E+00 0. -1.
</event>
<event>
 7    1  0.3919732E-008  0.4614232E+02  0.7816164E-02  0.1320468E+00
        -11   -1    0    0    0    0  0.00000000000E+00  0.00000000000E+00  0.45593999997E+02  0.45594000000E+02  0.51100000000E-03 0. -1.
         11   -1    0    0    0    0 -0.00000000000E+00 -0.00000000000E+00 -0.45593999997E+02  0.45594000000E+02  0.51100000000E-03 0.  1.
    9900012    2    1    2    0    0 -0.15528359400E+02 -0.35831514403E+01  0.42132464162E+02  0.46142318117E+02  0.10000003249E+02 0.  0.
        -12    1    1    2    0    0  0.15528359400E+02  0.35831514403E+01 -0.42132464162E+02  0.45045681883E+02  0.00000000000E+00 0.  1.
         11    1    3    3    0    0 -0.50564226659E+01  0.16026476068E+01  0.13483595076E+02  0.14489417723E+02  0.51100000000E-03 0. -1.
        -11    1    3    3    0    0 -0.96262129678E+00 -0.35410702026E+01  0.59919862638E+01  0.70263587716E+01  0.51100000000E-03 0.  1.
         12    1    3    3    0    0 -0.95093154378E+01 -0.16447288445E+01  0.22656882822E+02  0.24626541622E+02  0.00000000000E+00 0. -1.
</event>
<event>
 7    1  0.3919732E-008  0.4614232E+02  0.7816164E-02  0.1320468E+00
        -11   -1    0    0    0    0  0.00000000000E+00  0.00000000000E+00  0.45593999997E+02  0.45594000000E+02  0.51100000000E-03 0. -1.
         11   -1    0    0    0    0 -0.00000000000E+00 -0.00000000000E+00 -0.45593999997E+02  0.45594000000E+02  0.51100000000E-03 0.  1.
    9900012    2    1    2    0    0  0.29928917509E+02  0.32391034038E+02  0.91757358392E+01  0.46142319657E+02  0.10000017290E+02 0.  0.
        -12    1    1    2    0    0 -0.29928917509E+02 -0.32391034038E+02 -0.91757358392E+01  0.45045680343E+02  0.00000000000E+00 0.  1.
         11    1    3    3    0    0  0.21662991986E+02  0.25734978645E+02  0.86999147528E+01  0.34745688432E+02  0.51100000000E-03 0. -1.
        -11    1    3    3    0    0 -0.85359418403E-01  0.15177685291E+01 -0.33874205960E+00  0.15574511171E+01  0.51100000000E-03 0.  1.
        -12    1    3    3    0    0  0.83512849417E+01  0.51382868639E+01  0.81456314606E+00  0.98391801077E+01  0.00000000000E+00 0.  1.
</event>
<event>
 7    1  0.3919732E-008  0.4614232E+02  0.7816164E-02  0.1320468E+00
        -11   -1    0    0    0    0  0.00000000000E+00  0.00000000000E+00  0.45593999997E+02  0.45594000000E+02  0.51100000000E-03 0. -1.
         11   -1    0    0    0    0 -0.00000000000E+00 -0.00000000000E+00 -0.45593999997E+02  0.45594000000E+02  0.51100000000E-03 0.  1.
    9900012    2    1    2    0    0 -0.59368135044E+00 -0.32084685534E+02  0.31612242115E+02  0.46142319243E+02  0.10000013509E+02 0.  0.
        -12    1    1    2    0    0  0.59368135044E+00  0.32084685534E+02 -0.31612242115E+02  0.45045680757E+02  0.00000000000E+00 0.  1.
         11    1    3    3    0    0 -0.50072472211E+00  0.12839177641E+00  0.22972182990E+01  0.23546596081E+01  0.51100000000E-03 0.  1.
        -11    1    3    3    0    0 -0.68186697006E-01 -0.21893367784E+02  0.22656747592E+02  0.31506386877E+02  0.51100000000E-03 0. -1.
         12    1    3    3    0    0 -0.24769931315E-01 -0.10319709527E+02  0.66582762240E+01  0.12281272757E+02  0.00000000000E+00 0. -1.
</event>
<event>
 7    1  0.3919732E-008  0.4614232E+02  0.7816164E-02  0.1320468E+00
        -11   -1    0    0    0    0  0.00000000000E+00  0.00000000000E+00  0.45593999997E+02  0.45594000000E+02  0.51100000000E-03 0.  1.
         11   -1    0    0    0    0 -0.00000000000E+00 -0.00000000000E+00 -0.45593999997E+02  0.45594000000E+02  0.51100000000E-03 0. -1.
    9900012    2    1    2    0    0 -0.42049444119E-01  0.16592652320E+02 -0.41878336259E+02  0.46142323992E+02  0.10000056822E+02 0.  0.
        -12    1    1    2    0    0  0.42049444119E-01 -0.16592652320E+02  0.41878336259E+02  0.45045676008E+02  0.00000000000E+00 0.  1.
         11    1    3    3    0    0 -0.15980182884E+01  0.15447239518E+02 -0.37312616631E+02  0.40415371226E+02  0.51100000000E-03 0. -1.
        -11    1    3    3    0    0 -0.23676583065E+00  0.86271001609E+00 -0.92254471287E-01  0.89935408990E+00  0.51100000000E-03 0.  1.
         12    1    3    3    0    0  0.17927346749E+01  0.28270278562E+00 -0.44734651561E+01  0.48275986766E+01  0.00000000000E+00 0. -1.
</event>
<event>
 7    1  0.3919732E-008  0.4614232E+02  0.7816164E-02  0.1320468E+00
        -11   -1    0    0    0    0  0.00000000000E+00  0.00000000000E+00  0.45593999997E+02  0.45594000000E+02  0.51100000000E-03 0.  1.
         11   -1    0    0    0    0 -0.00000000000E+00 -0.00000000000E+00 -0.45593999997E+02  0.45594000000E+02  0.51100000000E-03 0. -1.
    9900012    2    1    2    0    0  0.23279916623E+01  0.73944042457E+01 -0.44373599523E+02  0.46142322139E+02  0.10000039923E+02 0.  0.
        -12    1    1    2    0    0 -0.23279916623E+01 -0.73944042457E+01  0.44373599523E+02  0.45045677861E+02  0.00000000000E+00 0.  1.
         11    1    3    3    0    0 -0.17455165650E-01 -0.11383230105E+01 -0.19758893710E+01  0.22803997515E+01  0.51100000000E-03 0.  1.
        -11    1    3    3    0    0  0.27324208273E+01  0.94304052285E+01 -0.33455700878E+02  0.34866640043E+02  0.51100000000E-03 0. -1.
         12    1    3    3    0    0 -0.38697399929E+00 -0.89767797234E+00 -0.89420092735E+01  0.89952823449E+01  0.00000000000E+00 0. -1.
</event>
<event>
 7    1  0.3919732E-008  0.4614232E+02  0.7816164E-02  0.1320468E+00
        -11   -1    0    0    0    0  0.00000000000E+00  0.00000000000E+00  0.45593999997E+02  0.45594000000E+02  0.51100000000E-03 0.  1.
         11   -1    0    0    0    0 -0.00000000000E+00 -0.00000000000E+00 -0.45593999997E+02  0.45594000000E+02  0.51100000000E-03 0. -1.
    9900012    2    1    2    0    0 -0.78963811341E+01 -0.34750761013E+02 -0.27552592998E+02  0.46142316445E+02  0.99999880020E+01 0.  0.
        -12    1    1    2    0    0  0.78963811341E+01  0.34750761013E+02  0.27552592998E+02  0.45045683555E+02  0.00000000000E+00 0.  1.
         11    1    3    3    0    0 -0.55860489969E+00 -0.49579759546E+01 -0.79616121302E+01  0.93957880443E+01  0.51100000000E-03 0. -1.
        -11    1    3    3    0    0  0.55426652644E+00 -0.47037112366E+01 -0.37717951299E+01  0.60546304216E+01  0.51100000000E-03 0.  1.
        -12    1    3    3    0    0 -0.78920427608E+01 -0.25089073822E+02 -0.15819185738E+02  0.30691897979E+02  0.00000000000E+00 0.  1.
</event>
<event>
 7    1  0.3919732E-008  0.4614232E+02  0.7816164E-02  0.1320468E+00
        -11   -1    0    0    0    0  0.00000000000E+00  0.00000000000E+00  0.45593999997E+02  0.45594000000E+02  0.51100000000E-03 0.  1.
         11   -1    0    0    0    0 -0.00000000000E+00 -0.00000000000E+00 -0.45593999997E+02  0.45594000000E+02  0.51100000000E-03 0. -1.
    9900012    2    1    2    0    0  0.28112021786E+02  0.15824678165E+02 -0.31438945644E+02  0.46142317509E+02  0.99999977001E+01 0.  0.
        -12    1    1    2    0    0 -0.28112021786E+02 -0.15824678165E+02  0.31438945644E+02  0.45045682491E+02  0.00000000000E+00 0.  1.
         11    1    3    3    0    0  0.11870754297E+02  0.37487034311E+01 -0.77647174212E+01  0.14671687766E+02  0.51100000000E-03 0. -1.
        -11    1    3    3    0    0  0.13380838738E+02  0.80066987369E+01 -0.16136951627E+02  0.22440037390E+02  0.51100000000E-03 0.  1.
        -12    1    3    3    0    0  0.28604287508E+01  0.40692759966E+01 -0.75372765954E+01  0.90305923533E+01  0.00000000000E+00 0.  1.
</event>
<event>
 7    1  0.3919732E-008  0.4614232E+02  0.7816164E-02  0.1320468E+00
        -11   -1    0    0    0    0  0.00000000000E+00  0.00000000000E+00  0.45593999997E+02  0.45594000000E+02  0.51100000000E-03 0.  1.
         11   -1    0    0    0    0 -0.00000000000E+00 -0.00000000000E+00 -0.45593999997E+02  0.45594000000E+02  0.51100000000E-03 0. -1.
    9900012    2    1    2    0    0 -0.12467586226E+02  0.10086769581E+02 -0.42094296952E+02  0.46142318045E+02  0.10000002591E+02 0.  0.
        -12    1    1    2    0    0  0.12467586226E+02 -0.10086769581E+02  0.42094296952E+02  0.45045681955E+02  0.00000000000E+00 0.  1.
         11    1    3    3    0    0 -0.73574626381E+00 -0.21037014383E+00 -0.10740694399E+02  0.10767919697E+02  0.51100000000E-03 0. -1.
        -11    1    3    3    0    0 -0.43062318816E+00  0.86593038191E+00 -0.30614465739E+00  0.10143946810E+01  0.51100000000E-03 0.  1.
         12    1    3    3    0    0 -0.11301216774E+02  0.94312093430E+01 -0.31047457895E+02  0.34360003667E+02  0.00000000000E+00 0. -1.
</event>
<event>
 7    1  0.3919732E-008  0.4614232E+02  0.7816164E-02  0.1320468E+00
        -11   -1    0    0    0    0  0.00000000000E+00  0.00000000000E+00  0.45593999997E+02  0.45594000000E+02  0.51100000000E-03 0. -1.
         11   -1    0    0    0    0 -0.00000000000E+00 -0.00000000000E+00 -0.45593999997E+02  0.45594000000E+02  0.51100000000E-03 0.  1.
    9900012    2    1    2    0    0  0.71777260246E+01 -0.99620289530E+01  0.43339955453E+02  0.46142317517E+02  0.99999977700E+01 0.  0.
        -12    1    1    2    0    0 -0.71777260246E+01  0.99620289530E+01 -0.43339955453E+02  0.45045682483E+02  0.00000000000E+00 0.  1.
         11    1    3    3    0    0  0.62559320933E+01 -0.82201104261E+01  0.41722058533E+02  0.42981822556E+02  0.51100000000E-03 0. -1.
        -11    1    3    3    0    0  0.14734000746E+01 -0.10021921833E+01  0.11944253724E+01  0.21452154165E+01  0.51100000000E-03 0.  1.
         12    1    3    3    0    0 -0.55160614324E+00 -0.73972634363E+00  0.42347154780E+00  0.10152795440E+01  0.00000000000E+00 0. -1.
</event>
<event>
 7    1  0.3919732E-008  0.4614232E+02  0.7816164E-02  0.1320468E+00
        -11   -1    0    0    0    0  0.00000000000E+00  0.00000000000E+00  0.45593999997E+02  0.45594000000E+02  0.51100000000E-03 0. -1.
         11   -1    0    0    0    0 -0.00000000000E+00 -0.00000000000E+00 -0.45593999997E+02  0.45594000000E+02  0.51100000000E-03 0.  1.
    9900012    2    1    2    0    0 -0.40336045825E+00  0.26546766244E+01  0.44965581392E+02  0.46142317438E+02  0.99999970495E+01 0.  0.
        -12    1    1    2    0    0  0.40336045825E+00 -0.26546766244E+01 -0.44965581392E+02  0.45045682562E+02  0.00000000000E+00 0.  1.
         11    1    3    3    0    0  0.16801376580E+00  0.11185450083E+01  0.15451164539E+02  0.15492509720E+02  0.51100000000E-03 0. -1.
        -11    1    3    3    0    0 -0.19693912783E+01 -0.10973962509E+01  0.25745945203E+02  0.25844467013E+02  0.51100000000E-03 0.  1.
         12    1    3    3    0    0  0.13980170543E+01  0.26335278671E+01  0.37684716505E+01  0.48053407050E+01  0.00000000000E+00 0. -1.
</event>
<event>
 7    1  0.3919732E-008  0.4614232E+02  0.7816164E-02  0.1320468E+00
        -11   -1    0    0    0    0  0.00000000000E+00  0.00000000000E+00  0.45593999997E+02  0.45594000000E+02  0.51100000000E-03 0.  1.
         11   -1    0    0    0    0 -0.00000000000E+00 -0.00000000000E+00 -0.45593999997E+02  0.45594000000E+02  0.51100000000E-03 0. -1.
    9900012    2    1    2    0    0  0.38534382723E+02  0.51563331594E+01 -0.22751416557E+02  0.46142318977E+02  0.10000011089E+02 0.  0.
        -12    1    1    2    0    0 -0.38534382723E+02 -0.51563331594E+01  0.22751416557E+02  0.45045681023E+02  0.00000000000E+00 0.  1.
         11    1    3    3    0    0  0.21427753995E+02 -0.11577328607E-01 -0.13853488738E+02  0.25516032720E+02  0.51100000000E-03 0. -1.
        -11    1    3    3    0    0  0.80563200907E+01  0.35790661122E+01 -0.69685373345E+01  0.11237193621E+02  0.51100000000E-03 0.  1.
         12    1    3    3    0    0  0.90503086371E+01  0.15888443759E+01 -0.19293904838E+01  0.93890926354E+01  0.00000000000E+00 0. -1.
</event>
<event>
 7    1  0.3919732E-008  0.4614232E+02  0.7816164E-02  0.1320468E+00
        -11   -1    0    0    0    0  0.00000000000E+00  0.00000000000E+00  0.45593999997E+02  0.45594000000E+02  0.51100000000E-03 0.  1.
         11   -1    0    0    0    0 -0.00000000000E+00 -0.00000000000E+00 -0.45593999997E+02  0.45594000000E+02  0.51100000000E-03 0. -1.
    9900012    2    1    2    0    0  0.87922199345E+00 -0.32364452936E+02 -0.31319046855E+02  0.46142317176E+02  0.99999946659E+01 0.  0.
        -12    1    1    2    0    0 -0.87922199345E+00  0.32364452936E+02  0.31319046855E+02  0.45045682824E+02  0.00000000000E+00 0.  1.
         11    1    3    3    0    0  0.89635122870E+00 -0.25843037473E+02 -0.22591502748E+02  0.34337181422E+02  0.51100000000E-03 0. -1.
        -11    1    3    3    0    0  0.94465338401E+00 -0.41123509656E+01 -0.21522217101E+01  0.47366506131E+01  0.51100000000E-03 0.  1.
        -12    1    3    3    0    0 -0.96178261927E+00 -0.24090644975E+01 -0.65753223976E+01  0.70684851412E+01  0.00000000000E+00 0.  1.
</event>
<event>
 7    1  0.3919732E-008  0.4614232E+02  0.7816164E-02  0.1320468E+00
        -11   -1    0    0    0    0  0.00000000000E+00  0.00000000000E+00  0.45593999997E+02  0.45594000000E+02  0.51100000000E-03 0. -1.
         11   -1    0    0    0    0 -0.00000000000E+00 -0.00000000000E+00 -0.45593999997E+02  0.45594000000E+02  0.51100000000E-03 0.  1.
    9900012    2    1    2    0    0 -0.94463145685E+01 -0.37367096722E+02  0.23314817179E+02  0.46142317893E+02  0.10000001207E+02 0.  0.
        -12    1    1    2    0    0  0.94463145685E+01  0.37367096722E+02 -0.23314817179E+02  0.45045682107E+02  0.00000000000E+00 0.  1.
         11    1    3    3    0    0 -0.31060163264E+00 -0.40293957276E+00  0.74212546322E+00  0.89976893577E+00  0.51100000000E-03 0.  1.
        -11    1    3    3    0    0 -0.10708977339E+02 -0.30180971593E+02  0.20305647805E+02  0.37919553992E+02  0.51100000000E-03 0. -1.
         12    1    3    3    0    0  0.15732644029E+01 -0.67831855560E+01  0.22670439116E+01  0.73229949656E+01  0.00000000000E+00 0. -1.
</event>
<event>
 7    1  0.3919732E-008  0.4614232E+02  0.7816164E-02  0.1320468E+00
        -11   -1    0    0    0    0  0.00000000000E+00  0.00000000000E+00  0.45593999997E+02  0.45594000000E+02  0.51100000000E-03 0.  1.
         11   -1    0    0    0    0 -0.00000000000E+00 -0.00000000000E+00 -0.45593999997E+02  0.45594000000E+02  0.51100000000E-03 0. -1.
    9900012    2    1    2    0    0 -0.43108239957E+01  0.26346244806E+02 -0.36282304649E+02  0.46142318192E+02  0.10000003929E+02 0.  0.
        -12    1    1    2    0    0  0.43108239957E+01 -0.26346244806E+02  0.36282304649E+02  0.45045681808E+02  0.00000000000E+00 0.  1.
         11    1    3    3    0    0 -0.38094354160E+01  0.15193718981E+02 -0.24643446377E+02  0.29200348358E+02  0.51100000000E-03 0. -1.
        -11    1    3    3    0    0 -0.15468484113E+01  0.25583573727E+01 -0.84835092131E+00  0.31076730847E+01  0.51100000000E-03 0.  1.
         12    1    3    3    0    0  0.10454598315E+01  0.85941684526E+01 -0.10790507351E+02  0.13834296749E+02  0.00000000000E+00 0. -1.
</event>
<event>
 7    1  0.4387741E-008  0.4614232E+02  0.7816164E-02  0.1320468E+00
        -11   -1    0    0    0    0  0.00000000000E+00  0.00000000000E+00  0.45593999997E+02  0.45594000000E+02  0.51100000000E-03 0. -1.
         11   -1    0    0    0    0 -0.00000000000E+00 -0.00000000000E+00 -0.45593999997E+02  0.45594000000E+02  0.51100000000E-03 0.  1.
    9900012    2    1    2    0    0 -0.15085585903E+02 -0.24309614210E+02  0.34793408037E+02  0.46142317766E+02  0.10000000044E+02 0.  0.
        -12    1    1    2    0    0  0.15085585903E+02  0.24309614210E+02 -0.34793408037E+02  0.45045682234E+02  0.00000000000E+00 0.  1.
         11    1    3    3    0    0 -0.51714235675E+01 -0.85391028430E+01  0.14007156113E+02  0.17200590738E+02  0.51100000000E-03 0. -1.
        -11    1    3    3    0    0 -0.43290186330E+01 -0.87336638640E+01  0.16069557731E+02  0.18794892198E+02  0.51100000000E-03 0.  1.
        -12    1    3    3    0    0 -0.55851437027E+01 -0.70368475027E+01  0.47166941930E+01  0.10146834830E+02  0.00000000000E+00 0.  1.
</event>
<event>
 7    1  0.3919732E-008  0.4614232E+02  0.7816164E-02  0.1320468E+00
        -11   -1    0    0    0    0  0.00000000000E+00  0.00000000000E+00  0.45593999997E+02  0.45594000000E+02  0.51100000000E-03 0.  1.
         11   -1    0    0    0    0 -0.00000000000E+00 -0.00000000000E+00 -0.45593999997E+02  0.45594000000E+02  0.51100000000E-03 0. -1.
    9900012    2    1    2    0    0  0.11062666920E+01 -0.22387612797E+02 -0.39072809739E+02  0.46142317703E+02  0.99999994661E+01 0.  0.
        -12    1    1    2    0    0 -0.11062666920E+01  0.22387612797E+02  0.39072809739E+02  0.45045682297E+02  0.00000000000E+00 0.  1.
         11    1    3    3    0    0 -0.19485551478E+01 -0.62595639702E+01 -0.11923479385E+02  0.13606923575E+02  0.51100000000E-03 0. -1.
        -11    1    3    3    0    0  0.35454374614E+01 -0.14749281469E+02 -0.27117000695E+02  0.31071581189E+02  0.51100000000E-03 0.  1.
        -12    1    3    3    0    0 -0.49061562159E+00 -0.13787673576E+01 -0.32329659874E-01  0.14638129393E+01  0.00000000000E+00 0.  1.
</event>
<event>
 7    1  0.3919732E-008  0.4614232E+02  0.7816164E-02  0.1320468E+00
        -11   -1    0    0    0    0  0.00000000000E+00  0.00000000000E+00  0.45593999997E+02  0.45594000000E+02  0.51100000000E-03 0. -1.
         11   -1    0    0    0    0 -0.00000000000E+00 -0.00000000000E+00 -0.45593999997E+02  0.45594000000E+02  0.51100000000E-03 0.  1.
    9900012    2    1    2    0    0 -0.47448717543E+01 -0.31510752771E+02  0.31838218284E+02  0.46142317724E+02  0.99999996632E+01 0.  0.
        -12    1    1    2    0    0  0.47448717543E+01  0.31510752771E+02 -0.31838218284E+02  0.45045682276E+02  0.00000000000E+00 0.  1.
         11    1    3    3    0    0 -0.50630599285E+01 -0.10684982658E+02  0.14969500252E+02  0.19075884469E+02  0.51100000000E-03 0. -1.
        -11    1    3    3    0    0  0.49684137782E+00 -0.31964574403E+01  0.44496480481E+01  0.55012325469E+01  0.51100000000E-03 0.  1.
        -12    1    3    3    0    0 -0.17865320361E+00 -0.17629312673E+02  0.12419069984E+02  0.21565200708E+02  0.00000000000E+00 0.  1.
</event>
<event>
 7    1  0.3919732E-008  0.4614232E+02  0.7816164E-02  0.1320468E+00
        -11   -1    0    0    0    0  0.00000000000E+00  0.00000000000E+00  0.45593999997E+02  0.45594000000E+02  0.51100000000E-03 0.  1.
         11   -1    0    0    0    0 -0.00000000000E+00 -0.00000000000E+00 -0.45593999997E+02  0.45594000000E+02  0.51100000000E-03 0. -1.
    9900012    2    1    2    0    0 -0.22412088992E+02 -0.12877586646E+02 -0.36891455575E+02  0.46142318017E+02  0.10000002336E+02 0.  0.
        -12    1    1    2    0    0  0.22412088992E+02  0.12877586646E+02  0.36891455575E+02  0.45045681983E+02  0.00000000000E+00 0.  1.
         11    1    3    3    0    0 -0.50014368642E+00 -0.11708774910E+01 -0.54910143099E+00  0.13865822906E+01  0.51100000000E-03 0. -1.
        -11    1    3    3    0    0  0.44090041531E-01 -0.14497629416E+01 -0.59350436116E+00  0.15671643840E+01  0.51100000000E-03 0.  1.
         12    1    3    3    0    0 -0.21956035348E+02 -0.10256946213E+02 -0.35748849783E+02  0.43188571343E+02  0.00000000000E+00 0. -1.
</event>
<event>
 7    1  0.3919732E-008  0.4614232E+02  0.7816164E-02  0.1320468E+00
        -11   -1    0    0    0    0  0.00000000000E+00  0.00000000000E+00  0.45593999997E+02  0.45594000000E+02  0.51100000000E-03 0.  1.
         11   -1    0    0    0    0 -0.00000000000E+00 -0.00000000000E+00 -0.45593999997E+02  0.45594000000E+02  0.51100000000E-03 0. -1.
    9900012    2    1    2    0    0  0.30899175476E+02  0.42612155523E+01 -0.32499177033E+02  0.46142317511E+02  0.99999977215E+01 0.  0.
        -12    1    1    2    0    0 -0.30899175476E+02 -0.42612155523E+01  0.32499177033E+02  0.45045682489E+02  0.00000000000E+00 0.  1.
         11    1    3    3    0    0  0.65388802044E+01  0.26719769651E+01 -0.12599116409E+02  0.14444173558E+02  0.51100000000E-03 0.  1.
        -11    1    3    3    0    0  0.99676472917E+01  0.14886641545E+01 -0.10216260113E+02  0.14350682369E+02  0.51100000000E-03 0. -1.
         12    1    3    3    0    0  0.14392647979E+02  0.10057443274E+00 -0.96838005111E+01  0.17347461584E+02  0.00000000000E+00 0. -1.
</event>
<event>
 7    1  0.3919732E-008  0.4614232E+02  0.7816164E-02  0.1320468E+00
        -11   -1    0    0    0    0  0.00000000000E+00  0.00000000000E+00  0.45593999997E+02  0.45594000000E+02  0.51100000000E-03 0. -1.
         11   -1    0    0    0    0 -0.00000000000E+00 -0.00000000000E+00 -0.45593999997E+02  0.45594000000E+02  0.51100000000E-03 0.  1.
    9900012    2    1    2    0    0 -0.11812818067E+02 -0.10987186698E+02  0.42057728949E+02  0.46142317559E+02  0.99999981575E+01 0.  0.
        -12    1    1    2    0    0  0.11812818067E+02  0.10987186698E+02 -0.42057728949E+02  0.45045682441E+02  0.00000000000E+00 0.  1.
         11    1    3    3    0    0  0.34898380056E+00 -0.27719050530E+00  0.66699019289E-01  0.45063653822E+00  0.51100000000E-03 0. -1.
        -11    1    3    3    0    0 -0.47077562381E+01 -0.40759350245E+01  0.26817839802E+02  0.27531304855E+02  0.51100000000E-03 0.  1.
         12    1    3    3    0    0 -0.74540456292E+01 -0.66340611678E+01  0.15173190128E+02  0.18160376166E+02  0.00000000000E+00 0. -1.
</event>
<event>
 7    1  0.3919732E-008  0.4614232E+02  0.7816164E-02  0.1320468E+00
        -11   -1    0    0    0    0  0.00000000000E+00  0.00000000000E+00  0.45593999997E+02  0.45594000000E+02  0.51100000000E-03 0. -1.
         11   -1    0    0    0    0 -0.00000000000E+00 -0.00000000000E+00 -0.45593999997E+02  0.45594000000E+02  0.51100000000E-03 0.  1.
    9900012    2    1    2    0    0 -0.42111055422E+02  0.15117573327E+02  0.52183853903E+01  0.46142316987E+02  0.99999929374E+01 0.  0.
        -12    1    1    2    0    0  0.42111055422E+02 -0.15117573327E+02 -0.52183853903E+01  0.45045683013E+02  0.00000000000E+00 0.  1.
         11    1    3    3    0    0 -0.21346120373E+02  0.11419175437E+02  0.31076227604E+01  0.24407206766E+02  0.51100000000E-03 0. -1.
        -11    1    3    3    0    0 -0.20807293857E+02  0.41021497385E+01  0.21930216584E+01  0.21320892439E+02  0.51100000000E-03 0.  1.
        -12    1    3    3    0    0  0.42358807622E-01 -0.40375184801E+00 -0.82259028510E-01  0.41421778224E+00  0.00000000000E+00 0.  1.
</event>
<event>
 7    1  0.3919732E-008  0.4614231E+02  0.7816164E-02  0.1320468E+00
        -11   -1    0    0    0    0  0.00000000000E+00  0.00000000000E+00  0.45593999997E+02  0.45594000000E+02  0.51100000000E-03 0.  1.
         11   -1    0    0    0    0 -0.00000000000E+00 -0.00000000000E+00 -0.45593999997E+02  0.45594000000E+02  0.51100000000E-03 0. -1.
    9900012    2    1    2    0    0  0.51604515419E+00  0.15221166134E+02 -0.42392966155E+02  0.46142314518E+02  0.99999704302E+01 0.  0.
        -12    1    1    2    0    0 -0.51604515419E+00 -0.15221166134E+02  0.42392966155E+02  0.45045685482E+02  0.00000000000E+00 0.  1.
         11    1    3    3    0    0  0.29676292109E+01  0.82675327246E+01 -0.30608468231E+02  0.31843951517E+02  0.51100000000E-03 0. -1.
        -11    1    3    3    0    0 -0.17196684176E+01  0.91229927353E+00 -0.21262122580E+01  0.28827639963E+01  0.51100000000E-03 0.  1.
         12    1    3    3    0    0 -0.73191563913E+00  0.60413341359E+01 -0.96582856658E+01  0.11415599005E+02  0.00000000000E+00 0. -1.
</event>
<event>
 7    1  0.3919732E-008  0.4614232E+02  0.7816164E-02  0.1320468E+00
        -11   -1    0    0    0    0  0.00000000000E+00  0.00000000000E+00  0.45593999997E+02  0.45594000000E+02  0.51100000000E-03 0.  1.
         11   -1    0    0    0    0 -0.00000000000E+00 -0.00000000000E+00 -0.45593999997E+02  0.45594000000E+02  0.51100000000E-03 0. -1.
    9900012    2    1    2    0    0 -0.22347499853E+02  0.14531835297E+02 -0.36311549080E+02  0.46142316707E+02  0.99999903850E+01 0.  0.
        -12    1    1    2    0    0  0.22347499853E+02 -0.14531835297E+02  0.36311549080E+02  0.45045683293E+02  0.00000000000E+00 0.  1.
         11    1    3    3    0    0 -0.22533834750E+01  0.31087275940E+00 -0.59951550750E+01  0.64121964717E+01  0.51100000000E-03 0. -1.
        -11    1    3    3    0    0  0.43328092392E+00  0.42930047068E+00 -0.22107922646E+01  0.22933891844E+01  0.51100000000E-03 0.  1.
        -12    1    3    3    0    0 -0.20527397302E+02  0.13791662067E+02 -0.28105601740E+02  0.37436731051E+02  0.00000000000E+00 0.  1.
</event>
<event>
 7    1  0.3919732E-008  0.4614232E+02  0.7816164E-02  0.1320468E+00
        -11   -1    0    0    0    0  0.00000000000E+00  0.00000000000E+00  0.45593999997E+02  0.45594000000E+02  0.51100000000E-03 0.  1.
         11   -1    0    0    0    0 -0.00000000000E+00 -0.00000000000E+00 -0.45593999997E+02  0.45594000000E+02  0.51100000000E-03 0. -1.
    9900012    2    1    2    0    0  0.24508698562E+01  0.42907631283E+02 -0.13492293515E+02  0.46142316859E+02  0.99999917695E+01 0.  0.
        -12    1    1    2    0    0 -0.24508698562E+01 -0.42907631283E+02  0.13492293515E+02  0.45045683141E+02  0.00000000000E+00 0.  1.
         11    1    3    3    0    0  0.84151690223E+00  0.16713632818E+02 -0.30551862114E+01  0.17011403108E+02  0.51100000000E-03 0. -1.
        -11    1    3    3    0    0 -0.19011723098E+01  0.15087616707E+02 -0.36097288930E+01  0.15629484220E+02  0.51100000000E-03 0.  1.
         12    1    3    3    0    0  0.35105252638E+01  0.11106381758E+02 -0.68273784107E+01  0.13501429530E+02  0.00000000000E+00 0. -1.
</event>
<event>
 7    1  0.3919732E-008  0.4614232E+02  0.7816164E-02  0.1320468E+00
        -11   -1    0    0    0    0  0.00000000000E+00  0.00000000000E+00  0.45593999997E+02  0.45594000000E+02  0.51100000000E-03 0.  1.
         11   -1    0    0    0    0 -0.00000000000E+00 -0.00000000000E+00 -0.45593999997E+02  0.45594000000E+02  0.51100000000E-03 0. -1.
    9900012    2    1    2    0    0  0.13345919620E+02 -0.10941799636E+02 -0.41608616210E+02  0.46142317713E+02  0.99999995623E+01 0.  0.
        -12    1    1    2    0    0 -0.13345919620E+02  0.10941799636E+02  0.41608616210E+02  0.45045682287E+02  0.00000000000E+00 0.  1.
         11    1    3    3    0    0  0.17642709735E+01  0.53115877756E+00 -0.76480305672E+01  0.78668388526E+01  0.51100000000E-03 0. -1.
        -11    1    3    3    0    0  0.61228945256E+01 -0.15301794300E+01 -0.11959517445E+02  0.13522623423E+02  0.51100000000E-03 0.  1.
        -12    1    3    3    0    0  0.54587541209E+01 -0.99427789836E+01 -0.22001068198E+02  0.24752855438E+02  0.00000000000E+00 0.  1.
</event>
<event>
 7    1  0.3919732E-008  0.4614232E+02  0.7816164E-02  0.1320468E+00
        -11   -1    0    0    0    0  0.00000000000E+00  0.00000000000E+00  0.45593999997E+02  0.45594000000E+02  0.51100000000E-03 0.  1.
         11   -1    0    0    0    0 -0.00000000000E+00 -0.00000000000E+00 -0.45593999997E+02  0.45594000000E+02  0.51100000000E-03 0. -1.
    9900012    2    1    2    0    0  0.36785045856E+02  0.17322905085E+02 -0.19387903243E+02  0.46142318394E+02  0.10000005772E+02 0.  0.
        -12    1    1    2    0    0 -0.36785045856E+02 -0.17322905085E+02  0.19387903243E+02  0.45045681606E+02  0.00000000000E+00 0.  1.
         11    1    3    3    0    0  0.10708389743E+02  0.36336199053E+01 -0.97794121129E+01  0.14950241003E+02  0.51100000000E-03 0. -1.
        -11    1    3    3    0    0  0.64884603882E+01  0.49044918956E+01 -0.16683136663E+01  0.83028567201E+01  0.51100000000E-03 0.  1.
         12    1    3    3    0    0  0.19588195725E+02  0.87847932837E+01 -0.79401774639E+01  0.22889220671E+02  0.00000000000E+00 0. -1.
</event>
<event>
 7    1  0.3919732E-008  0.4614231E+02  0.7816164E-02  0.1320468E+00
        -11   -1    0    0    0    0  0.00000000000E+00  0.00000000000E+00  0.45593999997E+02  0.45594000000E+02  0.51100000000E-03 0.  1.
         11   -1    0    0    0    0 -0.00000000000E+00 -0.00000000000E+00 -0.45593999997E+02  0.45594000000E+02  0.51100000000E-03 0. -1.
    9900012    2    1    2    0    0 -0.42751596200E+02 -0.48252927655E+01 -0.13346595293E+02  0.46142311707E+02  0.99999447927E+01 0.  0.
        -12    1    1    2    0    0  0.42751596200E+02  0.48252927655E+01  0.13346595293E+02  0.45045688293E+02  0.00000000000E+00 0.  1.
         11    1    3    3    0    0 -0.15965025032E+02  0.17821066800E+01 -0.71940841904E+01  0.17601499257E+02  0.51100000000E-03 0. -1.
        -11    1    3    3    0    0 -0.12264246775E+02 -0.40793425535E+01 -0.11567981459E+01  0.12976554506E+02  0.51100000000E-03 0.  1.
        -12    1    3    3    0    0 -0.14522324392E+02 -0.25280568920E+01 -0.49957129563E+01  0.15564257944E+02  0.00000000000E+00 0.  1.
</event>
<event>
 7    1  0.3919732E-008  0.4614232E+02  0.7816164E-02  0.1320468E+00
        -11   -1    0    0    0    0  0.00000000000E+00  0.00000000000E+00  0.45593999997E+02  0.45594000000E+02  0.51100000000E-03 0. -1.
         11   -1    0    0    0    0 -0.00000000000E+00 -0.00000000000E+00 -0.45593999997E+02  0.45594000000E+02  0.51100000000E-03 0.  1.
    9900012    2    1    2    0    0  0.16182313764E+01 -0.45015294362E+02 -0.34367692359E+00  0.46142317486E+02  0.99999974908E+01 0.  0.
        -12    1    1    2    0    0 -0.16182313764E+01  0.45015294362E+02  0.34367692359E+00  0.45045682514E+02  0.00000000000E+00 0.  1.
         11    1    3    3    0    0  0.58252547288E-02 -0.36301531505E+01  0.13907864571E+01  0.38874584320E+01  0.51100000000E-03 0.  1.
        -11    1    3    3    0    0  0.10594981769E+01 -0.33870787170E+02 -0.45908972476E+01  0.34196916494E+02  0.51100000000E-03 0. -1.
         12    1    3    3    0    0  0.55290794479E+00 -0.75143540421E+01  0.28564338669E+01  0.80579425601E+01  0.00000000000E+00 0. -1.
</event>
<event>
 7    1  0.3919732E-008  0.4614232E+02  0.7816164E-02  0.1320468E+00
        -11   -1    0    0    0    0  0.00000000000E+00  0.00000000000E+00  0.45593999997E+02  0.45594000000E+02  0.51100000000E-03 0.  1.
         11   -1    0    0    0    0 -0.00000000000E+00 -0.00000000000E+00 -0.45593999997E+02  0.45594000000E+02  0.51100000000E-03 0. -1.
    9900012    2    1    2    0    0 -0.27290402079E+02 -0.16365974807E+02 -0.31882634206E+02  0.46142317178E+02  0.99999946823E+01 0.  0.
        -12    1    1    2    0    0  0.27290402079E+02  0.16365974807E+02  0.31882634206E+02  0.45045682822E+02  0.00000000000E+00 0.  1.
         11    1    3    3    0    0 -0.13226912623E+02 -0.66054959975E+01 -0.17566354890E+02  0.22959978643E+02  0.51100000000E-03 0. -1.
        -11    1    3    3    0    0 -0.46572263538E+01 -0.73210836581E+00 -0.63303826102E+01  0.78930022312E+01  0.51100000000E-03 0.  1.
        -12    1    3    3    0    0 -0.94062631021E+01 -0.90283704439E+01 -0.79858967058E+01  0.15289336304E+02  0.00000000000E+00 0.  1.
</event>
<event>
 7    1  0.3919732E-008  0.4614232E+02  0.7816164E-02  0.1320468E+00
        -11   -1    0    0    0    0  0.00000000000E+00  0.00000000000E+00  0.45593999997E+02  0.45594000000E+02  0.51100000000E-03 0.  1.
         11   -1    0    0    0    0 -0.00000000000E+00 -0.00000000000E+00 -0.45593999997E+02  0.45594000000E+02  0.51100000000E-03 0. -1.
    9900012    2    1    2    0    0  0.39496210597E+01 -0.25694011168E+01 -0.44798574500E+02  0.46142316457E+02  0.99999881058E+01 0.  0.
        -12    1    1    2    0    0 -0.39496210597E+01  0.25694011168E+01  0.44798574500E+02  0.45045683543E+02  0.00000000000E+00 0.  1.
         11    1    3    3    0    0 -0.12857867230E+01 -0.22080045375E+00 -0.33628435376E+01  0.36070371854E+01  0.51100000000E-03 0. -1.
        -11    1    3    3    0    0 -0.12982260566E+01 -0.26971908089E+01 -0.15546718093E+02  0.15832266827E+02  0.51100000000E-03 0.  1.
         12    1    3    3    0    0  0.65336338394E+01  0.34859014593E+00 -0.25889012870E+02  0.26703012444E+02  0.00000000000E+00 0. -1.
</event>
<event>
 7    1  0.3919732E-008  0.4614232E+02  0.7816164E-02  0.1320468E+00
        -11   -1    0    0    0    0  0.00000000000E+00  0.00000000000E+00  0.45593999997E+02  0.45594000000E+02  0.51100000000E-03 0.  1.
         11   -1    0    0    0    0 -0.00000000000E+00 -0.00000000000E+00 -0.45593999997E+02  0.45594000000E+02  0.51100000000E-03 0. -1.
    9900012    2    1    2    0    0 -0.24034489815E+02  0.90721471458E+01 -0.37002066679E+02  0.46142317710E+02  0.99999995332E+01 0.  0.
        -12    1    1    2    0    0  0.24034489815E+02 -0.90721471458E+01  0.37002066679E+02  0.45045682290E+02  0.00000000000E+00 0.  1.
         11    1    3    3    0    0 -0.10072024809E+02  0.13685286743E+01 -0.17023912044E+02  0.19827560012E+02  0.51100000000E-03 0. -1.
        -11    1    3    3    0    0 -0.98375125671E+00  0.26594453558E+01 -0.57254077824E+01  0.63891087541E+01  0.51100000000E-03 0.  1.
        -12    1    3    3    0    0 -0.12978713749E+02  0.50441731158E+01 -0.14252746852E+02  0.19925648944E+02  0.00000000000E+00 0.  1.
</event>
<event>
 7    1  0.3919732E-008  0.4614231E+02  0.7816164E-02  0.1320468E+00
        -11   -1    0    0    0    0  0.00000000000E+00  0.00000000000E+00  0.45593999997E+02  0.45594000000E+02  0.51100000000E-03 0. -1.
         11   -1    0    0    0    0 -0.00000000000E+00 -0.00000000000E+00 -0.45593999997E+02  0.45594000000E+02  0.51100000000E-03 0.  1.
    9900012    2    1    2    0    0 -0.36305973485E+01  0.12789532606E+01  0.44880919166E+02  0.46142313594E+02  0.99999620035E+01 0.  0.
        -12    1    1    2    0    0  0.36305973485E+01 -0.12789532606E+01 -0.44880919166E+02  0.45045686406E+02  0.00000000000E+00 0.  1.
         11    1    3    3    0    0 -0.19288116049E+01 -0.19322783392E+00  0.22026901798E+02  0.22112034151E+02  0.51100000000E-03 0. -1.
        -11    1    3    3    0    0 -0.35725610829E+01  0.32613814457E+01  0.14974061281E+02  0.15736019609E+02  0.51100000000E-03 0.  1.
         12    1    3    3    0    0  0.18707753392E+01 -0.17892003511E+01  0.78799560876E+01  0.82942598349E+01  0.00000000000E+00 0. -1.
</event>
<event>
 7    1  0.3919732E-008  0.4614232E+02  0.7816164E-02  0.1320468E+00
        -11   -1    0    0    0    0  0.00000000000E+00  0.00000000000E+00  0.45593999997E+02  0.45594000000E+02  0.51100000000E-03 0.  1.
         11   -1    0    0    0    0 -0.00000000000E+00 -0.00000000000E+00 -0.45593999997E+02  0.45594000000E+02  0.51100000000E-03 0. -1.
    9900012    2    1    2    0    0 -0.11150478781E+02  0.30839626755E+02 -0.30881999585E+02  0.46142315925E+02  0.99999832534E+01 0.  0.
        -12    1    1    2    0    0  0.11150478781E+02 -0.30839626755E+02  0.30881999585E+02  0.45045684075E+02  0.00000000000E+00 0.  1.
         11    1    3    3    0    0 -0.43770209461E+01  0.55637749585E+01 -0.61277309767E+01  0.93628516669E+01  0.51100000000E-03 0. -1.
        -11    1    3    3    0    0 -0.19870506219E+01  0.40470196931E+01 -0.11062983708E+01  0.46422661402E+01  0.51100000000E-03 0.  1.
         12    1    3    3    0    0 -0.47864072134E+01  0.21228832103E+02 -0.23647970238E+02  0.32137198118E+02  0.00000000000E+00 0. -1.
</event>
<event>
 7    1  0.3919732E-008  0.4614232E+02  0.7816164E-02  0.1320468E+00
        -11   -1    0    0    0    0  0.00000000000E+00  0.00000000000E+00  0.45593999997E+02  0.45594000000E+02  0.51100000000E-03 0. -1.
         11   -1    0    0    0    0 -0.00000000000E+00 -0.00000000000E+00 -0.45593999997E+02  0.45594000000E+02  0.51100000000E-03 0.  1.
    9900012    2    1    2    0    0 -0.14473636954E+02  0.41885139201E+02  0.80785172451E+01  0.46142317704E+02  0.99999994828E+01 0.  0.
        -12    1    1    2    0    0  0.14473636954E+02 -0.41885139201E+02 -0.80785172451E+01  0.45045682296E+02  0.00000000000E+00 0.  1.
         11    1    3    3    0    0 -0.93589708806E+01  0.28335734422E+02  0.74135480042E+01  0.30748412568E+02  0.51100000000E-03 0. -1.
        -11    1    3    3    0    0 -0.30146823640E+01  0.33967136445E+01  0.19585928515E+01  0.49459134199E+01  0.51100000000E-03 0.  1.
         12    1    3    3    0    0 -0.20999837092E+01  0.10152691135E+02 -0.12936236106E+01  0.10447991716E+02  0.00000000000E+00 0. -1.
</event>
<event>
 7    1  0.3919732E-008  0.4614232E+02  0.7816164E-02  0.1320468E+00
        -11   -1    0    0    0    0  0.00000000000E+00  0.00000000000E+00  0.45593999997E+02  0.45594000000E+02  0.51100000000E-03 0.  1.
         11   -1    0    0    0    0 -0.00000000000E+00 -0.00000000000E+00 -0.45593999997E+02  0.45594000000E+02  0.51100000000E-03 0. -1.
    9900012    2    1    2    0    0  0.32025655637E+02 -0.30937497759E+02 -0.68075095766E+01  0.46142316819E+02  0.99999914082E+01 0.  0.
        -12    1    1    2    0    0 -0.32025655637E+02  0.30937497759E+02  0.68075095766E+01  0.45045683181E+02  0.00000000000E+00 0.  1.
         11    1    3    3    0    0  0.23461542952E+02 -0.24067796374E+02 -0.37078853122E+01  0.33814955770E+02  0.51100000000E-03 0. -1.
        -11    1    3    3    0    0  0.41818858635E+01 -0.48184192707E+01 -0.38188256674E+01  0.74356414238E+01  0.51100000000E-03 0.  1.
        -12    1    3    3    0    0  0.43822268214E+01 -0.20512821148E+01  0.71920140302E+00  0.48917196247E+01  0.00000000000E+00 0.  1.
</event>
<event>
 7    1  0.3919732E-008  0.4614232E+02  0.7816164E-02  0.1320468E+00
        -11   -1    0    0    0    0  0.00000000000E+00  0.00000000000E+00  0.45593999997E+02  0.45594000000E+02  0.51100000000E-03 0.  1.
         11   -1    0    0    0    0 -0.00000000000E+00 -0.00000000000E+00 -0.45593999997E+02  0.45594000000E+02  0.51100000000E-03 0. -1.
    9900012    2    1    2    0    0  0.27780415563E+02  0.10174167808E+01 -0.35444698239E+02  0.46142320307E+02  0.10000023215E+02 0.  0.
        -12    1    1    2    0    0 -0.27780415563E+02 -0.10174167808E+01  0.35444698239E+02  0.45045679693E+02  0.00000000000E+00 0.  1.
         11    1    3    3    0    0  0.24718636631E+02  0.21891915288E+01 -0.33797625899E+02  0.41929501227E+02  0.51100000000E-03 0. -1.
        -11    1    3    3    0    0  0.14437974522E+01  0.45654602926E+00 -0.27652549291E+00  0.15393024294E+01  0.51100000000E-03 0.  1.
        -12    1    3    3    0    0  0.16179814802E+01 -0.16283207773E+01 -0.13705468468E+01  0.26735166510E+01  0.00000000000E+00 0.  1.
</event>
<event>
 7    1  0.3919732E-008  0.4614232E+02  0.7816164E-02  0.1320468E+00
        -11   -1    0    0    0    0  0.00000000000E+00  0.00000000000E+00  0.45593999997E+02  0.45594000000E+02  0.51100000000E-03 0.  1.
         11   -1    0    0    0    0 -0.00000000000E+00 -0.00000000000E+00 -0.45593999997E+02  0.45594000000E+02  0.51100000000E-03 0. -1.
    9900012    2    1    2    0    0  0.67581553415E+00  0.38042779833E+02 -0.24112314967E+02  0.46142316998E+02  0.99999930413E+01 0.  0.
        -12    1    1    2    0    0 -0.67581553415E+00 -0.38042779833E+02  0.24112314967E+02  0.45045683002E+02  0.00000000000E+00 0.  1.
         11    1    3    3    0    0 -0.17657071493E+01  0.31210024734E+02 -0.19928809446E+02  0.37072102878E+02  0.51100000000E-03 0. -1.
        -11    1    3    3    0    0  0.20954445041E+01  0.66008127094E+01 -0.25428887111E+01  0.73775266419E+01  0.51100000000E-03 0.  1.
         12    1    3    3    0    0  0.34607817929E+00  0.23194238926E+00 -0.16406168107E+01  0.16926874779E+01  0.00000000000E+00 0. -1.
</event>
<event>
 7    1  0.3919732E-008  0.4614232E+02  0.7816164E-02  0.1320468E+00
        -11   -1    0    0    0    0  0.00000000000E+00  0.00000000000E+00  0.45593999997E+02  0.45594000000E+02  0.51100000000E-03 0.  1.
         11   -1    0    0    0    0 -0.00000000000E+00 -0.00000000000E+00 -0.45593999997E+02  0.45594000000E+02  0.51100000000E-03 0. -1.
    9900012    2    1    2    0    0 -0.97993825406E+01  0.29217452283E+02 -0.32854619980E+02  0.46142317964E+02  0.10000001849E+02 0.  0.
        -12    1    1    2    0    0  0.97993825406E+01 -0.29217452283E+02  0.32854619980E+02  0.45045682036E+02  0.00000000000E+00 0.  1.
         11    1    3    3    0    0  0.56411969535E+00  0.94525502031E+01 -0.60165638306E+01  0.11219089846E+02  0.51100000000E-03 0. -1.
        -11    1    3    3    0    0 -0.41670035382E+01  0.75541369003E+01 -0.11198983255E+02  0.14136694416E+02  0.51100000000E-03 0.  1.
         12    1    3    3    0    0 -0.61964986978E+01  0.12210765180E+02 -0.15639072894E+02  0.20786533703E+02  0.00000000000E+00 0. -1.
</event>
<event>
 7    1  0.3919732E-008  0.4614231E+02  0.7816164E-02  0.1320468E+00
        -11   -1    0    0    0    0  0.00000000000E+00  0.00000000000E+00  0.45593999997E+02  0.45594000000E+02  0.51100000000E-03 0. -1.
         11   -1    0    0    0    0 -0.00000000000E+00 -0.00000000000E+00 -0.45593999997E+02  0.45594000000E+02  0.51100000000E-03 0.  1.
    9900012    2    1    2    0    0 -0.26733409378E+02  0.34628976009E+02 -0.10736546244E+02  0.46142305626E+02  0.99998893403E+01 0.  0.
        -12    1    1    2    0    0  0.26733409378E+02 -0.34628976009E+02  0.10736546244E+02  0.45045694374E+02  0.00000000000E+00 0.  1.
         11    1    3    3    0    0 -0.86022325587E+01  0.79749676328E+01 -0.36382914421E+00  0.11735880267E+02  0.51100000000E-03 0.  1.
        -11    1    3    3    0    0 -0.54269809502E+01  0.13249451438E+02 -0.51185947007E+01  0.15205265457E+02  0.51100000000E-03 0. -1.
        -12    1    3    3    0    0 -0.12704195869E+02  0.13404556938E+02 -0.52541223995E+01  0.19201159902E+02  0.00000000000E+00 0.  1.
</event>
<event>
 7    1  0.3919732E-008  0.4614232E+02  0.7816164E-02  0.1320468E+00
        -11   -1    0    0    0    0  0.00000000000E+00  0.00000000000E+00  0.45593999997E+02  0.45594000000E+02  0.51100000000E-03 0. -1.
         11   -1    0    0    0    0 -0.00000000000E+00 -0.00000000000E+00 -0.45593999997E+02  0.45594000000E+02  0.51100000000E-03 0.  1.
    9900012    2    1    2    0    0  0.12374706916E+02  0.19179625352E+02  0.38834546988E+02  0.46142318302E+02  0.10000004929E+02 0.  0.
        -12    1    1    2    0    0 -0.12374706916E+02 -0.19179625352E+02 -0.38834546988E+02  0.45045681698E+02  0.00000000000E+00 0.  1.
         11    1    3    3    0    0  0.13025640220E+02  0.16271449400E+02  0.33401195125E+02  0.39370892862E+02  0.51100000000E-03 0. -1.
        -11    1    3    3    0    0  0.34794323756E-01  0.31669967661E+01  0.50036962833E+01  0.59218287646E+01  0.51100000000E-03 0.  1.
         12    1    3    3    0    0 -0.68572762728E+00 -0.25882081461E+00  0.42965557993E+00  0.84959667505E+00  0.00000000000E+00 0. -1.
</event>
<event>
 7    1  0.3919732E-008  0.4614232E+02  0.7816164E-02  0.1320468E+00
        -11   -1    0    0    0    0  0.00000000000E+00  0.00000000000E+00  0.45593999997E+02  0.45594000000E+02  0.51100000000E-03 0.  1.
         11   -1    0    0    0    0 -0.00000000000E+00 -0.00000000000E+00 -0.45593999997E+02  0.45594000000E+02  0.51100000000E-03 0. -1.
    9900012    2    1    2    0    0 -0.29686936463E+02 -0.88961622165E+01 -0.32690326694E+02  0.46142319207E+02  0.10000013186E+02 0.  0.
        -12    1    1    2    0    0  0.29686936463E+02  0.88961622165E+01  0.32690326694E+02  0.45045680793E+02  0.00000000000E+00 0.  1.
         11    1    3    3    0    0 -0.15144304270E+02 -0.49637149582E+01 -0.19262285721E+02  0.25000481384E+02  0.51100000000E-03 0. -1.
        -11    1    3    3    0    0 -0.74425924227E+01  0.59490362589E+00 -0.38912337001E+01  0.84194888363E+01  0.51100000000E-03 0.  1.
        -12    1    3    3    0    0 -0.71000397707E+01 -0.45273508842E+01 -0.95368072729E+01  0.12722348986E+02  0.00000000000E+00 0.  1.
</event>
<event>
 7    1  0.3919732E-008  0.4614232E+02  0.7816164E-02  0.1320468E+00
        -11   -1    0    0    0    0  0.00000000000E+00  0.00000000000E+00  0.45593999997E+02  0.45594000000E+02  0.51100000000E-03 0.  1.
         11   -1    0    0    0    0 -0.00000000000E+00 -0.00000000000E+00 -0.45593999997E+02  0.45594000000E+02  0.51100000000E-03 0. -1.
    9900012    2    1    2    0    0  0.39160066452E+02 -0.73678275449E+00 -0.22249940149E+02  0.46142317744E+02  0.99999998407E+01 0.  0.
        -12    1    1    2    0    0 -0.39160066452E+02  0.73678275449E+00  0.22249940149E+02  0.45045682256E+02  0.00000000000E+00 0.  1.
         11    1    3    3    0    0  0.28280035668E+02 -0.27705735175E+01 -0.16174447123E+02  0.32696318371E+02  0.51100000000E-03 0. -1.
        -11    1    3    3    0    0  0.48010934156E+01 -0.26421551644E+00 -0.48559267694E+01  0.68337641806E+01  0.51100000000E-03 0.  1.
        -12    1    3    3    0    0  0.60789373679E+01  0.22980062795E+01 -0.12195662558E+01  0.66122351921E+01  0.00000000000E+00 0.  1.
</event>
<event>
 7    1  0.3919732E-008  0.4614232E+02  0.7816164E-02  0.1320468E+00
        -11   -1    0    0    0    0  0.00000000000E+00  0.00000000000E+00  0.45593999997E+02  0.45594000000E+02  0.51100000000E-03 0.  1.
         11   -1    0    0    0    0 -0.00000000000E+00 -0.00000000000E+00 -0.45593999997E+02  0.45594000000E+02  0.51100000000E-03 0. -1.
    9900012    2    1    2    0    0  0.18778411007E+02  0.53625018538E+01 -0.40592219947E+02  0.46142318006E+02  0.10000002233E+02 0.  0.
        -12    1    1    2    0    0 -0.18778411007E+02 -0.53625018538E+01  0.40592219947E+02  0.45045681994E+02  0.00000000000E+00 0.  1.
         11    1    3    3    0    0  0.12618698577E+02  0.53190751166E+01 -0.30305843024E+02  0.33256100727E+02  0.51100000000E-03 0. -1.
        -11    1    3    3    0    0  0.16153042450E+01 -0.34276555807E+00 -0.18914181575E-01  0.16513794352E+01  0.51100000000E-03 0.  1.
        -12    1    3    3    0    0  0.45444081850E+01  0.38619229526E+00 -0.10267462741E+02  0.11234837844E+02  0.00000000000E+00 0.  1.
</event>
<event>
 7    1  0.3919732E-008  0.4614232E+02  0.7816164E-02  0.1320468E+00
        -11   -1    0    0    0    0  0.00000000000E+00  0.00000000000E+00  0.45593999997E+02  0.45594000000E+02  0.51100000000E-03 0. -1.
         11   -1    0    0    0    0 -0.00000000000E+00 -0.00000000000E+00 -0.45593999997E+02  0.45594000000E+02  0.51100000000E-03 0.  1.
    9900012    2    1    2    0    0 -0.38795283091E+02  0.16478633572E+02  0.15890065363E+02  0.46142317279E+02  0.99999956082E+01 0.  0.
        -12    1    1    2    0    0  0.38795283091E+02 -0.16478633572E+02 -0.15890065363E+02  0.45045682721E+02  0.00000000000E+00 0.  1.
         11    1    3    3    0    0 -0.10535388552E+02  0.58911010765E+01  0.11629866074E+00  0.12071164379E+02  0.51100000000E-03 0. -1.
        -11    1    3    3    0    0 -0.13681906996E+02  0.47085904841E+01  0.70884077144E+01  0.16112446356E+02  0.51100000000E-03 0.  1.
        -12    1    3    3    0    0 -0.14577987543E+02  0.58789420109E+01  0.86853589883E+01  0.17958706544E+02  0.00000000000E+00 0.  1.
</event>
<event>
 7    1  0.3919732E-008  0.4614233E+02  0.7816164E-02  0.1320468E+00
        -11   -1    0    0    0    0  0.00000000000E+00  0.00000000000E+00  0.45593999997E+02  0.45594000000E+02  0.51100000000E-03 0.  1.
         11   -1    0    0    0    0 -0.00000000000E+00 -0.00000000000E+00 -0.45593999997E+02  0.45594000000E+02  0.51100000000E-03 0. -1.
    9900012    2    1    2    0    0 -0.21376926619E+02  0.13680382407E+02 -0.37215411164E+02  0.46142326705E+02  0.10000081558E+02 0.  0.
        -12    1    1    2    0    0  0.21376926619E+02 -0.13680382407E+02  0.37215411164E+02  0.45045673295E+02  0.00000000000E+00 0.  1.
         11    1    3    3    0    0 -0.35555200966E+01  0.19721221066E+01 -0.82674121078E+01  0.92130935077E+01  0.51100000000E-03 0. -1.
        -11    1    3    3    0    0 -0.14136945407E+02  0.10224666781E+02 -0.27752881858E+02  0.32781389353E+02  0.51100000000E-03 0.  1.
        -12    1    3    3    0    0 -0.36844611151E+01  0.14835935191E+01 -0.11951171984E+01  0.41478438443E+01  0.00000000000E+00 0.  1.
</event>
<event>
 7    1  0.3919732E-008  0.4614232E+02  0.7816164E-02  0.1320468E+00
        -11   -1    0    0    0    0  0.00000000000E+00  0.00000000000E+00  0.45593999997E+02  0.45594000000E+02  0.51100000000E-03 0. -1.
         11   -1    0    0    0    0 -0.00000000000E+00 -0.00000000000E+00 -0.45593999997E+02  0.45594000000E+02  0.51100000000E-03 0.  1.
    9900012    2    1    2    0    0 -0.12077233227E+02  0.23433395922E+02  0.36525740790E+02  0.46142319330E+02  0.10000014302E+02 0.  0.
        -12    1    1    2    0    0  0.12077233227E+02 -0.23433395922E+02 -0.36525740790E+02  0.45045680670E+02  0.00000000000E+00 0.  1.
         11    1    3    3    0    0 -0.63807310522E+01  0.15106659750E+02  0.19918907355E+02  0.25800925721E+02  0.51100000000E-03 0. -1.
        -11    1    3    3    0    0 -0.63941351266E+01  0.47770610229E+01  0.12841542678E+02  0.15119870854E+02  0.51100000000E-03 0.  1.
         12    1    3    3    0    0  0.69763295210E+00  0.35496751483E+01  0.37652907569E+01  0.52215227547E+01  0.00000000000E+00 0. -1.
</event>
<event>
 7    1  0.3919732E-008  0.4614232E+02  0.7816164E-02  0.1320468E+00
        -11   -1    0    0    0    0  0.00000000000E+00  0.00000000000E+00  0.45593999997E+02  0.45594000000E+02  0.51100000000E-03 0.  1.
         11   -1    0    0    0    0 -0.00000000000E+00 -0.00000000000E+00 -0.45593999997E+02  0.45594000000E+02  0.51100000000E-03 0. -1.
    9900012    2    1    2    0    0 -0.63309173478E+01  0.44555659187E+02 -0.19560819023E+01  0.46142317227E+02  0.99999951335E+01 0.  0.
        -12    1    1    2    0    0  0.63309173478E+01 -0.44555659187E+02  0.19560819023E+01  0.45045682773E+02  0.00000000000E+00 0.  1.
         11    1    3    3    0    0 -0.45259433517E+01  0.14010538721E+02 -0.91939918280E+00  0.14752106751E+02  0.51100000000E-03 0. -1.
        -11    1    3    3    0    0 -0.35385764729E+01  0.82517072079E+01  0.36266002563E+00  0.89857508231E+01  0.51100000000E-03 0.  1.
         12    1    3    3    0    0  0.17336024769E+01  0.22293413258E+02 -0.13993427451E+01  0.22404459653E+02  0.00000000000E+00 0. -1.
</event>
<event>
 7    1  0.3919732E-008  0.4614232E+02  0.7816164E-02  0.1320468E+00
        -11   -1    0    0    0    0  0.00000000000E+00  0.00000000000E+00  0.45593999997E+02  0.45594000000E+02  0.51100000000E-03 0.  1.
         11   -1    0    0    0    0 -0.00000000000E+00 -0.00000000000E+00 -0.45593999997E+02  0.45594000000E+02  0.51100000000E-03 0. -1.
    9900012    2    1    2    0    0  0.21482134231E+02  0.32005874388E+02 -0.23307840698E+02  0.46142317360E+02  0.99999963411E+01 0.  0.
        -12    1    1    2    0    0 -0.21482134231E+02 -0.32005874388E+02  0.23307840698E+02  0.45045682640E+02  0.00000000000E+00 0.  1.
         11    1    3    3    0    0  0.17195715144E+01  0.16220456404E+01 -0.28619452565E+01  0.37119656741E+01  0.51100000000E-03 0. -1.
        -11    1    3    3    0    0  0.18608271366E+02  0.24621588258E+02 -0.19421978730E+02  0.36465101530E+02  0.51100000000E-03 0.  1.
         12    1    3    3    0    0  0.11542913510E+01  0.57622404895E+01 -0.10239167122E+01  0.59652501553E+01  0.00000000000E+00 0. -1.
</event>
<event>
 7    1  0.3967149E-008  0.4614232E+02  0.7816164E-02  0.1320468E+00
        -11   -1    0    0    0    0  0.00000000000E+00  0.00000000000E+00  0.45593999997E+02  0.45594000000E+02  0.51100000000E-03 0. -1.
         11   -1    0    0    0    0 -0.00000000000E+00 -0.00000000000E+00 -0.45593999997E+02  0.45594000000E+02  0.51100000000E-03 0.  1.
    9900012    2    1    2    0    0 -0.38751071484E+01 -0.38176595528E+02  0.23593317071E+02  0.46142317500E+02  0.99999976154E+01 0.  0.
        -12    1    1    2    0    0  0.38751071484E+01  0.38176595528E+02 -0.23593317071E+02  0.45045682500E+02  0.00000000000E+00 0.  1.
         11    1    3    3    0    0 -0.53956575727E+01 -0.18942440544E+02  0.13868299722E+02  0.24088563923E+02  0.51100000000E-03 0. -1.
        -11    1    3    3    0    0  0.12081625916E+00 -0.43576975971E+01  0.43925527481E+01  0.61885898896E+01  0.51100000000E-03 0.  1.
        -12    1    3    3    0    0  0.13997341651E+01 -0.14876457387E+02  0.53324646011E+01  0.15865163687E+02  0.00000000000E+00 0.  1.
</event>
<event>
 7    1  0.3919732E-008  0.4614231E+02  0.7816164E-02  0.1320468E+00
        -11   -1    0    0    0    0  0.00000000000E+00  0.00000000000E+00  0.45593999997E+02  0.45594000000E+02  0.51100000000E-03 0.  1.
         11   -1    0    0    0    0 -0.00000000000E+00 -0.00000000000E+00 -0.45593999997E+02  0.45594000000E+02  0.51100000000E-03 0. -1.
    9900012    2    1    2    0    0 -0.17572444098E+02 -0.48715679408E+01 -0.41189694631E+02  0.46142313085E+02  0.99999573627E+01 0.  0.
        -12    1    1    2    0    0  0.17572444098E+02  0.48715679408E+01  0.41189694631E+02  0.45045686915E+02  0.00000000000E+00 0.  1.
         11    1    3    3    0    0 -0.39412264384E+01  0.13146651722E+01 -0.11859316972E+02  0.12566026009E+02  0.51100000000E-03 0. -1.
        -11    1    3    3    0    0 -0.30681165182E+01 -0.19478412581E+01 -0.24426601085E+01  0.43788141320E+01  0.51100000000E-03 0.  1.
        -12    1    3    3    0    0 -0.10563101142E+02 -0.42383918549E+01 -0.26887717551E+02  0.29197472944E+02  0.00000000000E+00 0.  1.
</event>
<event>
 7    1  0.3919732E-008  0.4614231E+02  0.7816164E-02  0.1320468E+00
        -11   -1    0    0    0    0  0.00000000000E+00  0.00000000000E+00  0.45593999997E+02  0.45594000000E+02  0.51100000000E-03 0.  1.
         11   -1    0    0    0    0 -0.00000000000E+00 -0.00000000000E+00 -0.45593999997E+02  0.45594000000E+02  0.51100000000E-03 0. -1.
    9900012    2    1    2    0    0  0.18970410815E+02  0.36658155039E+02 -0.18039316539E+02  0.46142314762E+02  0.99999726548E+01 0.  0.
        -12    1    1    2    0    0 -0.18970410815E+02 -0.36658155039E+02  0.18039316539E+02  0.45045685238E+02  0.00000000000E+00 0.  1.
         11    1    3    3    0    0  0.62622245300E+01  0.16382781354E+02 -0.63164819155E+01  0.18641591268E+02  0.51100000000E-03 0. -1.
        -11    1    3    3    0    0  0.17028545784E+01  0.84059340183E+01 -0.28254893172E+01  0.90301068973E+01  0.51100000000E-03 0.  1.
         12    1    3    3    0    0  0.11005331706E+02  0.11869439666E+02 -0.88973453064E+01  0.18470616597E+02  0.00000000000E+00 0. -1.
</event>
<event>
 7    1  0.3919732E-008  0.4614232E+02  0.7816164E-02  0.1320468E+00
        -11   -1    0    0    0    0  0.00000000000E+00  0.00000000000E+00  0.45593999997E+02  0.45594000000E+02  0.51100000000E-03 0.  1.
         11   -1    0    0    0    0 -0.00000000000E+00 -0.00000000000E+00 -0.45593999997E+02  0.45594000000E+02  0.51100000000E-03 0. -1.
    9900012    2    1    2    0    0 -0.33457267618E+02 -0.98992010363E+01 -0.28490885314E+02  0.46142317814E+02  0.10000000483E+02 0.  0.
        -12    1    1    2    0    0  0.33457267618E+02  0.98992010363E+01  0.28490885314E+02  0.45045682186E+02  0.00000000000E+00 0.  1.
         11    1    3    3    0    0 -0.64666174370E+01 -0.67468091289E+00 -0.80521829991E+01  0.10349395476E+02  0.51100000000E-03 0. -1.
        -11    1    3    3    0    0 -0.26616411028E+02 -0.99506264050E+01 -0.20390600319E+02  0.34974631999E+02  0.51100000000E-03 0.  1.
        -12    1    3    3    0    0 -0.37423915291E+00  0.72610628166E+00 -0.48101995862E-01  0.81829033835E+00  0.00000000000E+00 0.  1.
</event>
<event>
 7    1  0.3919732E-008  0.4614232E+02  0.7816164E-02  0.1320468E+00
        -11   -1    0    0    0    0  0.00000000000E+00  0.00000000000E+00  0.45593999997E+02  0.45594000000E+02  0.51100000000E-03 0.  1.
         11   -1    0    0    0    0 -0.00000000000E+00 -0.00000000000E+00 -0.45593999997E+02  0.45594000000E+02  0.51100000000E-03 0. -1.
    9900012    2    1    2    0    0  0.83833130707E+01  0.41049874480E+01 -0.44067932117E+02  0.46142317620E+02  0.99999987155E+01 0.  0.
        -12    1    1    2    0    0 -0.83833130707E+01 -0.41049874480E+01  0.44067932117E+02  0.45045682380E+02  0.00000000000E+00 0.  1.
         11    1    3    3    0    0  0.15524829938E+01 -0.12087453574E+01 -0.60858616803E+01  0.63960129329E+01  0.51100000000E-03 0. -1.
        -11    1    3    3    0    0  0.15775443685E+01  0.86443885286E+00 -0.86468020807E+00  0.19958889970E+01  0.51100000000E-03 0.  1.
         12    1    3    3    0    0  0.52532857084E+01  0.44492939526E+01 -0.37117390229E+02  0.37750415690E+02  0.00000000000E+00 0. -1.
</event>
<event>
 7    1  0.3919732E-008  0.4614232E+02  0.7816164E-02  0.1320468E+00
        -11   -1    0    0    0    0  0.00000000000E+00  0.00000000000E+00  0.45593999997E+02  0.45594000000E+02  0.51100000000E-03 0.  1.
         11   -1    0    0    0    0 -0.00000000000E+00 -0.00000000000E+00 -0.45593999997E+02  0.45594000000E+02  0.51100000000E-03 0. -1.
    9900012    2    1    2    0    0  0.24940761918E+02 -0.31690793909E+02 -0.20069017484E+02  0.46142317783E+02  0.10000000200E+02 0.  0.
        -12    1    1    2    0    0 -0.24940761918E+02  0.31690793909E+02  0.20069017484E+02  0.45045682217E+02  0.00000000000E+00 0.  1.
         11    1    3    3    0    0  0.39410262805E+01 -0.35167280647E+01 -0.63430925441E+00  0.53199072282E+01  0.51100000000E-03 0. -1.
        -11    1    3    3    0    0  0.17287247296E+02 -0.18977280289E+02 -0.11536409613E+02  0.28143824070E+02  0.51100000000E-03 0.  1.
         12    1    3    3    0    0  0.37124883414E+01 -0.91967855549E+01 -0.78982986162E+01  0.12678586485E+02  0.00000000000E+00 0. -1.
</event>
<event>
 7    1  0.3919732E-008  0.4614232E+02  0.7816164E-02  0.1320468E+00
        -11   -1    0    0    0    0  0.00000000000E+00  0.00000000000E+00  0.45593999997E+02  0.45594000000E+02  0.51100000000E-03 0.  1.
         11   -1    0    0    0    0 -0.00000000000E+00 -0.00000000000E+00 -0.45593999997E+02  0.45594000000E+02  0.51100000000E-03 0. -1.
    9900012    2    1    2    0    0  0.18061144678E+02 -0.25211073465E+02 -0.32669717425E+02  0.46142316422E+02  0.99999877922E+01 0.  0.
        -12    1    1    2    0    0 -0.18061144678E+02  0.25211073465E+02  0.32669717425E+02  0.45045683578E+02  0.00000000000E+00 0.  1.
         11    1    3    3    0    0  0.75206181398E+01 -0.50650341518E+01 -0.10467362085E+02  0.13848463361E+02  0.51100000000E-03 0. -1.
        -11    1    3    3    0    0  0.28596418749E+01 -0.13828814438E+01 -0.29757733228E+01  0.43526015060E+01  0.51100000000E-03 0.  1.
         12    1    3    3    0    0  0.76808846637E+01 -0.18763157870E+02 -0.19226582017E+02  0.27941251556E+02  0.00000000000E+00 0. -1.
</event>
<event>
 7    1  0.3919732E-008  0.4614232E+02  0.7816164E-02  0.1320468E+00
        -11   -1    0    0    0    0  0.00000000000E+00  0.00000000000E+00  0.45593999997E+02  0.45594000000E+02  0.51100000000E-03 0.  1.
         11   -1    0    0    0    0 -0.00000000000E+00 -0.00000000000E+00 -0.45593999997E+02  0.45594000000E+02  0.51100000000E-03 0. -1.
    9900012    2    1    2    0    0 -0.22269888337E+02 -0.37568911717E+02  0.11033695056E+02  0.46142317846E+02  0.10000000777E+02 0.  0.
        -12    1    1    2    0    0  0.22269888337E+02  0.37568911717E+02 -0.11033695056E+02  0.45045682154E+02  0.00000000000E+00 0.  1.
         11    1    3    3    0    0 -0.78310879935E+01 -0.61188173831E+01  0.31372086977E+01  0.10421513518E+02  0.51100000000E-03 0. -1.
        -11    1    3    3    0    0 -0.88847910670E+01 -0.17657556186E+02  0.63988793957E+01  0.20776776953E+02  0.51100000000E-03 0.  1.
         12    1    3    3    0    0 -0.55540092765E+01 -0.13792538147E+02  0.14976069622E+01  0.14944027375E+02  0.00000000000E+00 0. -1.
</event>
<event>
 7    1  0.3919732E-008  0.4614232E+02  0.7816164E-02  0.1320468E+00
        -11   -1    0    0    0    0  0.00000000000E+00  0.00000000000E+00  0.45593999997E+02  0.45594000000E+02  0.51100000000E-03 0.  1.
         11   -1    0    0    0    0 -0.00000000000E+00 -0.00000000000E+00 -0.45593999997E+02  0.45594000000E+02  0.51100000000E-03 0. -1.
    9900012    2    1    2    0    0  0.28646755570E+02  0.33340330682E+02 -0.98437427552E+01  0.46142317342E+02  0.99999961818E+01 0.  0.
        -12    1    1    2    0    0 -0.28646755570E+02 -0.33340330682E+02  0.98437427552E+01  0.45045682658E+02  0.00000000000E+00 0.  1.
         11    1    3    3    0    0  0.22655453190E+01  0.63341840754E+01 -0.11885471923E+01  0.68313416093E+01  0.51100000000E-03 0. -1.
        -11    1    3    3    0    0 -0.41623182231E+00  0.47085919061E+00 -0.58544246956E-01  0.63117746891E+00  0.51100000000E-03 0.  1.
         12    1    3    3    0    0  0.26797442073E+02  0.26535287416E+02 -0.85966513159E+01  0.38679798264E+02  0.00000000000E+00 0. -1.
</event>
<event>
 7    1  0.3919732E-008  0.4614232E+02  0.7816164E-02  0.1320468E+00
        -11   -1    0    0    0    0  0.00000000000E+00  0.00000000000E+00  0.45593999997E+02  0.45594000000E+02  0.51100000000E-03 0.  1.
         11   -1    0    0    0    0 -0.00000000000E+00 -0.00000000000E+00 -0.45593999997E+02  0.45594000000E+02  0.51100000000E-03 0. -1.
    9900012    2    1    2    0    0  0.10431704325E+02  0.13946170716E+02 -0.41542716597E+02  0.46142318353E+02  0.10000005399E+02 0.  0.
        -12    1    1    2    0    0 -0.10431704325E+02 -0.13946170716E+02  0.41542716597E+02  0.45045681647E+02  0.00000000000E+00 0.  1.
         11    1    3    3    0    0  0.13812907135E+01  0.73378124717E+01 -0.15031177587E+02  0.16783556114E+02  0.51100000000E-03 0. -1.
        -11    1    3    3    0    0  0.64306142142E+01  0.23510744098E+01 -0.10094149773E+02  0.12197221403E+02  0.51100000000E-03 0.  1.
         12    1    3    3    0    0  0.26197993971E+01  0.42572838343E+01 -0.16417389237E+02  0.17161540837E+02  0.00000000000E+00 0. -1.
</event>
<event>
 7    1  0.3919732E-008  0.4614232E+02  0.7816164E-02  0.1320468E+00
        -11   -1    0    0    0    0  0.00000000000E+00  0.00000000000E+00  0.45593999997E+02  0.45594000000E+02  0.51100000000E-03 0. -1.
         11   -1    0    0    0    0 -0.00000000000E+00 -0.00000000000E+00 -0.45593999997E+02  0.45594000000E+02  0.51100000000E-03 0.  1.
    9900012    2    1    2    0    0 -0.35244005463E+01  0.33884617646E+02  0.29470743903E+02  0.46142318093E+02  0.10000003031E+02 0.  0.
        -12    1    1    2    0    0  0.35244005463E+01 -0.33884617646E+02 -0.29470743903E+02  0.45045681907E+02  0.00000000000E+00 0.  1.
         11    1    3    3    0    0  0.38141881683E-01  0.25621492280E+02  0.25009806138E+02  0.35804367398E+02  0.51100000000E-03 0. -1.
        -11    1    3    3    0    0 -0.11394427098E+00  0.16928645286E+01  0.17512168685E+01  0.24383466511E+01  0.51100000000E-03 0.  1.
        -12    1    3    3    0    0 -0.34485981570E+01  0.65702608372E+01  0.27097208967E+01  0.78996040442E+01  0.00000000000E+00 0.  1.
</event>
<event>
 7    1  0.3919732E-008  0.4614232E+02  0.7816164E-02  0.1320468E+00
        -11   -1    0    0    0    0  0.00000000000E+00  0.00000000000E+00  0.45593999997E+02  0.45594000000E+02  0.51100000000E-03 0. -1.
         11   -1    0    0    0    0 -0.00000000000E+00 -0.00000000000E+00 -0.45593999997E+02  0.45594000000E+02  0.51100000000E-03 0.  1.
    9900012    2    1    2    0    0 -0.37722382994E+02 -0.24404826166E+02  0.32464982725E+01  0.46142317966E+02  0.10000001866E+02 0.  0.
        -12    1    1    2    0    0  0.37722382994E+02  0.24404826166E+02 -0.32464982725E+01  0.45045682034E+02  0.00000000000E+00 0.  1.
         11    1    3    3    0    0 -0.18848253091E+02 -0.11999140347E+02 -0.98649542911E-01  0.22343807770E+02  0.51100000000E-03 0. -1.
        -11    1    3    3    0    0 -0.13824396931E+02 -0.12310095129E+02  0.27048160747E+01  0.18707442980E+02  0.51100000000E-03 0.  1.
        -12    1    3    3    0    0 -0.50497329713E+01 -0.95590690293E-01  0.64033174075E+00  0.50910672162E+01  0.00000000000E+00 0.  1.
</event>
<event>
 7    1  0.3919732E-008  0.4614232E+02  0.7816164E-02  0.1320468E+00
        -11   -1    0    0    0    0  0.00000000000E+00  0.00000000000E+00  0.45593999997E+02  0.45594000000E+02  0.51100000000E-03 0.  1.
         11   -1    0    0    0    0 -0.00000000000E+00 -0.00000000000E+00 -0.45593999997E+02  0.45594000000E+02  0.51100000000E-03 0. -1.
    9900012    2    1    2    0    0 -0.21791269685E+02 -0.17608523034E+02 -0.35273135550E+02  0.46142316417E+02  0.99999877449E+01 0.  0.
        -12    1    1    2    0    0  0.21791269685E+02  0.17608523034E+02  0.35273135550E+02  0.45045683583E+02  0.00000000000E+00 0.  1.
         11    1    3    3    0    0 -0.80251020496E+01 -0.48356135160E+01 -0.16110998069E+02  0.18637319550E+02  0.51100000000E-03 0. -1.
        -11    1    3    3    0    0 -0.11409206274E+02 -0.10567316534E+02 -0.18572737992E+02  0.24223640587E+02  0.51100000000E-03 0.  1.
        -12    1    3    3    0    0 -0.23569613620E+01 -0.22055929846E+01 -0.58939948840E+00  0.32813562795E+01  0.00000000000E+00 0.  1.
</event>
<event>
 7    1  0.3919732E-008  0.4614232E+02  0.7816164E-02  0.1320468E+00
        -11   -1    0    0    0    0  0.00000000000E+00  0.00000000000E+00  0.45593999997E+02  0.45594000000E+02  0.51100000000E-03 0. -1.
         11   -1    0    0    0    0 -0.00000000000E+00 -0.00000000000E+00 -0.45593999997E+02  0.45594000000E+02  0.51100000000E-03 0.  1.
    9900012    2    1    2    0    0  0.88360013719E+01 -0.24678627923E+02  0.36633372438E+02  0.46142316826E+02  0.99999914752E+01 0.  0.
        -12    1    1    2    0    0 -0.88360013719E+01  0.24678627923E+02 -0.36633372438E+02  0.45045683174E+02  0.00000000000E+00 0.  1.
         11    1    3    3    0    0  0.59832644728E+01 -0.52428065564E+01  0.88232793611E+01  0.11880098202E+02  0.51100000000E-03 0. -1.
        -11    1    3    3    0    0  0.22325018244E+01 -0.41417445833E+01  0.66599009222E+01  0.81542867956E+01  0.51100000000E-03 0.  1.
        -12    1    3    3    0    0  0.62023507471E+00 -0.15294076783E+02  0.21150192155E+02  0.26107931829E+02  0.00000000000E+00 0.  1.
</event>
<event>
 7    1  0.3919732E-008  0.4614231E+02  0.7816164E-02  0.1320468E+00
        -11   -1    0    0    0    0  0.00000000000E+00  0.00000000000E+00  0.45593999997E+02  0.45594000000E+02  0.51100000000E-03 0.  1.
         11   -1    0    0    0    0 -0.00000000000E+00 -0.00000000000E+00 -0.45593999997E+02  0.45594000000E+02  0.51100000000E-03 0. -1.
    9900012    2    1    2    0    0  0.36726985516E+02  0.11995428270E+02 -0.23159274755E+02  0.46142314616E+02  0.99999713240E+01 0.  0.
        -12    1    1    2    0    0 -0.36726985516E+02 -0.11995428270E+02  0.23159274755E+02  0.45045685384E+02  0.00000000000E+00 0.  1.
         11    1    3    3    0    0  0.10968366680E+02  0.50939504867E+01 -0.27605255727E+01  0.12404591927E+02  0.51100000000E-03 0. -1.
        -11    1    3    3    0    0  0.43259281494E+01  0.17639468396E+01 -0.50528617798E+01  0.68816113835E+01  0.51100000000E-03 0.  1.
         12    1    3    3    0    0  0.21432690687E+02  0.51375309438E+01 -0.15345887402E+02  0.26856111306E+02  0.00000000000E+00 0. -1.
</event>
<event>
 7    1  0.3919732E-008  0.4614232E+02  0.7816164E-02  0.1320468E+00
        -11   -1    0    0    0    0  0.00000000000E+00  0.00000000000E+00  0.45593999997E+02  0.45594000000E+02  0.51100000000E-03 0. -1.
         11   -1    0    0    0    0 -0.00000000000E+00 -0.00000000000E+00 -0.45593999997E+02  0.45594000000E+02  0.51100000000E-03 0.  1.
    9900012    2    1    2    0    0 -0.23568188341E+01  0.21551706028E+02  0.39485222076E+02  0.46142318852E+02  0.10000009949E+02 0.  0.
        -12    1    1    2    0    0  0.23568188341E+01 -0.21551706028E+02 -0.39485222076E+02  0.45045681148E+02  0.00000000000E+00 0.  1.
         11    1    3    3    0    0 -0.15775478994E+01  0.64608753778E+01  0.14072614363E+02  0.15565026287E+02  0.51100000000E-03 0. -1.
        -11    1    3    3    0    0 -0.39980191436E+01  0.67197981717E+01  0.14289107182E+02  0.16288598125E+02  0.51100000000E-03 0.  1.
         12    1    3    3    0    0  0.32187482089E+01  0.83710324782E+01  0.11123500530E+02  0.14288694441E+02  0.00000000000E+00 0. -1.
</event>
<event>
 7    1  0.3919732E-008  0.4614232E+02  0.7816164E-02  0.1320468E+00
        -11   -1    0    0    0    0  0.00000000000E+00  0.00000000000E+00  0.45593999997E+02  0.45594000000E+02  0.51100000000E-03 0.  1.
         11   -1    0    0    0    0 -0.00000000000E+00 -0.00000000000E+00 -0.45593999997E+02  0.45594000000E+02  0.51100000000E-03 0. -1.
    9900012    2    1    2    0    0 -0.12315745867E+02 -0.34458468895E+01 -0.43192152222E+02  0.46142317958E+02  0.10000001796E+02 0.  0.
        -12    1    1    2    0    0  0.12315745867E+02  0.34458468895E+01  0.43192152222E+02  0.45045682042E+02  0.00000000000E+00 0.  1.
         11    1    3    3    0    0 -0.82458992640E+00  0.16589369301E+01 -0.46314073804E+01  0.49881815193E+01  0.51100000000E-03 0. -1.
        -11    1    3    3    0    0 -0.21378805157E+01  0.10055824688E+01 -0.26724264676E+01  0.35670145342E+01  0.51100000000E-03 0.  1.
         12    1    3    3    0    0 -0.93532754252E+01 -0.61103662884E+01 -0.35888318374E+02  0.37587121905E+02  0.00000000000E+00 0. -1.
</event>
<event>
 7    1  0.3919732E-008  0.4614232E+02  0.7816164E-02  0.1320468E+00
        -11   -1    0    0    0    0  0.00000000000E+00  0.00000000000E+00  0.45593999997E+02  0.45594000000E+02  0.51100000000E-03 0.  1.
         11   -1    0    0    0    0 -0.00000000000E+00 -0.00000000000E+00 -0.45593999997E+02  0.45594000000E+02  0.51100000000E-03 0. -1.
    9900012    2    1    2    0    0 -0.21716474417E+02 -0.47436399115E+00 -0.39462427258E+02  0.46142318216E+02  0.10000004149E+02 0.  0.
        -12    1    1    2    0    0  0.21716474417E+02  0.47436399115E+00  0.39462427258E+02  0.45045681784E+02  0.00000000000E+00 0.  1.
         11    1    3    3    0    0 -0.41213248653E+00 -0.10871864638E+01 -0.20093039331E+01  0.23214500103E+01  0.51100000000E-03 0. -1.
        -11    1    3    3    0    0 -0.68126278795E+01 -0.81499988227E+00 -0.58205974549E+01  0.89975262392E+01  0.51100000000E-03 0.  1.
         12    1    3    3    0    0 -0.14491714051E+02  0.14278223549E+01 -0.31632525870E+02  0.34823341967E+02  0.00000000000E+00 0. -1.
</event>
<event>
 7    1  0.3919732E-008  0.4614232E+02  0.7816164E-02  0.1320468E+00
        -11   -1    0    0    0    0  0.00000000000E+00  0.00000000000E+00  0.45593999997E+02  0.45594000000E+02  0.51100000000E-03 0.  1.
         11   -1    0    0    0    0 -0.00000000000E+00 -0.00000000000E+00 -0.45593999997E+02  0.45594000000E+02  0.51100000000E-03 0. -1.
    9900012    2    1    2    0    0 -0.25625451966E+02  0.46239702049E+01 -0.36756884856E+02  0.46142317929E+02  0.10000001533E+02 0.  0.
        -12    1    1    2    0    0  0.25625451966E+02 -0.46239702049E+01  0.36756884856E+02  0.45045682071E+02  0.00000000000E+00 0.  1.
         11    1    3    3    0    0 -0.49982347085E+00 -0.20508028177E+00  0.20049684714E+00  0.57626441051E+00  0.51100000000E-03 0. -1.
        -11    1    3    3    0    0 -0.30889486262E+01  0.33435957389E+01 -0.57551743592E+01  0.73377972340E+01  0.51100000000E-03 0.  1.
         12    1    3    3    0    0 -0.22036679869E+02  0.14854547477E+01 -0.31202207344E+02  0.38228256285E+02  0.00000000000E+00 0. -1.
</event>
<event>
 7    1  0.3919732E-008  0.4614230E+02  0.7816164E-02  0.1320468E+00
        -11   -1    0    0    0    0  0.00000000000E+00  0.00000000000E+00  0.45593999997E+02  0.45594000000E+02  0.51100000000E-03 0.  1.
         11   -1    0    0    0    0 -0.00000000000E+00 -0.00000000000E+00 -0.45593999997E+02  0.45594000000E+02  0.51100000000E-03 0. -1.
    9900012    2    1    2    0    0 -0.23139358420E+02 -0.24728688697E+02 -0.29701461954E+02  0.46142303258E+02  0.99998677465E+01 0.  0.
        -12    1    1    2    0    0  0.23139358420E+02  0.24728688697E+02  0.29701461954E+02  0.45045696742E+02  0.00000000000E+00 0.  1.
         11    1    3    3    0    0 -0.85040247955E+01 -0.91018078018E+01 -0.15152572012E+02  0.19615345570E+02  0.51100000000E-03 0. -1.
        -11    1    3    3    0    0 -0.37535791175E+01 -0.33102667956E+01 -0.65655518207E+01  0.82555250240E+01  0.51100000000E-03 0.  1.
        -12    1    3    3    0    0 -0.10881754507E+02 -0.12316614100E+02 -0.79833381214E+01  0.18271432664E+02  0.00000000000E+00 0.  1.
</event>
<event>
 7    1  0.3919732E-008  0.4614232E+02  0.7816164E-02  0.1320468E+00
        -11   -1    0    0    0    0  0.00000000000E+00  0.00000000000E+00  0.45593999997E+02  0.45594000000E+02  0.51100000000E-03 0.  1.
         11   -1    0    0    0    0 -0.00000000000E+00 -0.00000000000E+00 -0.45593999997E+02  0.45594000000E+02  0.51100000000E-03 0. -1.
    9900012    2    1    2    0    0 -0.36243779905E+02  0.24412986110E-01 -0.26748855740E+02  0.46142318062E+02  0.10000002746E+02 0.  0.
        -12    1    1    2    0    0  0.36243779905E+02 -0.24412986110E-01  0.26748855740E+02  0.45045681938E+02  0.00000000000E+00 0.  1.
         11    1    3    3    0    0 -0.18078430485E+02 -0.12537041818E+01 -0.89730334950E+01  0.20221690171E+02  0.51100000000E-03 0. -1.
        -11    1    3    3    0    0 -0.60956020431E+01 -0.18891175073E+01 -0.57263482432E+01  0.85741584828E+01  0.51100000000E-03 0.  1.
        -12    1    3    3    0    0 -0.12069747377E+02  0.31672346752E+01 -0.12049474002E+02  0.17346469409E+02  0.00000000000E+00 0.  1.
</event>
<event>
 7    1  0.3919732E-008  0.4614232E+02  0.7816164E-02  0.1320468E+00
        -11   -1    0    0    0    0  0.00000000000E+00  0.00000000000E+00  0.45593999997E+02  0.45594000000E+02  0.51100000000E-03 0.  1.
         11   -1    0    0    0    0 -0.00000000000E+00 -0.00000000000E+00 -0.45593999997E+02  0.45594000000E+02  0.51100000000E-03 0. -1.
    9900012    2    1    2    0    0 -0.14381474086E+02  0.26135250953E+02 -0.33752553642E+02  0.46142322997E+02  0.10000047745E+02 0.  0.
        -12    1    1    2    0    0  0.14381474086E+02 -0.26135250953E+02  0.33752553642E+02  0.45045677003E+02  0.00000000000E+00 0.  1.
         11    1    3    3    0    0 -0.80689395907E+01  0.14123556902E+02 -0.13706917335E+02  0.21271159553E+02  0.51100000000E-03 0. -1.
        -11    1    3    3    0    0 -0.49557213584E+01  0.37326403333E+01 -0.10170391176E+02  0.11913380502E+02  0.51100000000E-03 0.  1.
         12    1    3    3    0    0 -0.13568131369E+01  0.82790537187E+01 -0.98752451314E+01  0.12957782942E+02  0.00000000000E+00 0. -1.
</event>
<event>
 7    1  0.3919732E-008  0.4614232E+02  0.7816164E-02  0.1320468E+00
        -11   -1    0    0    0    0  0.00000000000E+00  0.00000000000E+00  0.45593999997E+02  0.45594000000E+02  0.51100000000E-03 0.  1.
         11   -1    0    0    0    0 -0.00000000000E+00 -0.00000000000E+00 -0.45593999997E+02  0.45594000000E+02  0.51100000000E-03 0. -1.
    9900012    2    1    2    0    0 -0.34187736637E+02  0.26384726806E+01 -0.29212164804E+02  0.46142318221E+02  0.10000004192E+02 0.  0.
        -12    1    1    2    0    0  0.34187736637E+02 -0.26384726806E+01  0.29212164804E+02  0.45045681779E+02  0.00000000000E+00 0.  1.
         11    1    3    3    0    0 -0.54748051494E+00 -0.46028484986E-01 -0.18949285792E+00  0.58117238406E+00  0.51100000000E-03 0. -1.
        -11    1    3    3    0    0 -0.64060665679E+01 -0.33235931524E+01 -0.54302867687E+01  0.90317204876E+01  0.51100000000E-03 0.  1.
         12    1    3    3    0    0 -0.27234189554E+02  0.60080943180E+01 -0.23592385177E+02  0.36529425349E+02  0.00000000000E+00 0. -1.
</event>
<event>
 7    1  0.3919732E-008  0.4614232E+02  0.7816164E-02  0.1320468E+00
        -11   -1    0    0    0    0  0.00000000000E+00  0.00000000000E+00  0.45593999997E+02  0.45594000000E+02  0.51100000000E-03 0. -1.
         11   -1    0    0    0    0 -0.00000000000E+00 -0.00000000000E+00 -0.45593999997E+02  0.45594000000E+02  0.51100000000E-03 0.  1.
    9900012    2    1    2    0    0 -0.28609915657E+02  0.34229463932E+02 -0.62393945018E+01  0.46142317425E+02  0.99999969317E+01 0.  0.
        -12    1    1    2    0    0  0.28609915657E+02 -0.34229463932E+02  0.62393945018E+01  0.45045682575E+02  0.00000000000E+00 0.  1.
         11    1    3    3    0    0 -0.61230633798E+01  0.10176862850E+02 -0.23959294559E+00  0.11879303333E+02  0.51100000000E-03 0. -1.
        -11    1    3    3    0    0 -0.42506169402E+00  0.18708284731E+00  0.92308795343E+00  0.10333291181E+01  0.51100000000E-03 0.  1.
        -12    1    3    3    0    0 -0.22061790583E+02  0.23865518234E+02 -0.69228895096E+01  0.33229684974E+02  0.00000000000E+00 0.  1.
</event>
<event>
 7    1  0.3919732E-008  0.4614231E+02  0.7816164E-02  0.1320468E+00
        -11   -1    0    0    0    0  0.00000000000E+00  0.00000000000E+00  0.45593999997E+02  0.45594000000E+02  0.51100000000E-03 0.  1.
         11   -1    0    0    0    0 -0.00000000000E+00 -0.00000000000E+00 -0.45593999997E+02  0.45594000000E+02  0.51100000000E-03 0. -1.
    9900012    2    1    2    0    0  0.58678226244E+00 -0.39084495267E+02 -0.22386864465E+02  0.46142314476E+02  0.99999700458E+01 0.  0.
        -12    1    1    2    0    0 -0.58678226244E+00  0.39084495267E+02  0.22386864465E+02  0.45045685524E+02  0.00000000000E+00 0.  1.
         11    1    3    3    0    0 -0.20983340478E+01 -0.12268298849E+02 -0.66323673925E+01  0.14103278339E+02  0.51100000000E-03 0. -1.
        -11    1    3    3    0    0  0.39114665238E+01 -0.96768448523E+01 -0.38052518151E+01  0.11109493161E+02  0.51100000000E-03 0.  1.
        -12    1    3    3    0    0 -0.12263502135E+01 -0.17139351566E+02 -0.11949245257E+02  0.20929542976E+02  0.00000000000E+00 0.  1.
</event>
<event>
 7    1  0.3919732E-008  0.4614232E+02  0.7816164E-02  0.1320468E+00
        -11   -1    0    0    0    0  0.00000000000E+00  0.00000000000E+00  0.45593999997E+02  0.45594000000E+02  0.51100000000E-03 0. -1.
         11   -1    0    0    0    0 -0.00000000000E+00 -0.00000000000E+00 -0.45593999997E+02  0.45594000000E+02  0.51100000000E-03 0.  1.
    9900012    2    1    2    0    0 -0.41874986905E+02  0.16293281989E+02  0.31824759819E+01  0.46142315194E+02  0.99999765941E+01 0.  0.
        -12    1    1    2    0    0  0.41874986905E+02 -0.16293281989E+02 -0.31824759819E+01  0.45045684806E+02  0.00000000000E+00 0.  1.
         11    1    3    3    0    0 -0.20435485926E+02  0.75753131668E+01  0.33514969970E+01  0.22050555253E+02  0.51100000000E-03 0. -1.
        -11    1    3    3    0    0 -0.16078084698E+02  0.75852150506E+01  0.25754971432E+01  0.17963114449E+02  0.51100000000E-03 0.  1.
        -12    1    3    3    0    0 -0.53614162811E+01  0.11327537717E+01 -0.27445181583E+01  0.61286454921E+01  0.00000000000E+00 0.  1.
</event>
<event>
 7    1  0.3919732E-008  0.4614232E+02  0.7816164E-02  0.1320468E+00
        -11   -1    0    0    0    0  0.00000000000E+00  0.00000000000E+00  0.45593999997E+02  0.45594000000E+02  0.51100000000E-03 0.  1.
         11   -1    0    0    0    0 -0.00000000000E+00 -0.00000000000E+00 -0.45593999997E+02  0.45594000000E+02  0.51100000000E-03 0. -1.
    9900012    2    1    2    0    0 -0.24431871665E+01  0.10590114766E+02 -0.43714915743E+02  0.46142317047E+02  0.99999934926E+01 0.  0.
        -12    1    1    2    0    0  0.24431871665E+01 -0.10590114766E+02  0.43714915743E+02  0.45045682953E+02  0.00000000000E+00 0.  1.
         11    1    3    3    0    0  0.74888579880E+00  0.69565393565E+00 -0.76920217284E+01  0.77596367743E+01  0.51100000000E-03 0. -1.
        -11    1    3    3    0    0 -0.22741392316E+01  0.84178573609E+00 -0.18304951883E+02  0.18464874118E+02  0.51100000000E-03 0.  1.
        -12    1    3    3    0    0 -0.91793373366E+00  0.90526750940E+01 -0.17717942131E+02  0.19917806155E+02  0.00000000000E+00 0.  1.
</event>
<event>
 7    1  0.3919732E-008  0.4614232E+02  0.7816164E-02  0.1320468E+00
        -11   -1    0    0    0    0  0.00000000000E+00  0.00000000000E+00  0.45593999997E+02  0.45594000000E+02  0.51100000000E-03 0.  1.
         11   -1    0    0    0    0 -0.00000000000E+00 -0.00000000000E+00 -0.45593999997E+02  0.45594000000E+02  0.51100000000E-03 0. -1.
    9900012    2    1    2    0    0  0.14783492305E+02 -0.12226820652E+02 -0.40756185033E+02  0.46142318671E+02  0.10000008293E+02 0.  0.
        -12    1    1    2    0    0 -0.14783492305E+02  0.12226820652E+02  0.40756185033E+02  0.45045681329E+02  0.00000000000E+00 0.  1.
         11    1    3    3    0    0  0.91844070335E+01 -0.93500439419E+01 -0.18004542012E+02  0.22269714582E+02  0.51100000000E-03 0.  1.
        -11    1    3    3    0    0  0.59051746122E+01 -0.29169211828E+01 -0.19017568355E+02  0.20125789992E+02  0.51100000000E-03 0. -1.
        -12    1    3    3    0    0 -0.30608934032E+00  0.40144472148E-01 -0.37340746659E+01  0.37468140964E+01  0.00000000000E+00 0.  1.
</event>
<event>
 7    1  0.3919732E-008  0.4614232E+02  0.7816164E-02  0.1320468E+00
        -11   -1    0    0    0    0  0.00000000000E+00  0.00000000000E+00  0.45593999997E+02  0.45594000000E+02  0.51100000000E-03 0.  1.
         11   -1    0    0    0    0 -0.00000000000E+00 -0.00000000000E+00 -0.45593999997E+02  0.45594000000E+02  0.51100000000E-03 0. -1.
    9900012    2    1    2    0    0 -0.26295898062E+02  0.10765299266E+02 -0.34953506138E+02  0.46142317471E+02  0.99999973544E+01 0.  0.
        -12    1    1    2    0    0  0.26295898062E+02 -0.10765299266E+02  0.34953506138E+02  0.45045682529E+02  0.00000000000E+00 0.  1.
         11    1    3    3    0    0 -0.96383477091E+01  0.37559315134E+01 -0.17919584858E+02  0.20690971216E+02  0.51100000000E-03 0. -1.
        -11    1    3    3    0    0  0.14895900567E+00 -0.48403374944E+00 -0.53159704421E+00  0.73421599990E+00  0.51100000000E-03 0.  1.
         12    1    3    3    0    0 -0.16806509359E+02  0.74934015017E+01 -0.16502324235E+02  0.24717130255E+02  0.00000000000E+00 0. -1.
</event>
<event>
 7    1  0.3919732E-008  0.4614232E+02  0.7816164E-02  0.1320468E+00
        -11   -1    0    0    0    0  0.00000000000E+00  0.00000000000E+00  0.45593999997E+02  0.45594000000E+02  0.51100000000E-03 0.  1.
         11   -1    0    0    0    0 -0.00000000000E+00 -0.00000000000E+00 -0.45593999997E+02  0.45594000000E+02  0.51100000000E-03 0. -1.
    9900012    2    1    2    0    0  0.38783529699E+02 -0.12028713734E+02  0.19500289962E+02  0.46142318313E+02  0.10000005035E+02 0.  0.
        -12    1    1    2    0    0 -0.38783529699E+02  0.12028713734E+02 -0.19500289962E+02  0.45045681687E+02  0.00000000000E+00 0.  1.
         11    1    3    3    0    0  0.13267299911E+02 -0.36906697570E+01  0.45233208070E+01  0.14494920543E+02  0.51100000000E-03 0. -1.
        -11    1    3    3    0    0  0.18573527411E+01  0.44966571647E+00  0.33567031232E+01  0.38625658027E+01  0.51100000000E-03 0.  1.
        -12    1    3    3    0    0  0.23658877047E+02 -0.87877096937E+01  0.11620266032E+02  0.27784831967E+02  0.00000000000E+00 0.  1.
</event>
<event>
 7    1  0.4164594E-008  0.4614232E+02  0.7816164E-02  0.1320468E+00
        -11   -1    0    0    0    0  0.00000000000E+00  0.00000000000E+00  0.45593999997E+02  0.45594000000E+02  0.51100000000E-03 0. -1.
         11   -1    0    0    0    0 -0.00000000000E+00 -0.00000000000E+00 -0.45593999997E+02  0.45594000000E+02  0.51100000000E-03 0.  1.
    9900012    2    1    2    0    0  0.20601754033E+02  0.12334212641E+02  0.38112313277E+02  0.46142317698E+02  0.99999994275E+01 0.  0.
        -12    1    1    2    0    0 -0.20601754033E+02 -0.12334212641E+02 -0.38112313277E+02  0.45045682302E+02  0.00000000000E+00 0.  1.
         11    1    3    3    0    0  0.89076242277E+01  0.23900609599E+01  0.99872830098E+01  0.13594262869E+02  0.51100000000E-03 0. -1.
        -11    1    3    3    0    0 -0.49235316678E+00  0.23017293211E+00  0.22034833068E+00  0.58646812997E+00  0.51100000000E-03 0.  1.
         12    1    3    3    0    0  0.12186482972E+02  0.97139787493E+01  0.27904681936E+02  0.31961586699E+02  0.00000000000E+00 0. -1.
</event>
<event>
 7    1  0.3919732E-008  0.4614232E+02  0.7816164E-02  0.1320468E+00
        -11   -1    0    0    0    0  0.00000000000E+00  0.00000000000E+00  0.45593999997E+02  0.45594000000E+02  0.51100000000E-03 0.  1.
         11   -1    0    0    0    0 -0.00000000000E+00 -0.00000000000E+00 -0.45593999997E+02  0.45594000000E+02  0.51100000000E-03 0. -1.
    9900012    2    1    2    0    0 -0.17684245430E+02  0.75253179925E+01 -0.40740036545E+02  0.46142317354E+02  0.99999962872E+01 0.  0.
        -12    1    1    2    0    0  0.17684245430E+02 -0.75253179925E+01  0.40740036545E+02  0.45045682646E+02  0.00000000000E+00 0.  1.
         11    1    3    3    0    0 -0.35753792791E+01  0.99401241564E+00 -0.96154266465E+01  0.10306688485E+02  0.51100000000E-03 0. -1.
        -11    1    3    3    0    0 -0.47442117822E+01  0.50485780036E+01 -0.20280310104E+02  0.21430974393E+02  0.51100000000E-03 0.  1.
        -12    1    3    3    0    0 -0.93646543691E+01  0.14827275733E+01 -0.10844299795E+02  0.14404654476E+02  0.00000000000E+00 0.  1.
</event>
<event>
 7    1  0.3919732E-008  0.4614232E+02  0.7816164E-02  0.1320468E+00
        -11   -1    0    0    0    0  0.00000000000E+00  0.00000000000E+00  0.45593999997E+02  0.45594000000E+02  0.51100000000E-03 0.  1.
         11   -1    0    0    0    0 -0.00000000000E+00 -0.00000000000E+00 -0.45593999997E+02  0.45594000000E+02  0.51100000000E-03 0. -1.
    9900012    2    1    2    0    0 -0.24628103649E+01 -0.10225120268E+02 -0.43800628569E+02  0.46142316717E+02  0.99999904831E+01 0.  0.
        -12    1    1    2    0    0  0.24628103649E+01  0.10225120268E+02  0.43800628569E+02  0.45045683283E+02  0.00000000000E+00 0.  1.
         11    1    3    3    0    0  0.20092503134E+01 -0.58533395788E+01 -0.23258614008E+02  0.24067858170E+02  0.51100000000E-03 0. -1.
        -11    1    3    3    0    0 -0.22025171704E+01 -0.12540777516E+01 -0.15606956988E+02  0.15811416748E+02  0.51100000000E-03 0.  1.
        -12    1    3    3    0    0 -0.22695435079E+01 -0.31177029372E+01 -0.49350575728E+01  0.62630417997E+01  0.00000000000E+00 0.  1.
</event>
<event>
 7    1  0.3919732E-008  0.4614232E+02  0.7816164E-02  0.1320468E+00
        -11   -1    0    0    0    0  0.00000000000E+00  0.00000000000E+00  0.45593999997E+02  0.45594000000E+02  0.51100000000E-03 0.  1.
         11   -1    0    0    0    0 -0.00000000000E+00 -0.00000000000E+00 -0.45593999997E+02  0.45594000000E+02  0.51100000000E-03 0. -1.
    9900012    2    1    2    0    0 -0.44892209523E+02 -0.36835645406E+01 -0.48410626548E+00  0.46142317827E+02  0.10000000602E+02 0.  0.
        -12    1    1    2    0    0  0.44892209523E+02  0.36835645406E+01  0.48410626548E+00  0.45045682173E+02  0.00000000000E+00 0.  1.
         11    1    3    3    0    0 -0.52141275367E+01 -0.34678173816E+01  0.20606096644E+00  0.62654085856E+01  0.51100000000E-03 0. -1.
        -11    1    3    3    0    0 -0.27884339206E+02  0.10936354755E+01 -0.17688100276E+01  0.27961779283E+02  0.51100000000E-03 0.  1.
         12    1    3    3    0    0 -0.11793742780E+02 -0.13093826344E+01  0.10786427956E+01  0.11915129958E+02  0.00000000000E+00 0. -1.
</event>
<event>
 7    1  0.3919732E-008  0.4614232E+02  0.7816164E-02  0.1320468E+00
        -11   -1    0    0    0    0  0.00000000000E+00  0.00000000000E+00  0.45593999997E+02  0.45594000000E+02  0.51100000000E-03 0.  1.
         11   -1    0    0    0    0 -0.00000000000E+00 -0.00000000000E+00 -0.45593999997E+02  0.45594000000E+02  0.51100000000E-03 0. -1.
    9900012    2    1    2    0    0  0.10043016596E+02  0.95359340825E+01 -0.42863940364E+02  0.46142316469E+02  0.99999882216E+01 0.  0.
        -12    1    1    2    0    0 -0.10043016596E+02 -0.95359340825E+01  0.42863940364E+02  0.45045683531E+02  0.00000000000E+00 0.  1.
         11    1    3    3    0    0  0.55724006474E+01  0.40865768864E+01 -0.20906325016E+02  0.22018768938E+02  0.51100000000E-03 0. -1.
        -11    1    3    3    0    0  0.53277190003E+01  0.61632709457E+01 -0.14931314689E+02  0.17009252103E+02  0.51100000000E-03 0.  1.
        -12    1    3    3    0    0 -0.85710305184E+00 -0.71391374965E+00 -0.70263006597E+01  0.71142954285E+01  0.00000000000E+00 0.  1.
</event>
<event>
 7    1  0.3919732E-008  0.4614233E+02  0.7816164E-02  0.1320468E+00
        -11   -1    0    0    0    0  0.00000000000E+00  0.00000000000E+00  0.45593999997E+02  0.45594000000E+02  0.51100000000E-03 0. -1.
         11   -1    0    0    0    0 -0.00000000000E+00 -0.00000000000E+00 -0.45593999997E+02  0.45594000000E+02  0.51100000000E-03 0.  1.
    9900012    2    1    2    0    0  0.12994764874E+02  0.19755183887E+02  0.38340335440E+02  0.46142328441E+02  0.10000097385E+02 0.  0.
        -12    1    1    2    0    0 -0.12994764874E+02 -0.19755183887E+02 -0.38340335440E+02  0.45045671559E+02  0.00000000000E+00 0.  1.
         11    1    3    3    0    0  0.11756818116E+01  0.83869714496E-01  0.65189704257E+00  0.13469342473E+01  0.51100000000E-03 0. -1.
        -11    1    3    3    0    0  0.94065722507E+00  0.87372095961E+01  0.13588708298E+02  0.16182603653E+02  0.51100000000E-03 0.  1.
         12    1    3    3    0    0  0.10878425837E+02  0.10934104577E+02  0.24099730100E+02  0.28612790540E+02  0.00000000000E+00 0. -1.
</event>
<event>
 7    1  0.3919732E-008  0.4614232E+02  0.7816164E-02  0.1320468E+00
        -11   -1    0    0    0    0  0.00000000000E+00  0.00000000000E+00  0.45593999997E+02  0.45594000000E+02  0.51100000000E-03 0.  1.
         11   -1    0    0    0    0 -0.00000000000E+00 -0.00000000000E+00 -0.45593999997E+02  0.45594000000E+02  0.51100000000E-03 0. -1.
    9900012    2    1    2    0    0 -0.11983240199E+02 -0.19162524946E+02 -0.38965537777E+02  0.46142317164E+02  0.99999945542E+01 0.  0.
        -12    1    1    2    0    0  0.11983240199E+02  0.19162524946E+02  0.38965537777E+02  0.45045682836E+02  0.00000000000E+00 0.  1.
         11    1    3    3    0    0 -0.30465982779E+01 -0.16350318823E+01 -0.38158676588E+01  0.51493627347E+01  0.51100000000E-03 0. -1.
        -11    1    3    3    0    0 -0.50623619147E+01 -0.63601268992E+01 -0.81103795689E+01  0.11482899431E+02  0.51100000000E-03 0.  1.
        -12    1    3    3    0    0 -0.38742800059E+01 -0.11167366164E+02 -0.27039290549E+02  0.29510054998E+02  0.00000000000E+00 0.  1.
</event>
<event>
 7    1  0.3919732E-008  0.4614232E+02  0.7816164E-02  0.1320468E+00
        -11   -1    0    0    0    0  0.00000000000E+00  0.00000000000E+00  0.45593999997E+02  0.45594000000E+02  0.51100000000E-03 0. -1.
         11   -1    0    0    0    0 -0.00000000000E+00 -0.00000000000E+00 -0.45593999997E+02  0.45594000000E+02  0.51100000000E-03 0.  1.
    9900012    2    1    2    0    0  0.13976124939E+02  0.27221567883E+02  0.33057037467E+02  0.46142317050E+02  0.99999935149E+01 0.  0.
        -12    1    1    2    0    0 -0.13976124939E+02 -0.27221567883E+02 -0.33057037467E+02  0.45045682950E+02  0.00000000000E+00 0.  1.
         11    1    3    3    0    0  0.85992152455E+01  0.12711669711E+02  0.16935999840E+02  0.22855221297E+02  0.51100000000E-03 0. -1.
        -11    1    3    3    0    0  0.46695637761E+01  0.15145019493E+02  0.15343106312E+02  0.22058725096E+02  0.51100000000E-03 0.  1.
         12    1    3    3    0    0  0.70734591778E+00 -0.63512132109E+00  0.77793131514E+00  0.12283706570E+01  0.00000000000E+00 0. -1.
</event>
<event>
 7    1  0.3919732E-008  0.4614232E+02  0.7816164E-02  0.1320468E+00
        -11   -1    0    0    0    0  0.00000000000E+00  0.00000000000E+00  0.45593999997E+02  0.45594000000E+02  0.51100000000E-03 0.  1.
         11   -1    0    0    0    0 -0.00000000000E+00 -0.00000000000E+00 -0.45593999997E+02  0.45594000000E+02  0.51100000000E-03 0. -1.
    9900012    2    1    2    0    0  0.36137991969E+02  0.53946949008E+01  0.26344948824E+02  0.46142317353E+02  0.99999962789E+01 0.  0.
        -12    1    1    2    0    0 -0.36137991969E+02 -0.53946949008E+01 -0.26344948824E+02  0.45045682647E+02  0.00000000000E+00 0.  1.
         11    1    3    3    0    0  0.95271184255E+00  0.10381685585E+01  0.90101323221E+00  0.16725067762E+01  0.51100000000E-03 0. -1.
        -11    1    3    3    0    0  0.11773642707E+02  0.10599117907E+01  0.38021214257E+01  0.12417656912E+02  0.51100000000E-03 0.  1.
         12    1    3    3    0    0  0.23411637420E+02  0.32966145515E+01  0.21641814166E+02  0.32052153665E+02  0.00000000000E+00 0. -1.
</event>
<event>
 7    1  0.3919732E-008  0.4614232E+02  0.7816164E-02  0.1320468E+00
        -11   -1    0    0    0    0  0.00000000000E+00  0.00000000000E+00  0.45593999997E+02  0.45594000000E+02  0.51100000000E-03 0.  1.
         11   -1    0    0    0    0 -0.00000000000E+00 -0.00000000000E+00 -0.45593999997E+02  0.45594000000E+02  0.51100000000E-03 0. -1.
    9900012    2    1    2    0    0 -0.26837741962E+02 -0.17506458679E+02 -0.31660273215E+02  0.46142318863E+02  0.10000010046E+02 0.  0.
        -12    1    1    2    0    0  0.26837741962E+02  0.17506458679E+02  0.31660273215E+02  0.45045681137E+02  0.00000000000E+00 0.  1.
         11    1    3    3    0    0 -0.16801744395E+02 -0.11537020171E+02 -0.17824870791E+02  0.27076326710E+02  0.51100000000E-03 0. -1.
        -11    1    3    3    0    0 -0.90923277073E+01 -0.61335175797E+01 -0.14283461660E+02  0.18008546257E+02  0.51100000000E-03 0.  1.
         12    1    3    3    0    0 -0.94366985938E+00  0.16407907111E+00  0.44805923562E+00  0.10574458963E+01  0.00000000000E+00 0. -1.
</event>
<event>
 7    1  0.3919732E-008  0.4614232E+02  0.7816164E-02  0.1320468E+00
        -11   -1    0    0    0    0  0.00000000000E+00  0.00000000000E+00  0.45593999997E+02  0.45594000000E+02  0.51100000000E-03 0.  1.
         11   -1    0    0    0    0 -0.00000000000E+00 -0.00000000000E+00 -0.45593999997E+02  0.45594000000E+02  0.51100000000E-03 0. -1.
    9900012    2    1    2    0    0 -0.22710617620E+02  0.37787921548E+02 -0.92419913967E+01  0.46142316827E+02  0.99999914778E+01 0.  0.
        -12    1    1    2    0    0  0.22710617620E+02 -0.37787921548E+02  0.92419913967E+01  0.45045683173E+02  0.00000000000E+00 0.  1.
         11    1    3    3    0    0 -0.73542383740E+00  0.55498131570E+01 -0.34922686243E+01  0.65982736154E+01  0.51100000000E-03 0. -1.
        -11    1    3    3    0    0 -0.91154033511E+01  0.11132343734E+02 -0.14961333297E+01  0.14465755095E+02  0.51100000000E-03 0.  1.
         12    1    3    3    0    0 -0.12859790431E+02  0.21105764657E+02 -0.42535894426E+01  0.25078288116E+02  0.00000000000E+00 0. -1.
</event>
<event>
 7    1  0.4076471E-008  0.4614232E+02  0.7816164E-02  0.1320468E+00
        -11   -1    0    0    0    0  0.00000000000E+00  0.00000000000E+00  0.45593999997E+02  0.45594000000E+02  0.51100000000E-03 0. -1.
         11   -1    0    0    0    0 -0.00000000000E+00 -0.00000000000E+00 -0.45593999997E+02  0.45594000000E+02  0.51100000000E-03 0.  1.
    9900012    2    1    2    0    0  0.33516686002E+02 -0.25548948960E+02 -0.15905862111E+02  0.46142317821E+02  0.10000000546E+02 0.  0.
        -12    1    1    2    0    0 -0.33516686002E+02  0.25548948960E+02  0.15905862111E+02  0.45045682179E+02  0.00000000000E+00 0.  1.
         11    1    3    3    0    0  0.10492674498E+02 -0.68635193471E+01 -0.69222652824E+01  0.14322076415E+02  0.51100000000E-03 0.  1.
        -11    1    3    3    0    0  0.55782501652E+01 -0.20926286803E+01 -0.41570217106E+01  0.72647642400E+01  0.51100000000E-03 0. -1.
         12    1    3    3    0    0  0.17445761339E+02 -0.16592800932E+02 -0.48265751183E+01  0.24555477166E+02  0.00000000000E+00 0. -1.
</event>
<event>
 7    1  0.3919732E-008  0.4614232E+02  0.7816164E-02  0.1320468E+00
        -11   -1    0    0    0    0  0.00000000000E+00  0.00000000000E+00  0.45593999997E+02  0.45594000000E+02  0.51100000000E-03 0.  1.
         11   -1    0    0    0    0 -0.00000000000E+00 -0.00000000000E+00 -0.45593999997E+02  0.45594000000E+02  0.51100000000E-03 0. -1.
    9900012    2    1    2    0    0  0.35670680857E+02 -0.26708246612E+02 -0.65867762090E+01  0.46142317291E+02  0.99999957102E+01 0.  0.
        -12    1    1    2    0    0 -0.35670680857E+02  0.26708246612E+02  0.65867762090E+01  0.45045682709E+02  0.00000000000E+00 0.  1.
         11    1    3    3    0    0  0.20966457907E+02 -0.10947333831E+02 -0.10834190268E+01  0.23677209975E+02  0.51100000000E-03 0. -1.
        -11    1    3    3    0    0  0.78537971306E+01 -0.10598768621E+02 -0.29787153900E+01  0.13523637502E+02  0.51100000000E-03 0.  1.
         12    1    3    3    0    0  0.68504258201E+01 -0.51621441606E+01 -0.25246417921E+01  0.89414698138E+01  0.00000000000E+00 0. -1.
</event>
<event>
 7    1  0.3919732E-008  0.4614232E+02  0.7816164E-02  0.1320468E+00
        -11   -1    0    0    0    0  0.00000000000E+00  0.00000000000E+00  0.45593999997E+02  0.45594000000E+02  0.51100000000E-03 0. -1.
         11   -1    0    0    0    0 -0.00000000000E+00 -0.00000000000E+00 -0.45593999997E+02  0.45594000000E+02  0.51100000000E-03 0.  1.
    9900012    2    1    2    0    0  0.11317206251E+02  0.32841676934E+02  0.28678541091E+02  0.46142316297E+02  0.99999866529E+01 0.  0.
        -12    1    1    2    0    0 -0.11317206251E+02 -0.32841676934E+02 -0.28678541091E+02  0.45045683703E+02  0.00000000000E+00 0.  1.
         11    1    3    3    0    0  0.47288726007E+01  0.92243547690E+01  0.79397809483E+01  0.13057223240E+02  0.51100000000E-03 0. -1.
        -11    1    3    3    0    0  0.19721901685E+01  0.77918635243E+01  0.11955796901E+02  0.14406378831E+02  0.51100000000E-03 0.  1.
         12    1    3    3    0    0  0.46161434817E+01  0.15825458640E+02  0.87829632417E+01  0.18678714226E+02  0.00000000000E+00 0. -1.
</event>
<event>
 7    1  0.3919732E-008  0.4614232E+02  0.7816164E-02  0.1320468E+00
        -11   -1    0    0    0    0  0.00000000000E+00  0.00000000000E+00  0.45593999997E+02  0.45594000000E+02  0.51100000000E-03 0. -1.
         11   -1    0    0    0    0 -0.00000000000E+00 -0.00000000000E+00 -0.45593999997E+02  0.45594000000E+02  0.51100000000E-03 0.  1.
    9900012    2    1    2    0    0  0.15679062853E+02  0.35165414406E+02  0.23381064929E+02  0.46142316749E+02  0.99999907713E+01 0.  0.
        -12    1    1    2    0    0 -0.15679062853E+02 -0.35165414406E+02 -0.23381064929E+02  0.45045683251E+02  0.00000000000E+00 0.  1.
         11    1    3    3    0    0  0.59821663985E+01  0.69148548820E+01  0.42022440444E+01  0.10062822076E+02  0.51100000000E-03 0. -1.
        -11    1    3    3    0    0  0.42399646365E+01  0.59088119450E+01  0.25803953385E+01  0.77168516303E+01  0.51100000000E-03 0.  1.
        -12    1    3    3    0    0  0.54569318180E+01  0.22341747579E+02  0.16598425547E+02  0.28362643043E+02  0.00000000000E+00 0.  1.
</event>
<event>
 7    1  0.3919732E-008  0.4614232E+02  0.7816164E-02  0.1320468E+00
        -11   -1    0    0    0    0  0.00000000000E+00  0.00000000000E+00  0.45593999997E+02  0.45594000000E+02  0.51100000000E-03 0.  1.
         11   -1    0    0    0    0 -0.00000000000E+00 -0.00000000000E+00 -0.45593999997E+02  0.45594000000E+02  0.51100000000E-03 0. -1.
    9900012    2    1    2    0    0 -0.22555400775E+02  0.29701116403E+01 -0.38878604205E+02  0.46142317275E+02  0.99999955665E+01 0.  0.
        -12    1    1    2    0    0  0.22555400775E+02 -0.29701116403E+01  0.38878604205E+02  0.45045682725E+02  0.00000000000E+00 0.  1.
         11    1    3    3    0    0 -0.26635637317E+01  0.20122689405E+01 -0.92264026045E+01  0.98117431338E+01  0.51100000000E-03 0. -1.
        -11    1    3    3    0    0 -0.18201617243E+01  0.19387193818E+01 -0.22097241559E+01  0.34575284020E+01  0.51100000000E-03 0.  1.
        -12    1    3    3    0    0 -0.18071675319E+02 -0.98087668210E+00 -0.27442477444E+02  0.32873045739E+02  0.00000000000E+00 0.  1.
</event>
<event>
 7    1  0.3919732E-008  0.4614232E+02  0.7816164E-02  0.1320468E+00
        -11   -1    0    0    0    0  0.00000000000E+00  0.00000000000E+00  0.45593999997E+02  0.45594000000E+02  0.51100000000E-03 0.  1.
         11   -1    0    0    0    0 -0.00000000000E+00 -0.00000000000E+00 -0.45593999997E+02  0.45594000000E+02  0.51100000000E-03 0. -1.
    9900012    2    1    2    0    0  0.18948153760E+02  0.21693993977E+02 -0.34633099679E+02  0.46142317643E+02  0.99999989263E+01 0.  0.
        -12    1    1    2    0    0 -0.18948153760E+02 -0.21693993977E+02  0.34633099679E+02  0.45045682357E+02  0.00000000000E+00 0.  1.
         11    1    3    3    0    0  0.73343035084E+00  0.21384321523E+01 -0.33765802341E+01  0.40635091347E+01  0.51100000000E-03 0. -1.
        -11    1    3    3    0    0  0.10175572793E+02  0.13779647158E+02 -0.25211084371E+02  0.30479825014E+02  0.51100000000E-03 0.  1.
        -12    1    3    3    0    0  0.80391506169E+01  0.57759146668E+01 -0.60454350741E+01  0.11598983495E+02  0.00000000000E+00 0.  1.
</event>
<event>
 7    1  0.3919732E-008  0.4614232E+02  0.7816164E-02  0.1320468E+00
        -11   -1    0    0    0    0  0.00000000000E+00  0.00000000000E+00  0.45593999997E+02  0.45594000000E+02  0.51100000000E-03 0.  1.
         11   -1    0    0    0    0 -0.00000000000E+00 -0.00000000000E+00 -0.45593999997E+02  0.45594000000E+02  0.51100000000E-03 0. -1.
    9900012    2    1    2    0    0  0.38566886803E+02  0.22932441351E+02  0.39764122286E+01  0.46142317874E+02  0.10000001029E+02 0.  0.
        -12    1    1    2    0    0 -0.38566886803E+02 -0.22932441351E+02 -0.39764122286E+01  0.45045682126E+02  0.00000000000E+00 0.  1.
         11    1    3    3    0    0  0.17198520274E+02  0.13668281977E+02  0.42222122740E+01  0.22370474035E+02  0.51100000000E-03 0. -1.
        -11    1    3    3    0    0  0.20820599437E+02  0.89132898530E+01 -0.11273002282E+01  0.22676307084E+02  0.51100000000E-03 0.  1.
        -12    1    3    3    0    0  0.54776709256E+00  0.35086952052E+00  0.88150018278E+00  0.10955367545E+01  0.00000000000E+00 0.  1.
</event>
<event>
 7    1  0.3919732E-008  0.4614232E+02  0.7816164E-02  0.1320468E+00
        -11   -1    0    0    0    0  0.00000000000E+00  0.00000000000E+00  0.45593999997E+02  0.45594000000E+02  0.51100000000E-03 0. -1.
         11   -1    0    0    0    0 -0.00000000000E+00 -0.00000000000E+00 -0.45593999997E+02  0.45594000000E+02  0.51100000000E-03 0.  1.
    9900012    2    1    2    0    0  0.29569291031E+02 -0.10066540615E+01  0.33966999643E+02  0.46142318862E+02  0.10000010035E+02 0.  0.
        -12    1    1    2    0    0 -0.29569291031E+02  0.10066540615E+01 -0.33966999643E+02  0.45045681138E+02  0.00000000000E+00 0.  1.
         11    1    3    3    0    0  0.15674983580E+02  0.57132094576E+00  0.16030755007E+02  0.22428032108E+02  0.51100000000E-03 0. -1.
        -11    1    3    3    0    0  0.12461380376E+02 -0.33210564121E+01  0.13127019321E+02  0.18402012202E+02  0.51100000000E-03 0.  1.
         12    1    3    3    0    0  0.14329270748E+01  0.17430814049E+01  0.48092253154E+01  0.53122745524E+01  0.00000000000E+00 0. -1.
</event>
<event>
 7    1  0.3919732E-008  0.4614232E+02  0.7816164E-02  0.1320468E+00
        -11   -1    0    0    0    0  0.00000000000E+00  0.00000000000E+00  0.45593999997E+02  0.45594000000E+02  0.51100000000E-03 0.  1.
         11   -1    0    0    0    0 -0.00000000000E+00 -0.00000000000E+00 -0.45593999997E+02  0.45594000000E+02  0.51100000000E-03 0. -1.
    9900012    2    1    2    0    0 -0.21400480004E+02 -0.27131150430E+02 -0.28896937876E+02  0.46142324440E+02  0.10000060903E+02 0.  0.
        -12    1    1    2    0    0  0.21400480004E+02  0.27131150430E+02  0.28896937876E+02  0.45045675560E+02  0.00000000000E+00 0.  1.
         11    1    3    3    0    0 -0.71629782226E+00  0.36910759663E+00 -0.57968924066E+00  0.99265445394E+00  0.51100000000E-03 0. -1.
        -11    1    3    3    0    0 -0.17335504161E+00 -0.76876944092E-01  0.40938618491E+00  0.45117551408E+00  0.51100000000E-03 0.  1.
         12    1    3    3    0    0 -0.20510827140E+02 -0.27423381083E+02 -0.28726634820E+02  0.44698494472E+02  0.00000000000E+00 0. -1.
</event>
<event>
 7    1  0.3919732E-008  0.4614232E+02  0.7816164E-02  0.1320468E+00
        -11   -1    0    0    0    0  0.00000000000E+00  0.00000000000E+00  0.45593999997E+02  0.45594000000E+02  0.51100000000E-03 0.  1.
         11   -1    0    0    0    0 -0.00000000000E+00 -0.00000000000E+00 -0.45593999997E+02  0.45594000000E+02  0.51100000000E-03 0. -1.
    9900012    2    1    2    0    0  0.43929565749E+02  0.63800132651E+01 -0.76551879794E+01  0.46142320749E+02  0.10000027249E+02 0.  0.
        -12    1    1    2    0    0 -0.43929565749E+02 -0.63800132651E+01  0.76551879794E+01  0.45045679251E+02  0.00000000000E+00 0.  1.
         11    1    3    3    0    0  0.14851034841E+02  0.21008172422E+01 -0.34674501144E+01  0.15394475616E+02  0.51100000000E-03 0. -1.
        -11    1    3    3    0    0  0.75936767428E+01 -0.22183529159E+01 -0.22157986836E+01  0.82155206895E+01  0.51100000000E-03 0.  1.
         12    1    3    3    0    0  0.21484854166E+02  0.64975489388E+01 -0.19719391815E+01  0.22532324444E+02  0.00000000000E+00 0. -1.
</event>
<event>
 7    1  0.3919732E-008  0.4614232E+02  0.7816164E-02  0.1320468E+00
        -11   -1    0    0    0    0  0.00000000000E+00  0.00000000000E+00  0.45593999997E+02  0.45594000000E+02  0.51100000000E-03 0. -1.
         11   -1    0    0    0    0 -0.00000000000E+00 -0.00000000000E+00 -0.45593999997E+02  0.45594000000E+02  0.51100000000E-03 0.  1.
    9900012    2    1    2    0    0  0.22828304363E+02  0.20761330223E+02 -0.32816904357E+02  0.46142317363E+02  0.99999963671E+01 0.  0.
        -12    1    1    2    0    0 -0.22828304363E+02 -0.20761330223E+02  0.32816904357E+02  0.45045682637E+02  0.00000000000E+00 0.  1.
         11    1    3    3    0    0  0.84471475165E+01  0.33444164655E+01 -0.13350717261E+02  0.16148717420E+02  0.51100000000E-03 0. -1.
        -11    1    3    3    0    0  0.48599460242E+01  0.55399547711E+01 -0.44367922070E+01  0.86020520559E+01  0.51100000000E-03 0.  1.
         12    1    3    3    0    0  0.95212108225E+01  0.11876958986E+02 -0.15029394888E+02  0.21391547887E+02  0.00000000000E+00 0. -1.
</event>
<event>
 7    1  0.3919732E-008  0.4614232E+02  0.7816164E-02  0.1320468E+00
        -11   -1    0    0    0    0  0.00000000000E+00  0.00000000000E+00  0.45593999997E+02  0.45594000000E+02  0.51100000000E-03 0.  1.
         11   -1    0    0    0    0 -0.00000000000E+00 -0.00000000000E+00 -0.45593999997E+02  0.45594000000E+02  0.51100000000E-03 0. -1.
    9900012    2    1    2    0    0 -0.16081499205E+02  0.12507447615E+00 -0.42077110333E+02  0.46142317917E+02  0.10000001422E+02 0.  0.
        -12    1    1    2    0    0  0.16081499205E+02 -0.12507447615E+00  0.42077110333E+02  0.45045682083E+02  0.00000000000E+00 0.  1.
         11    1    3    3    0    0 -0.14454834522E+02 -0.18878743371E+01 -0.31775930905E+02  0.34960207317E+02  0.51100000000E-03 0. -1.
        -11    1    3    3    0    0 -0.16179346439E+01  0.27711668944E+01 -0.96921375884E+01  0.10209535237E+02  0.51100000000E-03 0.  1.
         12    1    3    3    0    0 -0.87300398202E-02 -0.75821808117E+00 -0.60904184026E+00  0.97257536233E+00  0.00000000000E+00 0. -1.
</event>
<event>
 7    1  0.3919732E-008  0.4614232E+02  0.7816164E-02  0.1320468E+00
        -11   -1    0    0    0    0  0.00000000000E+00  0.00000000000E+00  0.45593999997E+02  0.45594000000E+02  0.51100000000E-03 0.  1.
         11   -1    0    0    0    0 -0.00000000000E+00 -0.00000000000E+00 -0.45593999997E+02  0.45594000000E+02  0.51100000000E-03 0. -1.
    9900012    2    1    2    0    0  0.29802818027E+02  0.43510505787E+01 -0.33495878515E+02  0.46142317843E+02  0.10000000747E+02 0.  0.
        -12    1    1    2    0    0 -0.29802818027E+02 -0.43510505787E+01  0.33495878515E+02  0.45045682157E+02  0.00000000000E+00 0.  1.
         11    1    3    3    0    0  0.40070793230E+01  0.20647012341E-01 -0.14624311635E+01  0.42656554208E+01  0.51100000000E-03 0. -1.
        -11    1    3    3    0    0  0.13543853532E+02  0.39549152746E+01 -0.12691027928E+02  0.18977342108E+02  0.51100000000E-03 0.  1.
         12    1    3    3    0    0  0.12251885171E+02  0.37548829181E+00 -0.19342419424E+02  0.22899320315E+02  0.00000000000E+00 0. -1.
</event>
<event>
 7    1  0.3919732E-008  0.4614232E+02  0.7816164E-02  0.1320468E+00
        -11   -1    0    0    0    0  0.00000000000E+00  0.00000000000E+00  0.45593999997E+02  0.45594000000E+02  0.51100000000E-03 0.  1.
         11   -1    0    0    0    0 -0.00000000000E+00 -0.00000000000E+00 -0.45593999997E+02  0.45594000000E+02  0.51100000000E-03 0. -1.
    9900012    2    1    2    0    0 -0.85636975509E+01  0.15667603525E+00 -0.44223885690E+02  0.46142317314E+02  0.99999959249E+01 0.  0.
        -12    1    1    2    0    0  0.85636975509E+01 -0.15667603525E+00  0.44223885690E+02  0.45045682686E+02  0.00000000000E+00 0.  1.
         11    1    3    3    0    0  0.97052853203E-01 -0.10202321666E+00  0.14768390277E+00  0.20405584851E+00  0.51100000000E-03 0.  1.
        -11    1    3    3    0    0 -0.10272787943E+02  0.20407649860E+00 -0.37788748364E+02  0.39160711466E+02  0.51100000000E-03 0. -1.
         12    1    3    3    0    0  0.16120375389E+01  0.54622753320E-01 -0.65828212282E+01  0.67775499994E+01  0.00000000000E+00 0. -1.
</event>
<event>
 7    1  0.3919732E-008  0.4614232E+02  0.7816164E-02  0.1320468E+00
        -11   -1    0    0    0    0  0.00000000000E+00  0.00000000000E+00  0.45593999997E+02  0.45594000000E+02  0.51100000000E-03 0.  1.
         11   -1    0    0    0    0 -0.00000000000E+00 -0.00000000000E+00 -0.45593999997E+02  0.45594000000E+02  0.51100000000E-03 0. -1.
    9900012    2    1    2    0    0  0.19600917935E+02 -0.17989442510E+02 -0.36349655846E+02  0.46142317567E+02  0.99999982287E+01 0.  0.
        -12    1    1    2    0    0 -0.19600917935E+02  0.17989442510E+02  0.36349655846E+02  0.45045682433E+02  0.00000000000E+00 0.  1.
         11    1    3    3    0    0  0.65488082582E+01 -0.26429290932E+01 -0.97111105984E+01  0.12007399098E+02  0.51100000000E-03 0. -1.
        -11    1    3    3    0    0  0.56530967952E+01 -0.29678183882E+01 -0.49026649490E+01  0.80499424361E+01  0.51100000000E-03 0.  1.
         12    1    3    3    0    0  0.73990128816E+01 -0.12378695029E+02 -0.21735880299E+02  0.26084976032E+02  0.00000000000E+00 0. -1.
</event>
<event>
 7    1  0.3919732E-008  0.4614232E+02  0.7816164E-02  0.1320468E+00
        -11   -1    0    0    0    0  0.00000000000E+00  0.00000000000E+00  0.45593999997E+02  0.45594000000E+02  0.51100000000E-03 0.  1.
         11   -1    0    0    0    0 -0.00000000000E+00 -0.00000000000E+00 -0.45593999997E+02  0.45594000000E+02  0.51100000000E-03 0. -1.
    9900012    2    1    2    0    0  0.24106642414E+02 -0.34542516437E+02  0.15962386258E+02  0.46142318461E+02  0.10000006380E+02 0.  0.
        -12    1    1    2    0    0 -0.24106642414E+02  0.34542516437E+02 -0.15962386258E+02  0.45045681539E+02  0.00000000000E+00 0.  1.
         11    1    3    3    0    0  0.13505854214E+02 -0.17999122369E+02  0.77006578252E+01  0.23783957519E+02  0.51100000000E-03 0. -1.
        -11    1    3    3    0    0  0.11583153292E+02 -0.15353325997E+02  0.76240287568E+01  0.20688641186E+02  0.51100000000E-03 0.  1.
        -12    1    3    3    0    0 -0.98236509117E+00 -0.11900680711E+01  0.63769967595E+00  0.16697197558E+01  0.00000000000E+00 0.  1.
</event>
<event>
 7    1  0.3919732E-008  0.4614232E+02  0.7816164E-02  0.1320468E+00
        -11   -1    0    0    0    0  0.00000000000E+00  0.00000000000E+00  0.45593999997E+02  0.45594000000E+02  0.51100000000E-03 0.  1.
         11   -1    0    0    0    0 -0.00000000000E+00 -0.00000000000E+00 -0.45593999997E+02  0.45594000000E+02  0.51100000000E-03 0. -1.
    9900012    2    1    2    0    0 -0.39129801573E+02 -0.56690822356E+01 -0.21583180625E+02  0.46142317072E+02  0.99999937202E+01 0.  0.
        -12    1    1    2    0    0  0.39129801573E+02  0.56690822356E+01  0.21583180625E+02  0.45045682928E+02  0.00000000000E+00 0.  1.
         11    1    3    3    0    0 -0.34852468153E+01  0.10050885433E+01 -0.46354613844E+01  0.58859706804E+01  0.51100000000E-03 0.  1.
        -11    1    3    3    0    0 -0.52510644081E+01 -0.15312093565E+01 -0.42116785877E+01  0.69033699234E+01  0.51100000000E-03 0. -1.
         12    1    3    3    0    0 -0.30393490349E+02 -0.51429614224E+01 -0.12736040653E+02  0.33352976469E+02  0.00000000000E+00 0. -1.
</event>
<event>
 7    1  0.3919732E-008  0.4614232E+02  0.7816164E-02  0.1320468E+00
        -11   -1    0    0    0    0  0.00000000000E+00  0.00000000000E+00  0.45593999997E+02  0.45594000000E+02  0.51100000000E-03 0. -1.
         11   -1    0    0    0    0 -0.00000000000E+00 -0.00000000000E+00 -0.45593999997E+02  0.45594000000E+02  0.51100000000E-03 0.  1.
    9900012    2    1    2    0    0 -0.16466939539E+02  0.41012273626E+02 -0.87147437959E+01  0.46142318240E+02  0.10000004367E+02 0.  0.
        -12    1    1    2    0    0  0.16466939539E+02 -0.41012273626E+02  0.87147437959E+01  0.45045681760E+02  0.00000000000E+00 0.  1.
         11    1    3    3    0    0 -0.98513897588E+01  0.23981610659E+02 -0.87676656674E+01  0.27368585851E+02  0.51100000000E-03 0. -1.
        -11    1    3    3    0    0 -0.46191806155E+01  0.66866435855E+01 -0.99117999561E+00  0.81872138144E+01  0.51100000000E-03 0.  1.
        -12    1    3    3    0    0 -0.19963691649E+01  0.10344019382E+02  0.10441018671E+01  0.10586518575E+02  0.00000000000E+00 0.  1.
</event>
<event>
 7    1  0.3919732E-008  0.4614232E+02  0.7816164E-02  0.1320468E+00
        -11   -1    0    0    0    0  0.00000000000E+00  0.00000000000E+00  0.45593999997E+02  0.45594000000E+02  0.51100000000E-03 0. -1.
         11   -1    0    0    0    0 -0.00000000000E+00 -0.00000000000E+00 -0.45593999997E+02  0.45594000000E+02  0.51100000000E-03 0.  1.
    9900012    2    1    2    0    0  0.19040159249E+02 -0.38202200898E+02  0.14393663726E+02  0.46142319040E+02  0.10000011660E+02 0.  0.
        -12    1    1    2    0    0 -0.19040159249E+02  0.38202200898E+02 -0.14393663726E+02  0.45045680960E+02  0.00000000000E+00 0.  1.
         11    1    3    3    0    0  0.11128141745E+02 -0.23366480908E+02  0.68823167778E+01  0.26780482692E+02  0.51100000000E-03 0. -1.
        -11    1    3    3    0    0  0.73989169978E+01 -0.15390467877E+02  0.73384987602E+01  0.18586662920E+02  0.51100000000E-03 0.  1.
         12    1    3    3    0    0  0.51310050602E+00  0.55474788611E+00  0.17284818755E+00  0.77517342729E+00  0.00000000000E+00 0. -1.
</event>
<event>
 7    1  0.3919732E-008  0.4614232E+02  0.7816164E-02  0.1320468E+00
        -11   -1    0    0    0    0  0.00000000000E+00  0.00000000000E+00  0.45593999997E+02  0.45594000000E+02  0.51100000000E-03 0.  1.
         11   -1    0    0    0    0 -0.00000000000E+00 -0.00000000000E+00 -0.45593999997E+02  0.45594000000E+02  0.51100000000E-03 0. -1.
    9900012    2    1    2    0    0  0.19872163921E+02  0.19671123121E+02 -0.35316530888E+02  0.46142319434E+02  0.10000015251E+02 0.  0.
        -12    1    1    2    0    0 -0.19872163921E+02 -0.19671123121E+02  0.35316530888E+02  0.45045680566E+02  0.00000000000E+00 0.  1.
         11    1    3    3    0    0  0.12625137556E+02  0.16367836075E+02 -0.25200466391E+02  0.32593920640E+02  0.51100000000E-03 0. -1.
        -11    1    3    3    0    0  0.69442967357E+00 -0.11672294503E+00 -0.36825200417E+01  0.37492413814E+01  0.51100000000E-03 0.  1.
        -12    1    3    3    0    0  0.65525966910E+01  0.34200099913E+01 -0.64335444548E+01  0.97991574121E+01  0.00000000000E+00 0.  1.
</event>
<event>
 7    1  0.3919732E-008  0.4614232E+02  0.7816164E-02  0.1320468E+00
        -11   -1    0    0    0    0  0.00000000000E+00  0.00000000000E+00  0.45593999997E+02  0.45594000000E+02  0.51100000000E-03 0. -1.
         11   -1    0    0    0    0 -0.00000000000E+00 -0.00000000000E+00 -0.45593999997E+02  0.45594000000E+02  0.51100000000E-03 0.  1.
    9900012    2    1    2    0    0 -0.80209118490E+01 -0.22682541544E+01  0.44267749980E+02  0.46142315500E+02  0.99999793783E+01 0.  0.
        -12    1    1    2    0    0  0.80209118490E+01  0.22682541544E+01 -0.44267749980E+02  0.45045684500E+02  0.00000000000E+00 0.  1.
         11    1    3    3    0    0 -0.93240715174E+00 -0.17225673383E+01  0.72331581487E+01  0.74936772279E+01  0.51100000000E-03 0. -1.
        -11    1    3    3    0    0  0.13202742094E+01  0.31319321563E-01  0.10416639000E+01  0.16820133262E+01  0.51100000000E-03 0.  1.
        -12    1    3    3    0    0 -0.84087789066E+01 -0.57700613764E+00  0.35992927931E+02  0.36966624946E+02  0.00000000000E+00 0.  1.
</event>
<event>
 7    1  0.3919732E-008  0.4614232E+02  0.7816164E-02  0.1320468E+00
        -11   -1    0    0    0    0  0.00000000000E+00  0.00000000000E+00  0.45593999997E+02  0.45594000000E+02  0.51100000000E-03 0. -1.
         11   -1    0    0    0    0 -0.00000000000E+00 -0.00000000000E+00 -0.45593999997E+02  0.45594000000E+02  0.51100000000E-03 0.  1.
    9900012    2    1    2    0    0  0.87318309006E+01  0.42333044687E+02  0.12679983623E+02  0.46142317321E+02  0.99999959837E+01 0.  0.
        -12    1    1    2    0    0 -0.87318309006E+01 -0.42333044687E+02 -0.12679983623E+02  0.45045682679E+02  0.00000000000E+00 0.  1.
         11    1    3    3    0    0  0.54039783133E+01  0.27376711783E+02  0.11915602036E+02  0.30342526292E+02  0.51100000000E-03 0. -1.
        -11    1    3    3    0    0  0.84794653840E+00  0.94900635025E+01 -0.90145855814E+00  0.95704203882E+01  0.51100000000E-03 0.  1.
         12    1    3    3    0    0  0.24799060489E+01  0.54662694018E+01  0.16658401456E+01  0.62293706403E+01  0.00000000000E+00 0. -1.
</event>
<event>
 7    1  0.3919732E-008  0.4614232E+02  0.7816164E-02  0.1320468E+00
        -11   -1    0    0    0    0  0.00000000000E+00  0.00000000000E+00  0.45593999997E+02  0.45594000000E+02  0.51100000000E-03 0.  1.
         11   -1    0    0    0    0 -0.00000000000E+00 -0.00000000000E+00 -0.45593999997E+02  0.45594000000E+02  0.51100000000E-03 0. -1.
    9900012    2    1    2    0    0 -0.23752536214E+02  0.57711320090E+01 -0.37836814390E+02  0.46142318027E+02  0.10000002423E+02 0.  0.
        -12    1    1    2    0    0  0.23752536214E+02 -0.57711320090E+01  0.37836814390E+02  0.45045681973E+02  0.00000000000E+00 0.  1.
         11    1    3    3    0    0 -0.13226260006E+02  0.14370780031E+01 -0.13203134177E+02  0.18743582883E+02  0.51100000000E-03 0. -1.
        -11    1    3    3    0    0 -0.23063502865E+01  0.67319513567E+00 -0.23236834843E+01  0.33424464889E+01  0.51100000000E-03 0.  1.
         12    1    3    3    0    0 -0.82199259217E+01  0.36608588702E+01 -0.22309996728E+02  0.24056288655E+02  0.00000000000E+00 0. -1.
</event>
<event>
 7    1  0.3919732E-008  0.4614232E+02  0.7816164E-02  0.1320468E+00
        -11   -1    0    0    0    0  0.00000000000E+00  0.00000000000E+00  0.45593999997E+02  0.45594000000E+02  0.51100000000E-03 0. -1.
         11   -1    0    0    0    0 -0.00000000000E+00 -0.00000000000E+00 -0.45593999997E+02  0.45594000000E+02  0.51100000000E-03 0.  1.
    9900012    2    1    2    0    0 -0.25226607372E+02  0.22887740509E+02 -0.29476823762E+02  0.46142317363E+02  0.99999963730E+01 0.  0.
        -12    1    1    2    0    0  0.25226607372E+02 -0.22887740509E+02  0.29476823762E+02  0.45045682637E+02  0.00000000000E+00 0.  1.
         11    1    3    3    0    0 -0.62812767125E+01  0.76604298086E+01 -0.74744867537E+01  0.12409857956E+02  0.51100000000E-03 0. -1.
        -11    1    3    3    0    0 -0.98750444361E+01  0.43848718368E+01 -0.59191314223E+01  0.12319891262E+02  0.51100000000E-03 0.  1.
        -12    1    3    3    0    0 -0.90702862231E+01  0.10842438864E+02 -0.16083205586E+02  0.21412568146E+02  0.00000000000E+00 0.  1.
</event>
<event>
 7    1  0.3919732E-008  0.4614233E+02  0.7816164E-02  0.1320468E+00
        -11   -1    0    0    0    0  0.00000000000E+00  0.00000000000E+00  0.45593999997E+02  0.45594000000E+02  0.51100000000E-03 0.  1.
         11   -1    0    0    0    0 -0.00000000000E+00 -0.00000000000E+00 -0.45593999997E+02  0.45594000000E+02  0.51100000000E-03 0. -1.
    9900012    2    1    2    0    0  0.80100322474E+01 -0.67015535754E+00 -0.44322715337E+02  0.46142325184E+02  0.10000067690E+02 0.  0.
        -12    1    1    2    0    0 -0.80100322474E+01  0.67015535754E+00  0.44322715337E+02  0.45045674816E+02  0.00000000000E+00 0.  1.
         11    1    3    3    0    0  0.50012536921E+01 -0.21584606296E+01 -0.23163908580E+02  0.23795759112E+02  0.51100000000E-03 0. -1.
        -11    1    3    3    0    0 -0.16543265460E+01  0.18031579261E+01 -0.58790727317E+01  0.63680194153E+01  0.51100000000E-03 0.  1.
        -12    1    3    3    0    0  0.46631051013E+01 -0.31485265406E+00 -0.15279734025E+02  0.15978546656E+02  0.00000000000E+00 0.  1.
</event>
<event>
 7    1  0.3919732E-008  0.4614232E+02  0.7816164E-02  0.1320468E+00
        -11   -1    0    0    0    0  0.00000000000E+00  0.00000000000E+00  0.45593999997E+02  0.45594000000E+02  0.51100000000E-03 0.  1.
         11   -1    0    0    0    0 -0.00000000000E+00 -0.00000000000E+00 -0.45593999997E+02  0.45594000000E+02  0.51100000000E-03 0. -1.
    9900012    2    1    2    0    0  0.14080810395E+02  0.19442326656E+02 -0.38116140242E+02  0.46142318363E+02  0.10000005490E+02 0.  0.
        -12    1    1    2    0    0 -0.14080810395E+02 -0.19442326656E+02  0.38116140242E+02  0.45045681637E+02  0.00000000000E+00 0.  1.
         11    1    3    3    0    0  0.67187263044E+01  0.64407881726E+01 -0.11320148412E+02  0.14655060415E+02  0.51100000000E-03 0. -1.
        -11    1    3    3    0    0 -0.65430047159E+00  0.37277060238E+01 -0.10011530619E+02  0.10703020457E+02  0.51100000000E-03 0.  1.
        -12    1    3    3    0    0  0.80163845625E+01  0.92738324593E+01 -0.16784461211E+02  0.20784237491E+02  0.00000000000E+00 0.  1.
</event>
<event>
 7    1  0.3919732E-008  0.4614232E+02  0.7816164E-02  0.1320468E+00
        -11   -1    0    0    0    0  0.00000000000E+00  0.00000000000E+00  0.45593999997E+02  0.45594000000E+02  0.51100000000E-03 0.  1.
         11   -1    0    0    0    0 -0.00000000000E+00 -0.00000000000E+00 -0.45593999997E+02  0.45594000000E+02  0.51100000000E-03 0. -1.
    9900012    2    1    2    0    0 -0.12883310170E+02  0.52698230418E+01 -0.42841134477E+02  0.46142317420E+02  0.99999968911E+01 0.  0.
        -12    1    1    2    0    0  0.12883310170E+02 -0.52698230418E+01  0.42841134477E+02  0.45045682580E+02  0.00000000000E+00 0.  1.
         11    1    3    3    0    0 -0.47106600287E+01  0.20666337426E+00 -0.11301900951E+02  0.12246060306E+02  0.51100000000E-03 0. -1.
        -11    1    3    3    0    0 -0.60099133538E+01  0.36137930658E+01 -0.30131009780E+02  0.30936326696E+02  0.51100000000E-03 0.  1.
         12    1    3    3    0    0 -0.21627367878E+01  0.14493666018E+01 -0.14082237458E+01  0.29599304177E+01  0.00000000000E+00 0. -1.
</event>
<event>
 7    1  0.3919732E-008  0.4614232E+02  0.7816164E-02  0.1320468E+00
        -11   -1    0    0    0    0  0.00000000000E+00  0.00000000000E+00  0.45593999997E+02  0.45594000000E+02  0.51100000000E-03 0. -1.
         11   -1    0    0    0    0 -0.00000000000E+00 -0.00000000000E+00 -0.45593999997E+02  0.45594000000E+02  0.51100000000E-03 0.  1.
    9900012    2    1    2    0    0  0.13543564299E+02  0.66438176507E+01  0.42444611799E+02  0.46142317436E+02  0.99999970378E+01 0.  0.
        -12    1    1    2    0    0 -0.13543564299E+02 -0.66438176507E+01 -0.42444611799E+02  0.45045682564E+02  0.00000000000E+00 0.  1.
         11    1    3    3    0    0  0.48020017391E+00  0.20378904795E+00  0.91407141952E+00  0.10524490506E+01  0.51100000000E-03 0. -1.
        -11    1    3    3    0    0  0.51712795901E+01  0.47534897059E+01  0.82042382396E+01  0.10800338992E+02  0.51100000000E-03 0.  1.
         12    1    3    3    0    0  0.78920845346E+01  0.16865388969E+01  0.33326302140E+02  0.34289529394E+02  0.00000000000E+00 0. -1.
</event>
<event>
 7    1  0.3919732E-008  0.4614232E+02  0.7816164E-02  0.1320468E+00
        -11   -1    0    0    0    0  0.00000000000E+00  0.00000000000E+00  0.45593999997E+02  0.45594000000E+02  0.51100000000E-03 0.  1.
         11   -1    0    0    0    0 -0.00000000000E+00 -0.00000000000E+00 -0.45593999997E+02  0.45594000000E+02  0.51100000000E-03 0. -1.
    9900012    2    1    2    0    0  0.15339055020E+02  0.85897929014E+01 -0.41473392844E+02  0.46142318020E+02  0.10000002363E+02 0.  0.
        -12    1    1    2    0    0 -0.15339055020E+02 -0.85897929014E+01  0.41473392844E+02  0.45045681980E+02  0.00000000000E+00 0.  1.
         11    1    3    3    0    0  0.58092014051E+01  0.50750255939E+01 -0.17227704781E+02  0.18875818341E+02  0.51100000000E-03 0.  1.
        -11    1    3    3    0    0  0.90429098316E+01  0.23334323151E+01 -0.13328362154E+02  0.16274653992E+02  0.51100000000E-03 0. -1.
         12    1    3    3    0    0  0.48694378377E+00  0.11813349924E+01 -0.10917325909E+02  0.10991845688E+02  0.00000000000E+00 0. -1.
</event>
<event>
 7    1  0.3919732E-008  0.4614232E+02  0.7816164E-02  0.1320468E+00
        -11   -1    0    0    0    0  0.00000000000E+00  0.00000000000E+00  0.45593999997E+02  0.45594000000E+02  0.51100000000E-03 0.  1.
         11   -1    0    0    0    0 -0.00000000000E+00 -0.00000000000E+00 -0.45593999997E+02  0.45594000000E+02  0.51100000000E-03 0. -1.
    9900012    2    1    2    0    0  0.42489214926E+02 -0.11168694184E+02  0.99519026677E+01  0.46142317837E+02  0.10000000693E+02 0.  0.
        -12    1    1    2    0    0 -0.42489214926E+02  0.11168694184E+02 -0.99519026677E+01  0.45045682163E+02  0.00000000000E+00 0.  1.
         11    1    3    3    0    0  0.19156962093E+02 -0.41168936719E+00  0.57074875091E+01  0.19993351362E+02  0.51100000000E-03 0. -1.
        -11    1    3    3    0    0  0.60298499796E+01 -0.22420459844E+01  0.19875793990E+01  0.67332260545E+01  0.51100000000E-03 0.  1.
         12    1    3    3    0    0  0.17302402854E+02 -0.85149588328E+01  0.22568357596E+01  0.19415740421E+02  0.00000000000E+00 0. -1.
</event>
<event>
 7    1  0.3919732E-008  0.4614232E+02  0.7816164E-02  0.1320468E+00
        -11   -1    0    0    0    0  0.00000000000E+00  0.00000000000E+00  0.45593999997E+02  0.45594000000E+02  0.51100000000E-03 0.  1.
         11   -1    0    0    0    0 -0.00000000000E+00 -0.00000000000E+00 -0.45593999997E+02  0.45594000000E+02  0.51100000000E-03 0. -1.
    9900012    2    1    2    0    0  0.60590725635E+01 -0.47224148094E+01 -0.44385807078E+02  0.46142318388E+02  0.10000005716E+02 0.  0.
        -12    1    1    2    0    0 -0.60590725635E+01  0.47224148094E+01  0.44385807078E+02  0.45045681612E+02  0.00000000000E+00 0.  1.
         11    1    3    3    0    0  0.57346513624E+00  0.39208349886E+00 -0.19876236242E+02  0.19888372461E+02  0.51100000000E-03 0. -1.
        -11    1    3    3    0    0  0.20451074931E+01 -0.56076970166E+00 -0.15104506671E+02  0.15252640733E+02  0.51100000000E-03 0.  1.
        -12    1    3    3    0    0  0.34404999341E+01 -0.45537286066E+01 -0.94050641647E+01  0.11001305193E+02  0.00000000000E+00 0.  1.
</event>
<event>
 7    1  0.3919732E-008  0.4614232E+02  0.7816164E-02  0.1320468E+00
        -11   -1    0    0    0    0  0.00000000000E+00  0.00000000000E+00  0.45593999997E+02  0.45594000000E+02  0.51100000000E-03 0.  1.
         11   -1    0    0    0    0 -0.00000000000E+00 -0.00000000000E+00 -0.45593999997E+02  0.45594000000E+02  0.51100000000E-03 0. -1.
    9900012    2    1    2    0    0 -0.23700621195E+02  0.17748051710E+02 -0.33947030111E+02  0.46142316102E+02  0.99999848672E+01 0.  0.
        -12    1    1    2    0    0  0.23700621195E+02 -0.17748051710E+02  0.33947030111E+02  0.45045683898E+02  0.00000000000E+00 0.  1.
         11    1    3    3    0    0 -0.23365208319E+01  0.15672475398E+01 -0.48487754531E+01  0.56059092130E+01  0.51100000000E-03 0.  1.
        -11    1    3    3    0    0 -0.19701562581E+02  0.14610551324E+02 -0.29333963945E+02  0.38237432172E+02  0.51100000000E-03 0. -1.
        -12    1    3    3    0    0 -0.16625377821E+01  0.15702528464E+01  0.23570928751E+00  0.22989747164E+01  0.00000000000E+00 0.  1.
</event>
<event>
 7    1  0.3919732E-008  0.4614232E+02  0.7816164E-02  0.1320468E+00
        -11   -1    0    0    0    0  0.00000000000E+00  0.00000000000E+00  0.45593999997E+02  0.45594000000E+02  0.51100000000E-03 0.  1.
         11   -1    0    0    0    0 -0.00000000000E+00 -0.00000000000E+00 -0.45593999997E+02  0.45594000000E+02  0.51100000000E-03 0. -1.
    9900012    2    1    2    0    0  0.39214058171E+02  0.61304127459E+01  0.21302330408E+02  0.46142316528E+02  0.99999887544E+01 0.  0.
        -12    1    1    2    0    0 -0.39214058171E+02 -0.61304127459E+01 -0.21302330408E+02  0.45045683472E+02  0.00000000000E+00 0.  1.
         11    1    3    3    0    0  0.94379779639E+01  0.28511933115E+01  0.79185315852E+01  0.12645468519E+02  0.51100000000E-03 0. -1.
        -11    1    3    3    0    0  0.20857541979E+01  0.43594906646E-01 -0.77901899908E+00  0.22269130994E+01  0.51100000000E-03 0.  1.
         12    1    3    3    0    0  0.27690326009E+02  0.32356245277E+01  0.14162817822E+02  0.31269934909E+02  0.00000000000E+00 0. -1.
</event>
<event>
 7    1  0.3919732E-008  0.4614232E+02  0.7816164E-02  0.1320468E+00
        -11   -1    0    0    0    0  0.00000000000E+00  0.00000000000E+00  0.45593999997E+02  0.45594000000E+02  0.51100000000E-03 0. -1.
         11   -1    0    0    0    0 -0.00000000000E+00 -0.00000000000E+00 -0.45593999997E+02  0.45594000000E+02  0.51100000000E-03 0.  1.
    9900012    2    1    2    0    0 -0.39369633982E+02  0.95715101537E+01 -0.19685823073E+02  0.46142317448E+02  0.99999971434E+01 0.  0.
        -12    1    1    2    0    0  0.39369633982E+02 -0.95715101537E+01  0.19685823073E+02  0.45045682552E+02  0.00000000000E+00 0.  1.
         11    1    3    3    0    0 -0.15978857443E+02 -0.88310810082E+00 -0.75029580212E+01  0.17674788384E+02  0.51100000000E-03 0. -1.
        -11    1    3    3    0    0 -0.78800281347E+01  0.37372847267E+01 -0.29459080899E+01  0.92054611654E+01  0.51100000000E-03 0.  1.
        -12    1    3    3    0    0 -0.15510748405E+02  0.67173335278E+01 -0.92369569620E+01  0.19262067898E+02  0.00000000000E+00 0.  1.
</event>
<event>
 7    1  0.3919732E-008  0.4614232E+02  0.7816164E-02  0.1320468E+00
        -11   -1    0    0    0    0  0.00000000000E+00  0.00000000000E+00  0.45593999997E+02  0.45594000000E+02  0.51100000000E-03 0.  1.
         11   -1    0    0    0    0 -0.00000000000E+00 -0.00000000000E+00 -0.45593999997E+02  0.45594000000E+02  0.51100000000E-03 0. -1.
    9900012    2    1    2    0    0 -0.15668480325E+02 -0.15403930847E+01 -0.42204725189E+02  0.46142324127E+02  0.10000058051E+02 0.  0.
        -12    1    1    2    0    0  0.15668480325E+02  0.15403930847E+01  0.42204725189E+02  0.45045675873E+02  0.00000000000E+00 0.  1.
         11    1    3    3    0    0 -0.54135470023E+01 -0.29740766125E+01 -0.10145947385E+02  0.11878209943E+02  0.51100000000E-03 0. -1.
        -11    1    3    3    0    0 -0.27718639008E+01  0.67878220211E+00 -0.26005618484E+01  0.38609450852E+01  0.51100000000E-03 0.  1.
         12    1    3    3    0    0 -0.74830694219E+01  0.75490132575E+00 -0.29458215956E+02  0.30403169099E+02  0.00000000000E+00 0. -1.
</event>
<event>
 7    1  0.3919732E-008  0.4614232E+02  0.7816164E-02  0.1320468E+00
        -11   -1    0    0    0    0  0.00000000000E+00  0.00000000000E+00  0.45593999997E+02  0.45594000000E+02  0.51100000000E-03 0.  1.
         11   -1    0    0    0    0 -0.00000000000E+00 -0.00000000000E+00 -0.45593999997E+02  0.45594000000E+02  0.51100000000E-03 0. -1.
    9900012    2    1    2    0    0  0.16895755951E+01  0.30529921522E+01 -0.44910332877E+02  0.46142318454E+02  0.10000006322E+02 0.  0.
        -12    1    1    2    0    0 -0.16895755951E+01 -0.30529921522E+01  0.44910332877E+02  0.45045681546E+02  0.00000000000E+00 0.  1.
         11    1    3    3    0    0  0.78162687008E+00  0.37021047543E+01 -0.38286361845E+02  0.38472873870E+02  0.51100000000E-03 0. -1.
        -11    1    3    3    0    0  0.13439097355E+01  0.11784190426E+01 -0.20221492963E+01  0.26988613997E+01  0.51100000000E-03 0.  1.
        -12    1    3    3    0    0 -0.43596101046E+00 -0.18275316446E+01 -0.46018217355E+01  0.49705831851E+01  0.00000000000E+00 0.  1.
</event>
<event>
 7    1  0.3919732E-008  0.4614232E+02  0.7816164E-02  0.1320468E+00
        -11   -1    0    0    0    0  0.00000000000E+00  0.00000000000E+00  0.45593999997E+02  0.45594000000E+02  0.51100000000E-03 0. -1.
         11   -1    0    0    0    0 -0.00000000000E+00 -0.00000000000E+00 -0.45593999997E+02  0.45594000000E+02  0.51100000000E-03 0.  1.
    9900012    2    1    2    0    0 -0.25361252969E+02  0.76139200027E+01  0.36441028478E+02  0.46142317782E+02  0.10000000190E+02 0.  0.
        -12    1    1    2    0    0  0.25361252969E+02 -0.76139200027E+01 -0.36441028478E+02  0.45045682218E+02  0.00000000000E+00 0.  1.
         11    1    3    3    0    0 -0.11054320480E+02 -0.87149332953E+00  0.17861378000E+02  0.21023470841E+02  0.51100000000E-03 0. -1.
        -11    1    3    3    0    0 -0.51267886321E+01  0.14697038643E+01  0.53521166904E+01  0.75557358646E+01  0.51100000000E-03 0.  1.
        -12    1    3    3    0    0 -0.91801438575E+01  0.70157094680E+01  0.13227533787E+02  0.17563111076E+02  0.00000000000E+00 0.  1.
</event>
<event>
 7    1  0.3919732E-008  0.4614232E+02  0.7816164E-02  0.1320468E+00
        -11   -1    0    0    0    0  0.00000000000E+00  0.00000000000E+00  0.45593999997E+02  0.45594000000E+02  0.51100000000E-03 0.  1.
         11   -1    0    0    0    0 -0.00000000000E+00 -0.00000000000E+00 -0.45593999997E+02  0.45594000000E+02  0.51100000000E-03 0. -1.
    9900012    2    1    2    0    0 -0.50288276563E+01  0.13477881549E+02 -0.42686894508E+02  0.46142319170E+02  0.10000012850E+02 0.  0.
        -12    1    1    2    0    0  0.50288276563E+01 -0.13477881549E+02  0.42686894508E+02  0.45045680830E+02  0.00000000000E+00 0.  1.
         11    1    3    3    0    0 -0.13197795333E+01  0.13311060282E+01 -0.14338615778E+01  0.23600043560E+01  0.51100000000E-03 0.  1.
        -11    1    3    3    0    0 -0.46256854914E+01  0.36178615286E+01 -0.13206013894E+02  0.14452843718E+02  0.51100000000E-03 0. -1.
        -12    1    3    3    0    0  0.91663736837E+00  0.85289139920E+01 -0.28047019037E+02  0.29329471097E+02  0.00000000000E+00 0.  1.
</event>
<event>
 7    1  0.3919732E-008  0.4614232E+02  0.7816164E-02  0.1320468E+00
        -11   -1    0    0    0    0  0.00000000000E+00  0.00000000000E+00  0.45593999997E+02  0.45594000000E+02  0.51100000000E-03 0.  1.
         11   -1    0    0    0    0 -0.00000000000E+00 -0.00000000000E+00 -0.45593999997E+02  0.45594000000E+02  0.51100000000E-03 0. -1.
    9900012    2    1    2    0    0 -0.31353827802E+02 -0.17019590932E+02 -0.27502447807E+02  0.46142316203E+02  0.99999857960E+01 0.  0.
        -12    1    1    2    0    0  0.31353827802E+02  0.17019590932E+02  0.27502447807E+02  0.45045683797E+02  0.00000000000E+00 0.  1.
         11    1    3    3    0    0 -0.53611361037E+01 -0.21884170419E+01 -0.40258578936E+01  0.70525514186E+01  0.51100000000E-03 0. -1.
        -11    1    3    3    0    0 -0.23916000841E+02 -0.14557878850E+02 -0.18151171193E+02  0.33367228665E+02  0.51100000000E-03 0.  1.
         12    1    3    3    0    0 -0.20766908575E+01 -0.27329503967E+00 -0.53254187204E+01  0.57225361200E+01  0.00000000000E+00 0. -1.
</event>
<event>
 7    1  0.3919732E-008  0.4614232E+02  0.7816164E-02  0.1320468E+00
        -11   -1    0    0    0    0  0.00000000000E+00  0.00000000000E+00  0.45593999997E+02  0.45594000000E+02  0.51100000000E-03 0.  1.
         11   -1    0    0    0    0 -0.00000000000E+00 -0.00000000000E+00 -0.45593999997E+02  0.45594000000E+02  0.51100000000E-03 0. -1.
    9900012    2    1    2    0    0  0.42077558296E+02 -0.30132581402E+00 -0.16077989527E+02  0.46142318114E+02  0.10000003215E+02 0.  0.
        -12    1    1    2    0    0 -0.42077558296E+02  0.30132581402E+00  0.16077989527E+02  0.45045681886E+02  0.00000000000E+00 0.  1.
         11    1    3    3    0    0  0.25206768713E+02  0.87828956528E+00 -0.51343875872E+01  0.25739357367E+02  0.51100000000E-03 0. -1.
        -11    1    3    3    0    0  0.10965517284E+02  0.68710371722E+00 -0.63292096152E+01  0.12679652024E+02  0.51100000000E-03 0.  1.
        -12    1    3    3    0    0  0.59052722989E+01 -0.18667190965E+01 -0.46143923249E+01  0.77233087234E+01  0.00000000000E+00 0.  1.
</event>
<event>
 7    1  0.3919732E-008  0.4614232E+02  0.7816164E-02  0.1320468E+00
        -11   -1    0    0    0    0  0.00000000000E+00  0.00000000000E+00  0.45593999997E+02  0.45594000000E+02  0.51100000000E-03 0. -1.
         11   -1    0    0    0    0 -0.00000000000E+00 -0.00000000000E+00 -0.45593999997E+02  0.45594000000E+02  0.51100000000E-03 0.  1.
    9900012    2    1    2    0    0  0.24294208665E+02  0.37295130563E+02 -0.69266235141E+01  0.46142318168E+02  0.10000003714E+02 0.  0.
        -12    1    1    2    0    0 -0.24294208665E+02 -0.37295130563E+02  0.69266235141E+01  0.45045681832E+02  0.00000000000E+00 0.  1.
         11    1    3    3    0    0  0.18864066813E+02  0.33466395067E+02 -0.38101000787E+01  0.38605303759E+02  0.51100000000E-03 0.  1.
        -11    1    3    3    0    0  0.27753007612E+01  0.18263407416E+01 -0.62200352023E+00  0.33800448902E+01  0.51100000000E-03 0. -1.
        -12    1    3    3    0    0  0.26548410913E+01  0.20023947544E+01 -0.24945199152E+01  0.41569695187E+01  0.00000000000E+00 0.  1.
</event>
<event>
 7    1  0.3919732E-008  0.4614232E+02  0.7816164E-02  0.1320468E+00
        -11   -1    0    0    0    0  0.00000000000E+00  0.00000000000E+00  0.45593999997E+02  0.45594000000E+02  0.51100000000E-03 0.  1.
         11   -1    0    0    0    0 -0.00000000000E+00 -0.00000000000E+00 -0.45593999997E+02  0.45594000000E+02  0.51100000000E-03 0. -1.
    9900012    2    1    2    0    0  0.19923178346E+02 -0.16682297311E+02 -0.36795127575E+02  0.46142317718E+02  0.99999996057E+01 0.  0.
        -12    1    1    2    0    0 -0.19923178346E+02  0.16682297311E+02  0.36795127575E+02  0.45045682282E+02  0.00000000000E+00 0.  1.
         11    1    3    3    0    0  0.70306412977E+01 -0.73852367413E+01 -0.12580766571E+02  0.16194052197E+02  0.51100000000E-03 0. -1.
        -11    1    3    3    0    0  0.30631513173E+01 -0.24884457941E+01 -0.13948206592E+01  0.41857834864E+01  0.51100000000E-03 0.  1.
        -12    1    3    3    0    0  0.98293857307E+01 -0.68086147756E+01 -0.22819540346E+02  0.25762482035E+02  0.00000000000E+00 0.  1.
</event>
<event>
 7    1  0.3919732E-008  0.4614232E+02  0.7816164E-02  0.1320468E+00
        -11   -1    0    0    0    0  0.00000000000E+00  0.00000000000E+00  0.45593999997E+02  0.45594000000E+02  0.51100000000E-03 0.  1.
         11   -1    0    0    0    0 -0.00000000000E+00 -0.00000000000E+00 -0.45593999997E+02  0.45594000000E+02  0.51100000000E-03 0. -1.
    9900012    2    1    2    0    0  0.32872239547E+02  0.20013939101E+02 -0.23408793210E+02  0.46142317735E+02  0.99999997633E+01 0.  0.
        -12    1    1    2    0    0 -0.32872239547E+02 -0.20013939101E+02  0.23408793210E+02  0.45045682265E+02  0.00000000000E+00 0.  1.
         11    1    3    3    0    0  0.55962415909E+01  0.46255796451E+01 -0.25001471564E+01  0.76788438623E+01  0.51100000000E-03 0. -1.
        -11    1    3    3    0    0  0.15465151196E+02  0.92344622056E+01 -0.73385441769E+01  0.19449946649E+02  0.51100000000E-03 0.  1.
         12    1    3    3    0    0  0.11810846760E+02  0.61538972499E+01 -0.13570101877E+02  0.19013527224E+02  0.00000000000E+00 0. -1.
</event>
<event>
 7    1  0.3919732E-008  0.4614231E+02  0.7816164E-02  0.1320468E+00
        -11   -1    0    0    0    0  0.00000000000E+00  0.00000000000E+00  0.45593999997E+02  0.45594000000E+02  0.51100000000E-03 0.  1.
         11   -1    0    0    0    0 -0.00000000000E+00 -0.00000000000E+00 -0.45593999997E+02  0.45594000000E+02  0.51100000000E-03 0. -1.
    9900012    2    1    2    0    0 -0.24251480379E+02 -0.35540340100E+02 -0.13336553790E+02  0.46142314945E+02  0.99999743239E+01 0.  0.
        -12    1    1    2    0    0  0.24251480379E+02  0.35540340100E+02  0.13336553790E+02  0.45045685055E+02  0.00000000000E+00 0.  1.
         11    1    3    3    0    0 -0.13288414237E+02 -0.14233754295E+02 -0.81937194580E+01  0.21126257432E+02  0.51100000000E-03 0. -1.
        -11    1    3    3    0    0 -0.99075507445E+01 -0.15485430637E+02 -0.25610564747E+01  0.18561172762E+02  0.51100000000E-03 0.  1.
        -12    1    3    3    0    0 -0.10555153979E+01 -0.58211551683E+01 -0.25817778575E+01  0.64548847515E+01  0.00000000000E+00 0.  1.
</event>
<event>
 7    1  0.3919732E-008  0.4614232E+02  0.7816164E-02  0.1320468E+00
        -11   -1    0    0    0    0  0.00000000000E+00  0.00000000000E+00  0.45593999997E+02  0.45594000000E+02  0.51100000000E-03 0. -1.
         11   -1    0    0    0    0 -0.00000000000E+00 -0.00000000000E+00 -0.45593999997E+02  0.45594000000E+02  0.51100000000E-03 0.  1.
    9900012    2    1    2    0    0  0.12427690017E+02 -0.12556076475E+02  0.41436826450E+02  0.46142321829E+02  0.10000037097E+02 0.  0.
        -12    1    1    2    0    0 -0.12427690017E+02  0.12556076475E+02 -0.41436826450E+02  0.45045678171E+02  0.00000000000E+00 0.  1.
         11    1    3    3    0    0  0.62296222423E+01 -0.91209308489E+01  0.22319854363E+02  0.24903322507E+02  0.51100000000E-03 0. -1.
        -11    1    3    3    0    0  0.27348406284E+01 -0.27210915459E+01  0.34422541029E+01  0.51703777457E+01  0.51100000000E-03 0.  1.
         12    1    3    3    0    0  0.34632271463E+01 -0.71405408061E+00  0.15674717984E+02  0.16068621577E+02  0.00000000000E+00 0. -1.
</event>
<event>
 7    1  0.5545986E-008  0.4614232E+02  0.7816164E-02  0.1320468E+00
        -11   -1    0    0    0    0  0.00000000000E+00  0.00000000000E+00  0.45593999997E+02  0.45594000000E+02  0.51100000000E-03 0. -1.
         11   -1    0    0    0    0 -0.00000000000E+00 -0.00000000000E+00 -0.45593999997E+02  0.45594000000E+02  0.51100000000E-03 0.  1.
    9900012    2    1    2    0    0 -0.83427809235E+01  0.29809594041E+02  0.32724603694E+02  0.46142316774E+02  0.99999909986E+01 0.  0.
        -12    1    1    2    0    0  0.83427809235E+01 -0.29809594041E+02 -0.32724603694E+02  0.45045683226E+02  0.00000000000E+00 0.  1.
         11    1    3    3    0    0 -0.26348956923E+01  0.16031689890E+02  0.16644453005E+02  0.23259311515E+02  0.51100000000E-03 0. -1.
        -11    1    3    3    0    0 -0.75772688916E+00  0.95728514614E+01  0.78793670262E+01  0.12421677026E+02  0.51100000000E-03 0.  1.
        -12    1    3    3    0    0 -0.49501583420E+01  0.42050526887E+01  0.82007836621E+01  0.10461328233E+02  0.00000000000E+00 0.  1.
</event>
<event>
 7    1  0.3919732E-008  0.4614231E+02  0.7816164E-02  0.1320468E+00
        -11   -1    0    0    0    0  0.00000000000E+00  0.00000000000E+00  0.45593999997E+02  0.45594000000E+02  0.51100000000E-03 0. -1.
         11   -1    0    0    0    0 -0.00000000000E+00 -0.00000000000E+00 -0.45593999997E+02  0.45594000000E+02  0.51100000000E-03 0.  1.
    9900012    2    1    2    0    0 -0.26435710903E+02 -0.33889177600E+02 -0.13482983041E+02  0.46142312071E+02  0.99999481095E+01 0.  0.
        -12    1    1    2    0    0  0.26435710903E+02  0.33889177600E+02  0.13482983041E+02  0.45045687929E+02  0.00000000000E+00 0.  1.
         11    1    3    3    0    0 -0.29493808085E+01 -0.64377356498E+01 -0.30598173770E+01  0.77139983208E+01  0.51100000000E-03 0. -1.
        -11    1    3    3    0    0 -0.43173075549E+01 -0.68936697714E+01 -0.56843888540E+01  0.99234119306E+01  0.51100000000E-03 0.  1.
         12    1    3    3    0    0 -0.19169022539E+02 -0.20557772179E+02 -0.47387768103E+01  0.28504901819E+02  0.00000000000E+00 0. -1.
</event>
<event>
 7    1  0.3919732E-008  0.4614232E+02  0.7816164E-02  0.1320468E+00
        -11   -1    0    0    0    0  0.00000000000E+00  0.00000000000E+00  0.45593999997E+02  0.45594000000E+02  0.51100000000E-03 0. -1.
         11   -1    0    0    0    0 -0.00000000000E+00 -0.00000000000E+00 -0.45593999997E+02  0.45594000000E+02  0.51100000000E-03 0.  1.
    9900012    2    1    2    0    0  0.16082945933E+02  0.40980242341E+02 -0.95431732245E+01  0.46142316884E+02  0.99999920047E+01 0.  0.
        -12    1    1    2    0    0 -0.16082945933E+02 -0.40980242341E+02  0.95431732245E+01  0.45045683116E+02  0.00000000000E+00 0.  1.
         11    1    3    3    0    0  0.98290078059E+01  0.14242351812E+02 -0.38560577651E+01  0.17729161326E+02  0.51100000000E-03 0. -1.
        -11    1    3    3    0    0  0.44326063952E+01  0.16819049735E+02 -0.57783787738E+01  0.18328068500E+02  0.51100000000E-03 0.  1.
         12    1    3    3    0    0  0.18213317318E+01  0.99188407941E+01  0.91263314467E-01  0.10085087058E+02  0.00000000000E+00 0. -1.
</event>
<event>
 7    1  0.3919732E-008  0.4614232E+02  0.7816164E-02  0.1320468E+00
        -11   -1    0    0    0    0  0.00000000000E+00  0.00000000000E+00  0.45593999997E+02  0.45594000000E+02  0.51100000000E-03 0.  1.
         11   -1    0    0    0    0 -0.00000000000E+00 -0.00000000000E+00 -0.45593999997E+02  0.45594000000E+02  0.51100000000E-03 0. -1.
    9900012    2    1    2    0    0 -0.30113750514E+02 -0.78298197371E+01 -0.32572528651E+02  0.46142315747E+02  0.99999816303E+01 0.  0.
        -12    1    1    2    0    0  0.30113750514E+02  0.78298197371E+01  0.32572528651E+02  0.45045684253E+02  0.00000000000E+00 0.  1.
         11    1    3    3    0    0 -0.20034174390E+02 -0.15739795446E+01 -0.18065555726E+02  0.27022395509E+02  0.51100000000E-03 0.  1.
        -11    1    3    3    0    0 -0.75133024971E+01 -0.39703840024E+01 -0.75795065816E+01  0.11386947959E+02  0.51100000000E-03 0. -1.
        -12    1    3    3    0    0 -0.25662736272E+01 -0.22854561902E+01 -0.69274663432E+01  0.77329722787E+01  0.00000000000E+00 0.  1.
</event>
<event>
 7    1  0.3919732E-008  0.4614232E+02  0.7816164E-02  0.1320468E+00
        -11   -1    0    0    0    0  0.00000000000E+00  0.00000000000E+00  0.45593999997E+02  0.45594000000E+02  0.51100000000E-03 0. -1.
         11   -1    0    0    0    0 -0.00000000000E+00 -0.00000000000E+00 -0.45593999997E+02  0.45594000000E+02  0.51100000000E-03 0.  1.
    9900012    2    1    2    0    0 -0.21758765680E+02 -0.39436427025E+02  0.66172212951E+00  0.46142317226E+02  0.99999951232E+01 0.  0.
        -12    1    1    2    0    0  0.21758765680E+02  0.39436427025E+02 -0.66172212951E+00  0.45045682774E+02  0.00000000000E+00 0.  1.
         11    1    3    3    0    0 -0.11788295709E+02 -0.16165484632E+02  0.31065971676E+00  0.20009580676E+02  0.51100000000E-03 0. -1.
        -11    1    3    3    0    0 -0.72666394479E+01 -0.13250873880E+02  0.30317326906E+01  0.15413666365E+02  0.51100000000E-03 0.  1.
        -12    1    3    3    0    0 -0.27038305228E+01 -0.10020068512E+02 -0.26806702778E+01  0.10719070185E+02  0.00000000000E+00 0.  1.
</event>
<event>
 7    1  0.3919732E-008  0.4614232E+02  0.7816164E-02  0.1320468E+00
        -11   -1    0    0    0    0  0.00000000000E+00  0.00000000000E+00  0.45593999997E+02  0.45594000000E+02  0.51100000000E-03 0.  1.
         11   -1    0    0    0    0 -0.00000000000E+00 -0.00000000000E+00 -0.45593999997E+02  0.45594000000E+02  0.51100000000E-03 0. -1.
    9900012    2    1    2    0    0  0.37519831611E+02 -0.14724430589E+02 -0.20113848363E+02  0.46142317451E+02  0.99999971743E+01 0.  0.
        -12    1    1    2    0    0 -0.37519831611E+02  0.14724430589E+02  0.20113848363E+02  0.45045682549E+02  0.00000000000E+00 0.  1.
         11    1    3    3    0    0  0.20489818176E+02 -0.64476526472E+01 -0.13684041690E+02  0.25468762647E+02  0.51100000000E-03 0. -1.
        -11    1    3    3    0    0  0.24164426714E+01 -0.29216845267E+01 -0.27410421289E+01  0.46785412118E+01  0.51100000000E-03 0.  1.
         12    1    3    3    0    0  0.14613570764E+02 -0.53550934152E+01 -0.36887645446E+01  0.15995013592E+02  0.00000000000E+00 0. -1.
</event>
<event>
 7    1  0.3919732E-008  0.4614232E+02  0.7816164E-02  0.1320468E+00
        -11   -1    0    0    0    0  0.00000000000E+00  0.00000000000E+00  0.45593999997E+02  0.45594000000E+02  0.51100000000E-03 0. -1.
         11   -1    0    0    0    0 -0.00000000000E+00 -0.00000000000E+00 -0.45593999997E+02  0.45594000000E+02  0.51100000000E-03 0.  1.
    9900012    2    1    2    0    0  0.33000502259E+01 -0.39126898811E+02  0.22075073828E+02  0.46142318448E+02  0.10000006260E+02 0.  0.
        -12    1    1    2    0    0 -0.33000502259E+01  0.39126898811E+02 -0.22075073828E+02  0.45045681552E+02  0.00000000000E+00 0.  1.
         11    1    3    3    0    0  0.15598259291E+01 -0.48249076202E+01  0.37339494416E+01  0.62972350413E+01  0.51100000000E-03 0. -1.
        -11    1    3    3    0    0 -0.22385815317E+01 -0.20110234830E+02  0.13528271725E+02  0.24340232708E+02  0.51100000000E-03 0.  1.
         12    1    3    3    0    0  0.39788058285E+01 -0.14191756361E+02  0.48128526611E+01  0.15504850698E+02  0.00000000000E+00 0. -1.
</event>
<event>
 7    1  0.3919732E-008  0.4614232E+02  0.7816164E-02  0.1320468E+00
        -11   -1    0    0    0    0  0.00000000000E+00  0.00000000000E+00  0.45593999997E+02  0.45594000000E+02  0.51100000000E-03 0.  1.
         11   -1    0    0    0    0 -0.00000000000E+00 -0.00000000000E+00 -0.45593999997E+02  0.45594000000E+02  0.51100000000E-03 0. -1.
    9900012    2    1    2    0    0  0.77498248935E+01  0.43364348798E+02 -0.94120534676E+01  0.46142320041E+02  0.10000020787E+02 0.  0.
        -12    1    1    2    0    0 -0.77498248935E+01 -0.43364348798E+02  0.94120534676E+01  0.45045679959E+02  0.00000000000E+00 0.  1.
         11    1    3    3    0    0  0.82161396650E+01  0.23905542803E+02 -0.75454675197E+01  0.26380182108E+02  0.51100000000E-03 0. -1.
        -11    1    3    3    0    0  0.75949364725E-01  0.26725488189E+01  0.72056894984E+00  0.27690260685E+01  0.51100000000E-03 0.  1.
         12    1    3    3    0    0 -0.54226413620E+00  0.16786257176E+02 -0.25871548977E+01  0.16993111864E+02  0.00000000000E+00 0. -1.
</event>
<event>
 7    1  0.3919732E-008  0.4614232E+02  0.7816164E-02  0.1320468E+00
        -11   -1    0    0    0    0  0.00000000000E+00  0.00000000000E+00  0.45593999997E+02  0.45594000000E+02  0.51100000000E-03 0.  1.
         11   -1    0    0    0    0 -0.00000000000E+00 -0.00000000000E+00 -0.45593999997E+02  0.45594000000E+02  0.51100000000E-03 0. -1.
    9900012    2    1    2    0    0 -0.14647078323E+02  0.37268341780E+02 -0.20631220242E+02  0.46142318175E+02  0.10000003773E+02 0.  0.
        -12    1    1    2    0    0  0.14647078323E+02 -0.37268341780E+02  0.20631220242E+02  0.45045681825E+02  0.00000000000E+00 0.  1.
         11    1    3    3    0    0  0.14349111315E+00  0.23547156601E+01 -0.84792137743E+00  0.25068399357E+01  0.51100000000E-03 0. -1.
        -11    1    3    3    0    0 -0.15331769245E+02  0.28990088379E+02 -0.18079539236E+02  0.37448072202E+02  0.51100000000E-03 0.  1.
        -12    1    3    3    0    0  0.54119980823E+00  0.59235377407E+01 -0.17037596285E+01  0.61874060372E+01  0.00000000000E+00 0.  1.
</event>
<event>
 7    1  0.3919732E-008  0.4614232E+02  0.7816164E-02  0.1320468E+00
        -11   -1    0    0    0    0  0.00000000000E+00  0.00000000000E+00  0.45593999997E+02  0.45594000000E+02  0.51100000000E-03 0. -1.
         11   -1    0    0    0    0 -0.00000000000E+00 -0.00000000000E+00 -0.45593999997E+02  0.45594000000E+02  0.51100000000E-03 0.  1.
    9900012    2    1    2    0    0  0.11206649707E+02 -0.27826877821E+02  0.33603411628E+02  0.46142318742E+02  0.10000008949E+02 0.  0.
        -12    1    1    2    0    0 -0.11206649707E+02  0.27826877821E+02 -0.33603411628E+02  0.45045681258E+02  0.00000000000E+00 0.  1.
         11    1    3    3    0    0  0.43998037123E+01 -0.13616384094E+02  0.96673896780E+01  0.17269123080E+02  0.51100000000E-03 0. -1.
        -11    1    3    3    0    0  0.27792098671E+01 -0.31262757461E+01  0.82339471399E+01  0.92355559275E+01  0.51100000000E-03 0.  1.
         12    1    3    3    0    0  0.40276361275E+01 -0.11084217981E+02  0.15702074810E+02  0.19637639735E+02  0.00000000000E+00 0. -1.
</event>
<event>
 7    1  0.3919732E-008  0.4614232E+02  0.7816164E-02  0.1320468E+00
        -11   -1    0    0    0    0  0.00000000000E+00  0.00000000000E+00  0.45593999997E+02  0.45594000000E+02  0.51100000000E-03 0. -1.
         11   -1    0    0    0    0 -0.00000000000E+00 -0.00000000000E+00 -0.45593999997E+02  0.45594000000E+02  0.51100000000E-03 0.  1.
    9900012    2    1    2    0    0 -0.33489568902E+02  0.15551407331E+02  0.25801474253E+02  0.46142316868E+02  0.99999918555E+01 0.  0.
        -12    1    1    2    0    0  0.33489568902E+02 -0.15551407331E+02 -0.25801474253E+02  0.45045683132E+02  0.00000000000E+00 0.  1.
         11    1    3    3    0    0 -0.19766363665E+02  0.92378157459E+01  0.10622090008E+02  0.24266750270E+02  0.51100000000E-03 0. -1.
        -11    1    3    3    0    0 -0.10393061619E-01  0.59743635278E+00  0.17492188775E+01  0.18484602116E+01  0.51100000000E-03 0.  1.
        -12    1    3    3    0    0 -0.13712812176E+02  0.57161552320E+01  0.13430165367E+02  0.20027106386E+02  0.00000000000E+00 0.  1.
</event>
<event>
 7    1  0.3919732E-008  0.4614232E+02  0.7816164E-02  0.1320468E+00
        -11   -1    0    0    0    0  0.00000000000E+00  0.00000000000E+00  0.45593999997E+02  0.45594000000E+02  0.51100000000E-03 0.  1.
         11   -1    0    0    0    0 -0.00000000000E+00 -0.00000000000E+00 -0.45593999997E+02  0.45594000000E+02  0.51100000000E-03 0. -1.
    9900012    2    1    2    0    0 -0.22282063039E+02 -0.10643112920E+02 -0.37674226469E+02  0.46142317344E+02  0.99999961961E+01 0.  0.
        -12    1    1    2    0    0  0.22282063039E+02  0.10643112920E+02  0.37674226469E+02  0.45045682656E+02  0.00000000000E+00 0.  1.
         11    1    3    3    0    0  0.23752947931E-01 -0.59500700495E+00 -0.39334023707E+01  0.39782222172E+01  0.51100000000E-03 0. -1.
        -11    1    3    3    0    0 -0.13158763866E+01 -0.17447482324E+01 -0.60867335779E+01  0.64671479779E+01  0.51100000000E-03 0.  1.
         12    1    3    3    0    0 -0.20989939600E+02 -0.83033576828E+01 -0.27654090521E+02  0.35696947149E+02  0.00000000000E+00 0. -1.
</event>
<event>
 7    1  0.3919732E-008  0.4614232E+02  0.7816164E-02  0.1320468E+00
        -11   -1    0    0    0    0  0.00000000000E+00  0.00000000000E+00  0.45593999997E+02  0.45594000000E+02  0.51100000000E-03 0.  1.
         11   -1    0    0    0    0 -0.00000000000E+00 -0.00000000000E+00 -0.45593999997E+02  0.45594000000E+02  0.51100000000E-03 0. -1.
    9900012    2    1    2    0    0  0.32239552246E+01 -0.12248593457E+02 -0.43228366882E+02  0.46142316164E+02  0.99999854392E+01 0.  0.
        -12    1    1    2    0    0 -0.32239552246E+01  0.12248593457E+02  0.43228366882E+02  0.45045683836E+02  0.00000000000E+00 0.  1.
         11    1    3    3    0    0  0.25347893456E+01 -0.72392176924E+01 -0.28436369918E+02  0.29452649528E+02  0.51100000000E-03 0. -1.
        -11    1    3    3    0    0  0.10176650897E+01  0.72320255767E+00 -0.64041693265E+01  0.65247259865E+01  0.51100000000E-03 0.  1.
        -12    1    3    3    0    0 -0.32849921073E+00 -0.57325783220E+01 -0.83878276369E+01  0.10164940650E+02  0.00000000000E+00 0.  1.
</event>
<event>
 7    1  0.3919732E-008  0.4614232E+02  0.7816164E-02  0.1320468E+00
        -11   -1    0    0    0    0  0.00000000000E+00  0.00000000000E+00  0.45593999997E+02  0.45594000000E+02  0.51100000000E-03 0. -1.
         11   -1    0    0    0    0 -0.00000000000E+00 -0.00000000000E+00 -0.45593999997E+02  0.45594000000E+02  0.51100000000E-03 0.  1.
    9900012    2    1    2    0    0  0.38403963840E+02  0.87804426960E+01 -0.21843828959E+02  0.46142317897E+02  0.10000001238E+02 0.  0.
        -12    1    1    2    0    0 -0.38403963840E+02 -0.87804426960E+01  0.21843828959E+02  0.45045682103E+02  0.00000000000E+00 0.  1.
         11    1    3    3    0    0  0.16620890831E+02  0.52239597642E+01 -0.85724937326E+01  0.19417296843E+02  0.51100000000E-03 0. -1.
        -11    1    3    3    0    0  0.14562988430E+02 -0.35567166726E+00 -0.59929889042E+01  0.15751922124E+02  0.51100000000E-03 0.  1.
        -12    1    3    3    0    0  0.72200845790E+01  0.39121545990E+01 -0.72783463221E+01  0.10973098930E+02  0.00000000000E+00 0.  1.
</event>
<event>
 7    1  0.3919732E-008  0.4614232E+02  0.7816164E-02  0.1320468E+00
        -11   -1    0    0    0    0  0.00000000000E+00  0.00000000000E+00  0.45593999997E+02  0.45594000000E+02  0.51100000000E-03 0.  1.
         11   -1    0    0    0    0 -0.00000000000E+00 -0.00000000000E+00 -0.45593999997E+02  0.45594000000E+02  0.51100000000E-03 0. -1.
    9900012    2    1    2    0    0  0.37548543971E+02 -0.24107792269E+02 -0.61672026170E+01  0.46142321067E+02  0.10000030147E+02 0.  0.
        -12    1    1    2    0    0 -0.37548543971E+02  0.24107792269E+02  0.61672026170E+01  0.45045678933E+02  0.00000000000E+00 0.  1.
         11    1    3    3    0    0  0.18072715667E+02 -0.13509405706E+02 -0.30391333320E+01  0.22767595959E+02  0.51100000000E-03 0. -1.
        -11    1    3    3    0    0  0.12917512190E+02 -0.98435700360E+01 -0.39722663769E+01  0.16719356826E+02  0.51100000000E-03 0.  1.
        -12    1    3    3    0    0  0.65583161142E+01 -0.75481652700E+00  0.84419709194E+00  0.66553682823E+01  0.00000000000E+00 0.  1.
</event>
<event>
 7    1  0.3919732E-008  0.4614232E+02  0.7816164E-02  0.1320468E+00
        -11   -1    0    0    0    0  0.00000000000E+00  0.00000000000E+00  0.45593999997E+02  0.45594000000E+02  0.51100000000E-03 0. -1.
         11   -1    0    0    0    0 -0.00000000000E+00 -0.00000000000E+00 -0.45593999997E+02  0.45594000000E+02  0.51100000000E-03 0.  1.
    9900012    2    1    2    0    0 -0.14675305659E+02 -0.39278843132E+02  0.16459685598E+02  0.46142319142E+02  0.10000012596E+02 0.  0.
        -12    1    1    2    0    0  0.14675305659E+02  0.39278843132E+02 -0.16459685598E+02  0.45045680858E+02  0.00000000000E+00 0.  1.
         11    1    3    3    0    0 -0.84214639434E+01 -0.10622975052E+02  0.57529313914E+01  0.14726332665E+02  0.51100000000E-03 0. -1.
        -11    1    3    3    0    0 -0.27093867077E+01 -0.17598520120E+02  0.78420978558E+01  0.19456289107E+02  0.51100000000E-03 0.  1.
         12    1    3    3    0    0 -0.35444550078E+01 -0.11057347959E+02  0.28646563509E+01  0.11959697371E+02  0.00000000000E+00 0. -1.
</event>
<event>
 7    1  0.3919732E-008  0.4614232E+02  0.7816164E-02  0.1320468E+00
        -11   -1    0    0    0    0  0.00000000000E+00  0.00000000000E+00  0.45593999997E+02  0.45594000000E+02  0.51100000000E-03 0. -1.
         11   -1    0    0    0    0 -0.00000000000E+00 -0.00000000000E+00 -0.45593999997E+02  0.45594000000E+02  0.51100000000E-03 0.  1.
    9900012    2    1    2    0    0 -0.23742432652E+00  0.42198822528E+02 -0.15758060480E+02  0.46142318041E+02  0.10000002550E+02 0.  0.
        -12    1    1    2    0    0  0.23742432652E+00 -0.42198822528E+02  0.15758060480E+02  0.45045681959E+02  0.00000000000E+00 0.  1.
         11    1    3    3    0    0 -0.32401362776E+01  0.11592244318E+02 -0.41422911112E+01  0.12729382834E+02  0.51100000000E-03 0. -1.
        -11    1    3    3    0    0  0.17716599547E+01  0.84921544418E+01 -0.60480806391E+01  0.10575194832E+02  0.51100000000E-03 0.  1.
         12    1    3    3    0    0  0.12310519964E+01  0.22114423769E+02 -0.55676887299E+01  0.22837740375E+02  0.00000000000E+00 0. -1.
</event>
<event>
 7    1  0.3919732E-008  0.4614232E+02  0.7816164E-02  0.1320468E+00
        -11   -1    0    0    0    0  0.00000000000E+00  0.00000000000E+00  0.45593999997E+02  0.45594000000E+02  0.51100000000E-03 0. -1.
         11   -1    0    0    0    0 -0.00000000000E+00 -0.00000000000E+00 -0.45593999997E+02  0.45594000000E+02  0.51100000000E-03 0.  1.
    9900012    2    1    2    0    0 -0.25418257926E+02 -0.43662959175E+01  0.36931844030E+02  0.46142317859E+02  0.10000000896E+02 0.  0.
        -12    1    1    2    0    0  0.25418257926E+02  0.43662959175E+01 -0.36931844030E+02  0.45045682141E+02  0.00000000000E+00 0.  1.
         11    1    3    3    0    0 -0.25982872437E+01 -0.31837292902E+01  0.90247918393E+01  0.99163550157E+01  0.51100000000E-03 0. -1.
        -11    1    3    3    0    0 -0.96454000423E+01  0.47386167598E+00  0.96620624625E+01  0.13660663899E+02  0.51100000000E-03 0.  1.
         12    1    3    3    0    0 -0.13174570640E+02 -0.16564283032E+01  0.18244989728E+02  0.22565298945E+02  0.00000000000E+00 0. -1.
</event>
<event>
 7    1  0.3919732E-008  0.4614232E+02  0.7816164E-02  0.1320468E+00
        -11   -1    0    0    0    0  0.00000000000E+00  0.00000000000E+00  0.45593999997E+02  0.45594000000E+02  0.51100000000E-03 0.  1.
         11   -1    0    0    0    0 -0.00000000000E+00 -0.00000000000E+00 -0.45593999997E+02  0.45594000000E+02  0.51100000000E-03 0. -1.
    9900012    2    1    2    0    0 -0.12418733791E+02  0.11647082911E+02 -0.41704124014E+02  0.46142318197E+02  0.10000003976E+02 0.  0.
        -12    1    1    2    0    0  0.12418733791E+02 -0.11647082911E+02  0.41704124014E+02  0.45045681803E+02  0.00000000000E+00 0.  1.
         11    1    3    3    0    0 -0.33012000065E+01  0.69932915000E+00 -0.17280484900E+02  0.17606877673E+02  0.51100000000E-03 0. -1.
        -11    1    3    3    0    0 -0.49281620578E+01  0.45180935081E+01 -0.14694704347E+02  0.16144171900E+02  0.51100000000E-03 0.  1.
        -12    1    3    3    0    0 -0.41893717265E+01  0.64296602527E+01 -0.97289347666E+01  0.12391268624E+02  0.00000000000E+00 0.  1.
</event>
<event>
 7    1  0.3919732E-008  0.4614232E+02  0.7816164E-02  0.1320468E+00
        -11   -1    0    0    0    0  0.00000000000E+00  0.00000000000E+00  0.45593999997E+02  0.45594000000E+02  0.51100000000E-03 0.  1.
         11   -1    0    0    0    0 -0.00000000000E+00 -0.00000000000E+00 -0.45593999997E+02  0.45594000000E+02  0.51100000000E-03 0. -1.
    9900012    2    1    2    0    0 -0.37622689188E+02 -0.24770513894E+02 -0.26151644162E+00  0.46142317730E+02  0.99999997198E+01 0.  0.
        -12    1    1    2    0    0  0.37622689188E+02  0.24770513894E+02  0.26151644162E+00  0.45045682270E+02  0.00000000000E+00 0.  1.
         11    1    3    3    0    0 -0.23289141759E+01 -0.11669066306E+01  0.13057410622E+01  0.29138415032E+01  0.51100000000E-03 0. -1.
        -11    1    3    3    0    0 -0.20963462457E+02 -0.11195320981E+02  0.23187929293E+01  0.23878416425E+02  0.51100000000E-03 0.  1.
         12    1    3    3    0    0 -0.14330312555E+02 -0.12408286282E+02 -0.38860504331E+01  0.19350059802E+02  0.00000000000E+00 0. -1.
</event>
<event>
 7    1  0.3919732E-008  0.4614232E+02  0.7816164E-02  0.1320468E+00
        -11   -1    0    0    0    0  0.00000000000E+00  0.00000000000E+00  0.45593999997E+02  0.45594000000E+02  0.51100000000E-03 0.  1.
         11   -1    0    0    0    0 -0.00000000000E+00 -0.00000000000E+00 -0.45593999997E+02  0.45594000000E+02  0.51100000000E-03 0. -1.
    9900012    2    1    2    0    0 -0.17368517278E+02  0.40957938984E+02 -0.70636642862E+01  0.46142317505E+02  0.99999976662E+01 0.  0.
        -12    1    1    2    0    0  0.17368517278E+02 -0.40957938984E+02  0.70636642862E+01  0.45045682495E+02  0.00000000000E+00 0.  1.
         11    1    3    3    0    0 -0.12843810092E+02  0.31376107554E+02 -0.56242540807E+01  0.34366492651E+02  0.51100000000E-03 0. -1.
        -11    1    3    3    0    0 -0.66162428512E+00  0.25137333108E+01 -0.25540806608E+01  0.36441638459E+01  0.51100000000E-03 0.  1.
         12    1    3    3    0    0 -0.38630829011E+01  0.70680981192E+01  0.11146704554E+01  0.81316610079E+01  0.00000000000E+00 0. -1.
</event>
<event>
 7    1  0.3919732E-008  0.4614232E+02  0.7816164E-02  0.1320468E+00
        -11   -1    0    0    0    0  0.00000000000E+00  0.00000000000E+00  0.45593999997E+02  0.45594000000E+02  0.51100000000E-03 0.  1.
         11   -1    0    0    0    0 -0.00000000000E+00 -0.00000000000E+00 -0.45593999997E+02  0.45594000000E+02  0.51100000000E-03 0. -1.
    9900012    2    1    2    0    0 -0.33986507937E+02  0.26549668155E+02 -0.13005608644E+02  0.46142318108E+02  0.10000003161E+02 0.  0.
        -12    1    1    2    0    0  0.33986507937E+02 -0.26549668155E+02  0.13005608644E+02  0.45045681892E+02  0.00000000000E+00 0.  1.
         11    1    3    3    0    0 -0.93285878700E+01  0.91220742371E+01 -0.82956955993E+00  0.13073751411E+02  0.51100000000E-03 0. -1.
        -11    1    3    3    0    0 -0.32539907021E+01  0.22648396147E+00 -0.17056161593E+01  0.36808799516E+01  0.51100000000E-03 0.  1.
         12    1    3    3    0    0 -0.21403929365E+02  0.17201109957E+02 -0.10470422925E+02  0.29387686745E+02  0.00000000000E+00 0. -1.
</event>
<event>
 7    1  0.3919732E-008  0.4614232E+02  0.7816164E-02  0.1320468E+00
        -11   -1    0    0    0    0  0.00000000000E+00  0.00000000000E+00  0.45593999997E+02  0.45594000000E+02  0.51100000000E-03 0.  1.
         11   -1    0    0    0    0 -0.00000000000E+00 -0.00000000000E+00 -0.45593999997E+02  0.45594000000E+02  0.51100000000E-03 0. -1.
    9900012    2    1    2    0    0 -0.86396932597E+01  0.42075143492E+02 -0.13570239095E+02  0.46142318868E+02  0.10000010096E+02 0.  0.
        -12    1    1    2    0    0  0.86396932597E+01 -0.42075143492E+02  0.13570239095E+02  0.45045681132E+02  0.00000000000E+00 0.  1.
         11    1    3    3    0    0  0.38531240186E+00  0.62610495057E+01 -0.41780854238E+01  0.75369492920E+01  0.51100000000E-03 0.  1.
        -11    1    3    3    0    0 -0.93639985060E+01  0.29046200939E+02 -0.89997818746E+01  0.31817641822E+02  0.51100000000E-03 0. -1.
         12    1    3    3    0    0  0.33899284438E+00  0.67678930471E+01 -0.39237179663E+00  0.67877277548E+01  0.00000000000E+00 0. -1.
</event>
<event>
 7    1  0.3919732E-008  0.4614232E+02  0.7816164E-02  0.1320468E+00
        -11   -1    0    0    0    0  0.00000000000E+00  0.00000000000E+00  0.45593999997E+02  0.45594000000E+02  0.51100000000E-03 0.  1.
         11   -1    0    0    0    0 -0.00000000000E+00 -0.00000000000E+00 -0.45593999997E+02  0.45594000000E+02  0.51100000000E-03 0. -1.
    9900012    2    1    2    0    0  0.26631395979E+02 -0.16809908229E+02 -0.32207285750E+02  0.46142317390E+02  0.99999966121E+01 0.  0.
        -12    1    1    2    0    0 -0.26631395979E+02  0.16809908229E+02  0.32207285750E+02  0.45045682610E+02  0.00000000000E+00 0.  1.
         11    1    3    3    0    0  0.20414801881E+01 -0.81947949647E+00 -0.58931081103E+00  0.22773834759E+01  0.51100000000E-03 0. -1.
        -11    1    3    3    0    0  0.36934218475E+01 -0.32118313986E+00 -0.15004482077E+01  0.39994835464E+01  0.51100000000E-03 0.  1.
         12    1    3    3    0    0  0.20896493943E+02 -0.15669245593E+02 -0.30117526731E+02  0.39865450367E+02  0.00000000000E+00 0. -1.
</event>
<event>
 7    1  0.3919732E-008  0.4614232E+02  0.7816164E-02  0.1320468E+00
        -11   -1    0    0    0    0  0.00000000000E+00  0.00000000000E+00  0.45593999997E+02  0.45594000000E+02  0.51100000000E-03 0.  1.
         11   -1    0    0    0    0 -0.00000000000E+00 -0.00000000000E+00 -0.45593999997E+02  0.45594000000E+02  0.51100000000E-03 0. -1.
    9900012    2    1    2    0    0  0.23270884451E+02 -0.28581605494E+02 -0.25897317408E+02  0.46142320022E+02  0.10000020616E+02 0.  0.
        -12    1    1    2    0    0 -0.23270884451E+02  0.28581605494E+02  0.25897317408E+02  0.45045679978E+02  0.00000000000E+00 0.  1.
         11    1    3    3    0    0  0.22165741259E+02 -0.23386355339E+02 -0.22629996007E+02  0.39374591060E+02  0.51100000000E-03 0. -1.
        -11    1    3    3    0    0  0.89801182019E+00 -0.28659197914E+01 -0.32554089151E+01  0.44291770055E+01  0.51100000000E-03 0.  1.
         12    1    3    3    0    0  0.20713137232E+00 -0.23293303629E+01 -0.11912485926E-01  0.23385519563E+01  0.00000000000E+00 0. -1.
</event>
<event>
 7    1  0.3919732E-008  0.4614232E+02  0.7816164E-02  0.1320468E+00
        -11   -1    0    0    0    0  0.00000000000E+00  0.00000000000E+00  0.45593999997E+02  0.45594000000E+02  0.51100000000E-03 0.  1.
         11   -1    0    0    0    0 -0.00000000000E+00 -0.00000000000E+00 -0.45593999997E+02  0.45594000000E+02  0.51100000000E-03 0. -1.
    9900012    2    1    2    0    0  0.34479301541E+01 -0.24527020261E+02 -0.37625132460E+02  0.46142317212E+02  0.99999949905E+01 0.  0.
        -12    1    1    2    0    0 -0.34479301541E+01  0.24527020261E+02  0.37625132460E+02  0.45045682788E+02  0.00000000000E+00 0.  1.
         11    1    3    3    0    0  0.38020386947E+01 -0.10821296652E+02 -0.15567029812E+02  0.19336193443E+02  0.51100000000E-03 0. -1.
        -11    1    3    3    0    0  0.14877592358E+01 -0.84627155040E+01 -0.82084244766E+01  0.11883148316E+02  0.51100000000E-03 0.  1.
         12    1    3    3    0    0 -0.18418677764E+01 -0.52430081049E+01 -0.13849678172E+02  0.14922975453E+02  0.00000000000E+00 0. -1.
</event>
<event>
 7    1  0.3919732E-008  0.4614232E+02  0.7816164E-02  0.1320468E+00
        -11   -1    0    0    0    0  0.00000000000E+00  0.00000000000E+00  0.45593999997E+02  0.45594000000E+02  0.51100000000E-03 0. -1.
         11   -1    0    0    0    0 -0.00000000000E+00 -0.00000000000E+00 -0.45593999997E+02  0.45594000000E+02  0.51100000000E-03 0.  1.
    9900012    2    1    2    0    0 -0.35617345236E+02  0.24764059923E+02  0.12135051561E+02  0.46142318499E+02  0.10000006730E+02 0.  0.
        -12    1    1    2    0    0  0.35617345236E+02 -0.24764059923E+02 -0.12135051561E+02  0.45045681501E+02  0.00000000000E+00 0.  1.
         11    1    3    3    0    0 -0.25765579701E+02  0.21105932376E+02  0.99316729967E+01  0.34755770852E+02  0.51100000000E-03 0. -1.
        -11    1    3    3    0    0 -0.52161324196E+01  0.16361198082E+01 -0.76866768416E+00  0.55204869093E+01  0.51100000000E-03 0.  1.
        -12    1    3    3    0    0 -0.46356331150E+01  0.20220077390E+01  0.29720462481E+01  0.58660607374E+01  0.00000000000E+00 0.  1.
</event>
<event>
 7    1  0.3919732E-008  0.4614232E+02  0.7816164E-02  0.1320468E+00
        -11   -1    0    0    0    0  0.00000000000E+00  0.00000000000E+00  0.45593999997E+02  0.45594000000E+02  0.51100000000E-03 0. -1.
         11   -1    0    0    0    0 -0.00000000000E+00 -0.00000000000E+00 -0.45593999997E+02  0.45594000000E+02  0.51100000000E-03 0.  1.
    9900012    2    1    2    0    0  0.23135765553E+02  0.28751111184E+02  0.25830669094E+02  0.46142317545E+02  0.99999980270E+01 0.  0.
        -12    1    1    2    0    0 -0.23135765553E+02 -0.28751111184E+02 -0.25830669094E+02  0.45045682455E+02  0.00000000000E+00 0.  1.
         11    1    3    3    0    0  0.22026940427E+01  0.29003237983E+01  0.22849335690E+01  0.42993791245E+01  0.51100000000E-03 0.  1.
        -11    1    3    3    0    0  0.14510304826E+02  0.23327486136E+02  0.20610132232E+02  0.34343821955E+02  0.51100000000E-03 0. -1.
        -12    1    3    3    0    0  0.64227666837E+01  0.25233012496E+01  0.29356032932E+01  0.74991164656E+01  0.00000000000E+00 0.  1.
</event>
<event>
 7    1  0.3919732E-008  0.4614232E+02  0.7816164E-02  0.1320468E+00
        -11   -1    0    0    0    0  0.00000000000E+00  0.00000000000E+00  0.45593999997E+02  0.45594000000E+02  0.51100000000E-03 0.  1.
         11   -1    0    0    0    0 -0.00000000000E+00 -0.00000000000E+00 -0.45593999997E+02  0.45594000000E+02  0.51100000000E-03 0. -1.
    9900012    2    1    2    0    0  0.70803255117E+01  0.14375192358E+02 -0.42099126662E+02  0.46142316185E+02  0.99999856251E+01 0.  0.
        -12    1    1    2    0    0 -0.70803255117E+01 -0.14375192358E+02  0.42099126662E+02  0.45045683815E+02  0.00000000000E+00 0.  1.
         11    1    3    3    0    0  0.16885037905E+01  0.38116660734E+01 -0.15615715795E+02  0.16162624272E+02  0.51100000000E-03 0. -1.
        -11    1    3    3    0    0  0.43474412912E+01  0.64933935243E+01 -0.23660467805E+02  0.24917506742E+02  0.51100000000E-03 0.  1.
        -12    1    3    3    0    0  0.10443804300E+01  0.40701327602E+01 -0.28229430622E+01  0.50621851706E+01  0.00000000000E+00 0.  1.
</event>
<event>
 7    1  0.3919732E-008  0.4614232E+02  0.7816164E-02  0.1320468E+00
        -11   -1    0    0    0    0  0.00000000000E+00  0.00000000000E+00  0.45593999997E+02  0.45594000000E+02  0.51100000000E-03 0. -1.
         11   -1    0    0    0    0 -0.00000000000E+00 -0.00000000000E+00 -0.45593999997E+02  0.45594000000E+02  0.51100000000E-03 0.  1.
    9900012    2    1    2    0    0  0.42427851115E+02 -0.13583934043E+02 -0.66684137882E+01  0.46142317001E+02  0.99999930732E+01 0.  0.
        -12    1    1    2    0    0 -0.42427851115E+02  0.13583934043E+02  0.66684137882E+01  0.45045682999E+02  0.00000000000E+00 0.  1.
         11    1    3    3    0    0  0.12286085184E+02 -0.61253872070E+01 -0.27739182532E+01  0.14005815947E+02  0.51100000000E-03 0. -1.
        -11    1    3    3    0    0  0.40010144531E+01 -0.30548195000E+01  0.11208140399E+01  0.51571565038E+01  0.51100000000E-03 0.  1.
         12    1    3    3    0    0  0.26140751478E+02 -0.44037273364E+01 -0.50153095749E+01  0.26979344551E+02  0.00000000000E+00 0. -1.
</event>
<event>
 7    1  0.3919732E-008  0.4614232E+02  0.7816164E-02  0.1320468E+00
        -11   -1    0    0    0    0  0.00000000000E+00  0.00000000000E+00  0.45593999997E+02  0.45594000000E+02  0.51100000000E-03 0.  1.
         11   -1    0    0    0    0 -0.00000000000E+00 -0.00000000000E+00 -0.45593999997E+02  0.45594000000E+02  0.51100000000E-03 0. -1.
    9900012    2    1    2    0    0 -0.25505540382E+02  0.34381913590E+02 -0.14016592390E+02  0.46142318359E+02  0.10000005455E+02 0.  0.
        -12    1    1    2    0    0  0.25505540382E+02 -0.34381913590E+02  0.14016592390E+02  0.45045681641E+02  0.00000000000E+00 0.  1.
         11    1    3    3    0    0 -0.12862299447E+02  0.10509505479E+02 -0.60994635020E+01  0.17694403289E+02  0.51100000000E-03 0. -1.
        -11    1    3    3    0    0 -0.42939992834E+01  0.62539309690E+01 -0.39453799604E+01  0.85507956182E+01  0.51100000000E-03 0.  1.
        -12    1    3    3    0    0 -0.83492416509E+01  0.17618477142E+02 -0.39717489277E+01  0.19897119452E+02  0.00000000000E+00 0.  1.
</event>
<event>
 7    1  0.3919732E-008  0.4614231E+02  0.7816164E-02  0.1320468E+00
        -11   -1    0    0    0    0  0.00000000000E+00  0.00000000000E+00  0.45593999997E+02  0.45594000000E+02  0.51100000000E-03 0.  1.
         11   -1    0    0    0    0 -0.00000000000E+00 -0.00000000000E+00 -0.45593999997E+02  0.45594000000E+02  0.51100000000E-03 0. -1.
    9900012    2    1    2    0    0 -0.42243653953E+01  0.32815678026E+02 -0.30567953088E+02  0.46142314931E+02  0.99999741970E+01 0.  0.
        -12    1    1    2    0    0  0.42243653953E+01 -0.32815678026E+02  0.30567953088E+02  0.45045685069E+02  0.00000000000E+00 0.  1.
         11    1    3    3    0    0 -0.43840619910E+00  0.15068023140E+02 -0.12503102049E+02  0.19584817652E+02  0.51100000000E-03 0. -1.
        -11    1    3    3    0    0 -0.22122807261E+01  0.14741832279E+01 -0.79178406334E+00  0.27738645361E+01  0.51100000000E-03 0.  1.
         12    1    3    3    0    0 -0.15736784700E+01  0.16273471658E+02 -0.17273066976E+02  0.23783632743E+02  0.00000000000E+00 0. -1.
</event>
<event>
 7    1  0.3919732E-008  0.4614232E+02  0.7816164E-02  0.1320468E+00
        -11   -1    0    0    0    0  0.00000000000E+00  0.00000000000E+00  0.45593999997E+02  0.45594000000E+02  0.51100000000E-03 0.  1.
         11   -1    0    0    0    0 -0.00000000000E+00 -0.00000000000E+00 -0.45593999997E+02  0.45594000000E+02  0.51100000000E-03 0. -1.
    9900012    2    1    2    0    0  0.24830678710E+02 -0.19008480546E+02 -0.32422654531E+02  0.46142318024E+02  0.10000002396E+02 0.  0.
        -12    1    1    2    0    0 -0.24830678710E+02  0.19008480546E+02  0.32422654531E+02  0.45045681976E+02  0.00000000000E+00 0.  1.
         11    1    3    3    0    0  0.84545419494E+01 -0.74136234282E+01 -0.10188020699E+02  0.15173557854E+02  0.51100000000E-03 0. -1.
        -11    1    3    3    0    0  0.14885085447E+02 -0.74422832768E+01 -0.14540405154E+02  0.22099247305E+02  0.51100000000E-03 0.  1.
        -12    1    3    3    0    0  0.14910513136E+01 -0.41525738407E+01 -0.76942286781E+01  0.88695128657E+01  0.00000000000E+00 0.  1.
</event>
<event>
 7    1  0.3919732E-008  0.4614232E+02  0.7816164E-02  0.1320468E+00
        -11   -1    0    0    0    0  0.00000000000E+00  0.00000000000E+00  0.45593999997E+02  0.45594000000E+02  0.51100000000E-03 0.  1.
         11   -1    0    0    0    0 -0.00000000000E+00 -0.00000000000E+00 -0.45593999997E+02  0.45594000000E+02  0.51100000000E-03 0. -1.
    9900012    2    1    2    0    0 -0.27410905582E+02 -0.35742357269E+02  0.48950633798E+00  0.46142318027E+02  0.10000002425E+02 0.  0.
        -12    1    1    2    0    0  0.27410905582E+02  0.35742357269E+02 -0.48950633798E+00  0.45045681973E+02  0.00000000000E+00 0.  1.
         11    1    3    3    0    0 -0.82612856734E+01 -0.14906182770E+02 -0.27330500059E+01  0.17260147402E+02  0.51100000000E-03 0. -1.
        -11    1    3    3    0    0 -0.13685427739E+02 -0.16062050058E+02  0.42619915791E+00  0.21105971441E+02  0.51100000000E-03 0.  1.
        -12    1    3    3    0    0 -0.54641921694E+01 -0.47741244407E+01  0.27963571860E+01  0.77761991841E+01  0.00000000000E+00 0.  1.
</event>
<event>
 7    1  0.3919732E-008  0.4614232E+02  0.7816164E-02  0.1320468E+00
        -11   -1    0    0    0    0  0.00000000000E+00  0.00000000000E+00  0.45593999997E+02  0.45594000000E+02  0.51100000000E-03 0. -1.
         11   -1    0    0    0    0 -0.00000000000E+00 -0.00000000000E+00 -0.45593999997E+02  0.45594000000E+02  0.51100000000E-03 0.  1.
    9900012    2    1    2    0    0  0.38221046744E+02  0.23835330279E+02  0.37704796085E+00  0.46142317090E+02  0.99999938793E+01 0.  0.
        -12    1    1    2    0    0 -0.38221046744E+02 -0.23835330279E+02 -0.37704796085E+00  0.45045682910E+02  0.00000000000E+00 0.  1.
         11    1    3    3    0    0  0.92096956018E+01  0.75631254176E+01  0.39645193850E+01  0.12559330132E+02  0.51100000000E-03 0. -1.
        -11    1    3    3    0    0  0.72313858804E+01  0.46674829986E+01 -0.21009691328E+01  0.88595942826E+01  0.51100000000E-03 0.  1.
         12    1    3    3    0    0  0.21779965261E+02  0.11604721863E+02 -0.14865022914E+01  0.24723392675E+02  0.00000000000E+00 0. -1.
</event>
<event>
 7    1  0.3919732E-008  0.4614232E+02  0.7816164E-02  0.1320468E+00
        -11   -1    0    0    0    0  0.00000000000E+00  0.00000000000E+00  0.45593999997E+02  0.45594000000E+02  0.51100000000E-03 0.  1.
         11   -1    0    0    0    0 -0.00000000000E+00 -0.00000000000E+00 -0.45593999997E+02  0.45594000000E+02  0.51100000000E-03 0. -1.
    9900012    2    1    2    0    0 -0.20723853388E+02 -0.39424235815E+02  0.67353618608E+01  0.46142316875E+02  0.99999919187E+01 0.  0.
        -12    1    1    2    0    0  0.20723853388E+02  0.39424235815E+02 -0.67353618608E+01  0.45045683125E+02  0.00000000000E+00 0.  1.
         11    1    3    3    0    0 -0.12298834887E+02 -0.23763623644E+02  0.23509106456E+01  0.26860713494E+02  0.51100000000E-03 0. -1.
        -11    1    3    3    0    0 -0.81089543809E+01 -0.16194058235E+02  0.44735934282E+01  0.18655178951E+02  0.51100000000E-03 0.  1.
        -12    1    3    3    0    0 -0.31606412002E+00  0.53344606481E+00 -0.89142213067E-01  0.62642442974E+00  0.00000000000E+00 0.  1.
</event>
<event>
 7    1  0.3919732E-008  0.4614232E+02  0.7816164E-02  0.1320468E+00
        -11   -1    0    0    0    0  0.00000000000E+00  0.00000000000E+00  0.45593999997E+02  0.45594000000E+02  0.51100000000E-03 0.  1.
         11   -1    0    0    0    0 -0.00000000000E+00 -0.00000000000E+00 -0.45593999997E+02  0.45594000000E+02  0.51100000000E-03 0. -1.
    9900012    2    1    2    0    0 -0.73466737793E+01  0.30617448812E+02 -0.32213531978E+02  0.46142318410E+02  0.10000005917E+02 0.  0.
        -12    1    1    2    0    0  0.73466737793E+01 -0.30617448812E+02  0.32213531978E+02  0.45045681590E+02  0.00000000000E+00 0.  1.
         11    1    3    3    0    0 -0.21549764923E+01  0.19987089149E+02 -0.21442557976E+02  0.29392362088E+02  0.51100000000E-03 0. -1.
        -11    1    3    3    0    0 -0.15130378323E+01  0.38568310961E+01 -0.70816629598E+01  0.82045341198E+01  0.51100000000E-03 0.  1.
         12    1    3    3    0    0 -0.36786594547E+01  0.67735285674E+01 -0.36893110427E+01  0.85454222018E+01  0.00000000000E+00 0. -1.
</event>
<event>
 7    1  0.3919732E-008  0.4614232E+02  0.7816164E-02  0.1320468E+00
        -11   -1    0    0    0    0  0.00000000000E+00  0.00000000000E+00  0.45593999997E+02  0.45594000000E+02  0.51100000000E-03 0.  1.
         11   -1    0    0    0    0 -0.00000000000E+00 -0.00000000000E+00 -0.45593999997E+02  0.45594000000E+02  0.51100000000E-03 0. -1.
    9900012    2    1    2    0    0 -0.30803086210E+02 -0.11428480369E+01 -0.32847790290E+02  0.46142317092E+02  0.99999938989E+01 0.  0.
        -12    1    1    2    0    0  0.30803086210E+02  0.11428480369E+01  0.32847790290E+02  0.45045682908E+02  0.00000000000E+00 0.  1.
         11    1    3    3    0    0 -0.62413084523E+01 -0.25080737081E+01 -0.68189090132E+01  0.95781984377E+01  0.51100000000E-03 0. -1.
        -11    1    3    3    0    0 -0.17765132441E+01  0.48853882876E-01 -0.58009115661E+01  0.60670389209E+01  0.51100000000E-03 0.  1.
         12    1    3    3    0    0 -0.22785264514E+02  0.13163717883E+01 -0.20227969711E+02  0.30497079733E+02  0.00000000000E+00 0. -1.
</event>
<event>
 7    1  0.3919732E-008  0.4614232E+02  0.7816164E-02  0.1320468E+00
        -11   -1    0    0    0    0  0.00000000000E+00  0.00000000000E+00  0.45593999997E+02  0.45594000000E+02  0.51100000000E-03 0.  1.
         11   -1    0    0    0    0 -0.00000000000E+00 -0.00000000000E+00 -0.45593999997E+02  0.45594000000E+02  0.51100000000E-03 0. -1.
    9900012    2    1    2    0    0  0.25410858647E+02  0.19356090317E+02 -0.31760723031E+02  0.46142317665E+02  0.99999991236E+01 0.  0.
        -12    1    1    2    0    0 -0.25410858647E+02 -0.19356090317E+02  0.31760723031E+02  0.45045682335E+02  0.00000000000E+00 0.  1.
         11    1    3    3    0    0 -0.17208649562E+00  0.14146322643E+01 -0.28480719345E-01  0.14253454380E+01  0.51100000000E-03 0.  1.
        -11    1    3    3    0    0  0.35777432437E+01  0.37915085827E+01 -0.68859360112E+01  0.86366601798E+01  0.51100000000E-03 0. -1.
         12    1    3    3    0    0  0.22005201899E+02  0.14149949470E+02 -0.24846306301E+02  0.36080312047E+02  0.00000000000E+00 0. -1.
</event>
<event>
 7    1  0.3919732E-008  0.4614232E+02  0.7816164E-02  0.1320468E+00
        -11   -1    0    0    0    0  0.00000000000E+00  0.00000000000E+00  0.45593999997E+02  0.45594000000E+02  0.51100000000E-03 0.  1.
         11   -1    0    0    0    0 -0.00000000000E+00 -0.00000000000E+00 -0.45593999997E+02  0.45594000000E+02  0.51100000000E-03 0. -1.
    9900012    2    1    2    0    0 -0.41755197588E+02 -0.10163777141E+02 -0.13502393140E+02  0.46142317500E+02  0.99999976155E+01 0.  0.
        -12    1    1    2    0    0  0.41755197588E+02  0.10163777141E+02  0.13502393140E+02  0.45045682500E+02  0.00000000000E+00 0.  1.
         11    1    3    3    0    0 -0.13520649920E+02 -0.47732567249E+00 -0.65645769783E+01  0.15037602376E+02  0.51100000000E-03 0.  1.
        -11    1    3    3    0    0 -0.73802171943E+01 -0.17658187306E+01 -0.40764282176E+01  0.86141156771E+01  0.51100000000E-03 0. -1.
        -12    1    3    3    0    0 -0.20854330474E+02 -0.79206327379E+01 -0.28613879442E+01  0.22490599446E+02  0.00000000000E+00 0.  1.
</event>
<event>
 7    1  0.3919732E-008  0.4614232E+02  0.7816164E-02  0.1320468E+00
        -11   -1    0    0    0    0  0.00000000000E+00  0.00000000000E+00  0.45593999997E+02  0.45594000000E+02  0.51100000000E-03 0.  1.
         11   -1    0    0    0    0 -0.00000000000E+00 -0.00000000000E+00 -0.45593999997E+02  0.45594000000E+02  0.51100000000E-03 0. -1.
    9900012    2    1    2    0    0  0.10535133041E+02  0.42921087650E+02 -0.87123287382E+01  0.46142318018E+02  0.10000002338E+02 0.  0.
        -12    1    1    2    0    0 -0.10535133041E+02 -0.42921087650E+02  0.87123287382E+01  0.45045681982E+02  0.00000000000E+00 0.  1.
         11    1    3    3    0    0  0.69461390243E+01  0.11528492464E+02 -0.20650789286E+01  0.13616884265E+02  0.51100000000E-03 0. -1.
        -11    1    3    3    0    0  0.94094259498E-01  0.15751412794E+02 -0.42958502586E+01  0.16326977321E+02  0.51100000000E-03 0.  1.
         12    1    3    3    0    0  0.34948997575E+01  0.15641182392E+02 -0.23513995509E+01  0.16198456432E+02  0.00000000000E+00 0. -1.
</event>
<event>
 7    1  0.3919732E-008  0.4614232E+02  0.7816164E-02  0.1320468E+00
        -11   -1    0    0    0    0  0.00000000000E+00  0.00000000000E+00  0.45593999997E+02  0.45594000000E+02  0.51100000000E-03 0.  1.
         11   -1    0    0    0    0 -0.00000000000E+00 -0.00000000000E+00 -0.45593999997E+02  0.45594000000E+02  0.51100000000E-03 0. -1.
    9900012    2    1    2    0    0 -0.36161026516E+02 -0.14022698715E+02 -0.22909768923E+02  0.46142318409E+02  0.10000005906E+02 0.  0.
        -12    1    1    2    0    0  0.36161026516E+02  0.14022698715E+02  0.22909768923E+02  0.45045681591E+02  0.00000000000E+00 0.  1.
         11    1    3    3    0    0 -0.15228736022E+02 -0.93696386121E+01 -0.97490887810E+01  0.20365393707E+02  0.51100000000E-03 0. -1.
        -11    1    3    3    0    0 -0.16370115942E+02 -0.28847267230E+01 -0.73341149764E+01  0.18168422798E+02  0.51100000000E-03 0.  1.
        -12    1    3    3    0    0 -0.45621745521E+01 -0.17683333798E+01 -0.58265651655E+01  0.76085019034E+01  0.00000000000E+00 0.  1.
</event>
<event>
 7    1  0.3919732E-008  0.4614232E+02  0.7816164E-02  0.1320468E+00
        -11   -1    0    0    0    0  0.00000000000E+00  0.00000000000E+00  0.45593999997E+02  0.45594000000E+02  0.51100000000E-03 0.  1.
         11   -1    0    0    0    0 -0.00000000000E+00 -0.00000000000E+00 -0.45593999997E+02  0.45594000000E+02  0.51100000000E-03 0. -1.
    9900012    2    1    2    0    0 -0.15791823119E+02  0.39556619008E+02 -0.14663073509E+02  0.46142317527E+02  0.99999978620E+01 0.  0.
        -12    1    1    2    0    0  0.15791823119E+02 -0.39556619008E+02  0.14663073509E+02  0.45045682473E+02  0.00000000000E+00 0.  1.
         11    1    3    3    0    0 -0.67307912828E+01  0.14721440904E+02 -0.52112994569E+01  0.17005352565E+02  0.51100000000E-03 0. -1.
        -11    1    3    3    0    0 -0.13816631860E+01  0.58894626523E+01  0.10730902357E+01  0.61438006484E+01  0.51100000000E-03 0.  1.
         12    1    3    3    0    0 -0.76793686506E+01  0.18945715452E+02 -0.10524864288E+02  0.22993164313E+02  0.00000000000E+00 0. -1.
</event>
<event>
 7    1  0.3919732E-008  0.4614231E+02  0.7816164E-02  0.1320468E+00
        -11   -1    0    0    0    0  0.00000000000E+00  0.00000000000E+00  0.45593999997E+02  0.45594000000E+02  0.51100000000E-03 0. -1.
         11   -1    0    0    0    0 -0.00000000000E+00 -0.00000000000E+00 -0.45593999997E+02  0.45594000000E+02  0.51100000000E-03 0.  1.
    9900012    2    1    2    0    0  0.18434527106E+02 -0.38313540885E+02  0.14878000560E+02  0.46142310912E+02  0.99999375411E+01 0.  0.
        -12    1    1    2    0    0 -0.18434527106E+02  0.38313540885E+02 -0.14878000560E+02  0.45045689088E+02  0.00000000000E+00 0.  1.
         11    1    3    3    0    0  0.72359610828E+01 -0.12813313207E+02  0.19588592450E+01  0.14845108890E+02  0.51100000000E-03 0. -1.
        -11    1    3    3    0    0 -0.13283055693E+00  0.29126995253E+00  0.42769114421E-01  0.32297306447E+00  0.51100000000E-03 0.  1.
         12    1    3    3    0    0  0.11331396581E+02 -0.25791497630E+02  0.12876372200E+02  0.30974228958E+02  0.00000000000E+00 0. -1.
</event>
<event>
 7    1  0.3919732E-008  0.4614232E+02  0.7816164E-02  0.1320468E+00
        -11   -1    0    0    0    0  0.00000000000E+00  0.00000000000E+00  0.45593999997E+02  0.45594000000E+02  0.51100000000E-03 0.  1.
         11   -1    0    0    0    0 -0.00000000000E+00 -0.00000000000E+00 -0.45593999997E+02  0.45594000000E+02  0.51100000000E-03 0. -1.
    9900012    2    1    2    0    0 -0.28388923726E+02 -0.34797089401E+02 -0.35135399433E+01  0.46142318920E+02  0.10000010566E+02 0.  0.
        -12    1    1    2    0    0  0.28388923726E+02  0.34797089401E+02  0.35135399433E+01  0.45045681080E+02  0.00000000000E+00 0.  1.
         11    1    3    3    0    0 -0.22557932021E+02 -0.25857432687E+02 -0.23152942459E+01  0.34392262356E+02  0.51100000000E-03 0. -1.
        -11    1    3    3    0    0 -0.61721146940E+01 -0.90877950060E+01 -0.17095504906E+01  0.11117804685E+02  0.51100000000E-03 0.  1.
        -12    1    3    3    0    0  0.34112298913E+00  0.14813829275E+00  0.51130479324E+00  0.63225187946E+00  0.00000000000E+00 0.  1.
</event>
<event>
 7    1  0.3919732E-008  0.4614232E+02  0.7816164E-02  0.1320468E+00
        -11   -1    0    0    0    0  0.00000000000E+00  0.00000000000E+00  0.45593999997E+02  0.45594000000E+02  0.51100000000E-03 0. -1.
         11   -1    0    0    0    0 -0.00000000000E+00 -0.00000000000E+00 -0.45593999997E+02  0.45594000000E+02  0.51100000000E-03 0.  1.
    9900012    2    1    2    0    0 -0.14623005978E+02 -0.39191691980E+02  0.16712045003E+02  0.46142317940E+02  0.10000001633E+02 0.  0.
        -12    1    1    2    0    0  0.14623005978E+02  0.39191691980E+02 -0.16712045003E+02  0.45045682060E+02  0.00000000000E+00 0.  1.
         11    1    3    3    0    0 -0.10437530216E+02 -0.23210549516E+02  0.93506089688E+01  0.27112829697E+02  0.51100000000E-03 0. -1.
        -11    1    3    3    0    0 -0.16731808948E+01 -0.65382007148E+01 -0.76408917305E-01  0.67493289650E+01  0.51100000000E-03 0.  1.
         12    1    3    3    0    0 -0.25122948668E+01 -0.94429417493E+01  0.74378449513E+01  0.12280159278E+02  0.00000000000E+00 0. -1.
</event>
<event>
 7    1  0.3919732E-008  0.4614232E+02  0.7816164E-02  0.1320468E+00
        -11   -1    0    0    0    0  0.00000000000E+00  0.00000000000E+00  0.45593999997E+02  0.45594000000E+02  0.51100000000E-03 0. -1.
         11   -1    0    0    0    0 -0.00000000000E+00 -0.00000000000E+00 -0.45593999997E+02  0.45594000000E+02  0.51100000000E-03 0.  1.
    9900012    2    1    2    0    0  0.37123893102E+02  0.66420263359E+01  0.24633585025E+02  0.46142318031E+02  0.10000002460E+02 0.  0.
        -12    1    1    2    0    0 -0.37123893102E+02 -0.66420263359E+01 -0.24633585025E+02  0.45045681969E+02  0.00000000000E+00 0.  1.
         11    1    3    3    0    0  0.39500556272E+01 -0.54887003420E-02  0.36190528689E+01  0.53572860212E+01  0.51100000000E-03 0. -1.
        -11    1    3    3    0    0  0.14039533939E+02 -0.38220361568E+00  0.51677867855E+01  0.14965313674E+02  0.51100000000E-03 0.  1.
         12    1    3    3    0    0  0.19134303535E+02  0.70297186519E+01  0.15846745371E+02  0.25819718336E+02  0.00000000000E+00 0. -1.
</event>
<event>
 7    1  0.3919732E-008  0.4614232E+02  0.7816164E-02  0.1320468E+00
        -11   -1    0    0    0    0  0.00000000000E+00  0.00000000000E+00  0.45593999997E+02  0.45594000000E+02  0.51100000000E-03 0. -1.
         11   -1    0    0    0    0 -0.00000000000E+00 -0.00000000000E+00 -0.45593999997E+02  0.45594000000E+02  0.51100000000E-03 0.  1.
    9900012    2    1    2    0    0  0.61811675019E+01  0.38916589072E+01  0.44449535244E+02  0.46142322914E+02  0.10000046987E+02 0.  0.
        -12    1    1    2    0    0 -0.61811675019E+01 -0.38916589072E+01 -0.44449535244E+02  0.45045677086E+02  0.00000000000E+00 0.  1.
         11    1    3    3    0    0  0.18441435782E+01 -0.99487053394E+00  0.47479293655E+01  0.51897462787E+01  0.51100000000E-03 0. -1.
        -11    1    3    3    0    0 -0.11979342782E+01  0.61151001013E+00  0.11436168734E+01  0.17654605183E+01  0.51100000000E-03 0.  1.
         12    1    3    3    0    0  0.55349582020E+01  0.42750194310E+01  0.38557989005E+02  0.39187116117E+02  0.00000000000E+00 0. -1.
</event>
<event>
 7    1  0.3919732E-008  0.4614232E+02  0.7816164E-02  0.1320468E+00
        -11   -1    0    0    0    0  0.00000000000E+00  0.00000000000E+00  0.45593999997E+02  0.45594000000E+02  0.51100000000E-03 0.  1.
         11   -1    0    0    0    0 -0.00000000000E+00 -0.00000000000E+00 -0.45593999997E+02  0.45594000000E+02  0.51100000000E-03 0. -1.
    9900012    2    1    2    0    0 -0.30566065193E+02 -0.19655008604E+02 -0.26617846163E+02  0.46142318310E+02  0.10000005003E+02 0.  0.
        -12    1    1    2    0    0  0.30566065193E+02  0.19655008604E+02  0.26617846163E+02  0.45045681690E+02  0.00000000000E+00 0.  1.
         11    1    3    3    0    0 -0.13509481049E+02 -0.83608212549E+01 -0.16955664404E+02  0.23235833661E+02  0.51100000000E-03 0. -1.
        -11    1    3    3    0    0 -0.50669575207E+00 -0.69084283060E+00 -0.12759854354E+01  0.15369266392E+01  0.51100000000E-03 0.  1.
        -12    1    3    3    0    0 -0.16549888392E+02 -0.10603344518E+02 -0.83861963233E+01  0.21369558010E+02  0.00000000000E+00 0.  1.
</event>
<event>
 7    1  0.3919732E-008  0.4614232E+02  0.7816164E-02  0.1320468E+00
        -11   -1    0    0    0    0  0.00000000000E+00  0.00000000000E+00  0.45593999997E+02  0.45594000000E+02  0.51100000000E-03 0.  1.
         11   -1    0    0    0    0 -0.00000000000E+00 -0.00000000000E+00 -0.45593999997E+02  0.45594000000E+02  0.51100000000E-03 0. -1.
    9900012    2    1    2    0    0 -0.41811659321E+02  0.15218535683E+02  0.70210251311E+01  0.46142317883E+02  0.10000001109E+02 0.  0.
        -12    1    1    2    0    0  0.41811659321E+02 -0.15218535683E+02 -0.70210251311E+01  0.45045682117E+02  0.00000000000E+00 0.  1.
         11    1    3    3    0    0 -0.26887476103E+02  0.96407537432E+01  0.83825031691E+01  0.29768219019E+02  0.51100000000E-03 0. -1.
        -11    1    3    3    0    0 -0.56150729751E+01  0.89784068698E+00  0.77220118269E+00  0.57385936729E+01  0.51100000000E-03 0.  1.
        -12    1    3    3    0    0 -0.93091102431E+01  0.46799412532E+01 -0.21336792206E+01  0.10635505191E+02  0.00000000000E+00 0.  1.
</event>
<event>
 7    1  0.3919732E-008  0.4614232E+02  0.7816164E-02  0.1320468E+00
        -11   -1    0    0    0    0  0.00000000000E+00  0.00000000000E+00  0.45593999997E+02  0.45594000000E+02  0.51100000000E-03 0.  1.
         11   -1    0    0    0    0 -0.00000000000E+00 -0.00000000000E+00 -0.45593999997E+02  0.45594000000E+02  0.51100000000E-03 0. -1.
    9900012    2    1    2    0    0 -0.23071660501E+00 -0.15563299545E+02 -0.42271077733E+02  0.46142317237E+02  0.99999952227E+01 0.  0.
        -12    1    1    2    0    0  0.23071660501E+00  0.15563299545E+02  0.42271077733E+02  0.45045682763E+02  0.00000000000E+00 0.  1.
         11    1    3    3    0    0  0.48479544855E+00 -0.85436035522E+01 -0.23220501352E+02  0.24747118450E+02  0.51100000000E-03 0. -1.
        -11    1    3    3    0    0  0.55301838740E+00 -0.76835392271E+01 -0.18114932945E+02  0.19684852051E+02  0.51100000000E-03 0.  1.
        -12    1    3    3    0    0 -0.12685304410E+01  0.66384323482E+00 -0.93564343602E+00  0.17103467366E+01  0.00000000000E+00 0.  1.
</event>
<event>
 7    1  0.3919732E-008  0.4614231E+02  0.7816164E-02  0.1320468E+00
        -11   -1    0    0    0    0  0.00000000000E+00  0.00000000000E+00  0.45593999997E+02  0.45594000000E+02  0.51100000000E-03 0.  1.
         11   -1    0    0    0    0 -0.00000000000E+00 -0.00000000000E+00 -0.45593999997E+02  0.45594000000E+02  0.51100000000E-03 0. -1.
    9900012    2    1    2    0    0 -0.30569223936E+02  0.32312552798E+02 -0.71088150910E+01  0.46142314609E+02  0.99999712548E+01 0.  0.
        -12    1    1    2    0    0  0.30569223936E+02 -0.32312552798E+02  0.71088150910E+01  0.45045685391E+02  0.00000000000E+00 0.  1.
         11    1    3    3    0    0 -0.40502705602E+01  0.19181085926E+01  0.34542461770E+00  0.44947914981E+01  0.51100000000E-03 0. -1.
        -11    1    3    3    0    0 -0.19835493077E+02  0.24679797461E+02 -0.85213014954E+01  0.32789506976E+02  0.51100000000E-03 0.  1.
        -12    1    3    3    0    0 -0.66834602990E+01  0.57146467448E+01  0.10670617867E+01  0.88580161347E+01  0.00000000000E+00 0.  1.
</event>
<event>
 7    1  0.3919732E-008  0.4614232E+02  0.7816164E-02  0.1320468E+00
        -11   -1    0    0    0    0  0.00000000000E+00  0.00000000000E+00  0.45593999997E+02  0.45594000000E+02  0.51100000000E-03 0.  1.
         11   -1    0    0    0    0 -0.00000000000E+00 -0.00000000000E+00 -0.45593999997E+02  0.45594000000E+02  0.51100000000E-03 0. -1.
    9900012    2    1    2    0    0 -0.24417384894E+02 -0.13007447830E+02 -0.35548713116E+02  0.46142318872E+02  0.10000010130E+02 0.  0.
        -12    1    1    2    0    0  0.24417384894E+02  0.13007447830E+02  0.35548713116E+02  0.45045681128E+02  0.00000000000E+00 0.  1.
         11    1    3    3    0    0 -0.46067470615E+01  0.99563909423E+00 -0.72794984977E+01  0.86720536399E+01  0.51100000000E-03 0. -1.
        -11    1    3    3    0    0 -0.45622188758E+01 -0.40133987836E+01 -0.47443357648E+01  0.77090812019E+01  0.51100000000E-03 0.  1.
         12    1    3    3    0    0 -0.15248418956E+02 -0.99896881402E+01 -0.23524878854E+02  0.29761184030E+02  0.00000000000E+00 0. -1.
</event>
<event>
 7    1  0.3919732E-008  0.4614232E+02  0.7816164E-02  0.1320468E+00
        -11   -1    0    0    0    0  0.00000000000E+00  0.00000000000E+00  0.45593999997E+02  0.45594000000E+02  0.51100000000E-03 0.  1.
         11   -1    0    0    0    0 -0.00000000000E+00 -0.00000000000E+00 -0.45593999997E+02  0.45594000000E+02  0.51100000000E-03 0. -1.
    9900012    2    1    2    0    0 -0.33142035762E+02 -0.30287898454E+02 -0.36554539105E+01  0.46142315739E+02  0.99999815653E+01 0.  0.
        -12    1    1    2    0    0  0.33142035762E+02  0.30287898454E+02  0.36554539105E+01  0.45045684261E+02  0.00000000000E+00 0.  1.
         11    1    3    3    0    0 -0.21050022404E+02 -0.17131539730E+02 -0.41176109789E+01  0.27450825437E+02  0.51100000000E-03 0. -1.
        -11    1    3    3    0    0 -0.67885419458E+01 -0.90889267995E+01  0.26670164367E+01  0.11653577522E+02  0.51100000000E-03 0.  1.
        -12    1    3    3    0    0 -0.53034714122E+01 -0.40674319241E+01 -0.22048593683E+01  0.70379127809E+01  0.00000000000E+00 0.  1.
</event>
<event>
 7    1  0.3919732E-008  0.4614232E+02  0.7816164E-02  0.1320468E+00
        -11   -1    0    0    0    0  0.00000000000E+00  0.00000000000E+00  0.45593999997E+02  0.45594000000E+02  0.51100000000E-03 0.  1.
         11   -1    0    0    0    0 -0.00000000000E+00 -0.00000000000E+00 -0.45593999997E+02  0.45594000000E+02  0.51100000000E-03 0. -1.
    9900012    2    1    2    0    0 -0.65956322514E+01  0.87212279056E+01 -0.43698414100E+02  0.46142316791E+02  0.99999911514E+01 0.  0.
        -12    1    1    2    0    0  0.65956322514E+01 -0.87212279056E+01  0.43698414100E+02  0.45045683209E+02  0.00000000000E+00 0.  1.
         11    1    3    3    0    0 -0.15295018639E+01  0.29015674612E+01 -0.21173311387E+02  0.21425862527E+02  0.51100000000E-03 0. -1.
        -11    1    3    3    0    0  0.12030859373E+01  0.26269715189E+01 -0.43000671014E+01  0.51806343696E+01  0.51100000000E-03 0.  1.
        -12    1    3    3    0    0 -0.62692163248E+01  0.31926889255E+01 -0.18225035611E+02  0.19535819894E+02  0.00000000000E+00 0.  1.
</event>
<event>
 7    1  0.3919732E-008  0.4614232E+02  0.7816164E-02  0.1320468E+00
        -11   -1    0    0    0    0  0.00000000000E+00  0.00000000000E+00  0.45593999997E+02  0.45594000000E+02  0.51100000000E-03 0.  1.
         11   -1    0    0    0    0 -0.00000000000E+00 -0.00000000000E+00 -0.45593999997E+02  0.45594000000E+02  0.51100000000E-03 0. -1.
    9900012    2    1    2    0    0 -0.24605340357E+02  0.34294303297E+02 -0.15735031153E+02  0.46142320761E+02  0.10000027355E+02 0.  0.
        -12    1    1    2    0    0  0.24605340357E+02 -0.34294303297E+02  0.15735031153E+02  0.45045679239E+02  0.00000000000E+00 0.  1.
         11    1    3    3    0    0 -0.17560339502E+02  0.21332617562E+02 -0.67218231518E+01  0.28436402765E+02  0.51100000000E-03 0. -1.
        -11    1    3    3    0    0 -0.14029528042E+01  0.38348411773E+00 -0.87621335891E+00  0.16979654740E+01  0.51100000000E-03 0.  1.
         12    1    3    3    0    0 -0.56420480510E+01  0.12578201617E+02 -0.81369946422E+01  0.16007952522E+02  0.00000000000E+00 0. -1.
</event>
<event>
 7    1  0.3919732E-008  0.4614232E+02  0.7816164E-02  0.1320468E+00
        -11   -1    0    0    0    0  0.00000000000E+00  0.00000000000E+00  0.45593999997E+02  0.45594000000E+02  0.51100000000E-03 0. -1.
         11   -1    0    0    0    0 -0.00000000000E+00 -0.00000000000E+00 -0.45593999997E+02  0.45594000000E+02  0.51100000000E-03 0.  1.
    9900012    2    1    2    0    0  0.54002920717E+01  0.42651509268E+02  0.13446153398E+02  0.46142318315E+02  0.10000005048E+02 0.  0.
        -12    1    1    2    0    0 -0.54002920717E+01 -0.42651509268E+02 -0.13446153398E+02  0.45045681685E+02  0.00000000000E+00 0.  1.
         11    1    3    3    0    0 -0.17545439359E+01  0.88086818501E+01  0.55362067525E+01  0.10550871330E+02  0.51100000000E-03 0. -1.
        -11    1    3    3    0    0  0.20740557221E+01  0.68526156475E+01  0.68218767844E+00  0.71920392547E+01  0.51100000000E-03 0.  1.
        -12    1    3    3    0    0  0.50807802855E+01  0.26990211770E+02  0.72277589672E+01  0.28399407730E+02  0.00000000000E+00 0.  1.
</event>
<event>
 7    1  0.3919732E-008  0.4614232E+02  0.7816164E-02  0.1320468E+00
        -11   -1    0    0    0    0  0.00000000000E+00  0.00000000000E+00  0.45593999997E+02  0.45594000000E+02  0.51100000000E-03 0.  1.
         11   -1    0    0    0    0 -0.00000000000E+00 -0.00000000000E+00 -0.45593999997E+02  0.45594000000E+02  0.51100000000E-03 0. -1.
    9900012    2    1    2    0    0  0.34061427408E+02  0.27465945375E+02 -0.10703024697E+02  0.46142315078E+02  0.99999755363E+01 0.  0.
        -12    1    1    2    0    0 -0.34061427408E+02 -0.27465945375E+02  0.10703024697E+02  0.45045684922E+02  0.00000000000E+00 0.  1.
         11    1    3    3    0    0  0.16356414087E+02  0.12978495650E+02 -0.82697278694E+01  0.22458005932E+02  0.51100000000E-03 0. -1.
        -11    1    3    3    0    0  0.52550351382E+01  0.69203106930E+01 -0.27419531403E+01  0.91117726967E+01  0.51100000000E-03 0.  1.
         12    1    3    3    0    0  0.12449978182E+02  0.75671390313E+01  0.30865631217E+00  0.14572536450E+02  0.00000000000E+00 0. -1.
</event>
<event>
 7    1  0.3919732E-008  0.4614232E+02  0.7816164E-02  0.1320468E+00
        -11   -1    0    0    0    0  0.00000000000E+00  0.00000000000E+00  0.45593999997E+02  0.45594000000E+02  0.51100000000E-03 0.  1.
         11   -1    0    0    0    0 -0.00000000000E+00 -0.00000000000E+00 -0.45593999997E+02  0.45594000000E+02  0.51100000000E-03 0. -1.
    9900012    2    1    2    0    0 -0.13790610669E+02 -0.33447701736E+02 -0.26836243453E+02  0.46142315893E+02  0.99999829617E+01 0.  0.
        -12    1    1    2    0    0  0.13790610669E+02  0.33447701736E+02  0.26836243453E+02  0.45045684107E+02  0.00000000000E+00 0.  1.
         11    1    3    3    0    0 -0.13317034939E+02 -0.27996419402E+02 -0.22953682253E+02  0.38574790319E+02  0.51100000000E-03 0. -1.
        -11    1    3    3    0    0 -0.12625785727E+01 -0.18161762556E+01 -0.30297587739E+01  0.37512716954E+01  0.51100000000E-03 0.  1.
        -12    1    3    3    0    0  0.78900284237E+00 -0.36351060787E+01 -0.85280242539E+00  0.38162538785E+01  0.00000000000E+00 0.  1.
</event>
<event>
 7    1  0.3919732E-008  0.4614232E+02  0.7816164E-02  0.1320468E+00
        -11   -1    0    0    0    0  0.00000000000E+00  0.00000000000E+00  0.45593999997E+02  0.45594000000E+02  0.51100000000E-03 0. -1.
         11   -1    0    0    0    0 -0.00000000000E+00 -0.00000000000E+00 -0.45593999997E+02  0.45594000000E+02  0.51100000000E-03 0.  1.
    9900012    2    1    2    0    0  0.27360391833E+02 -0.10734688536E+02  0.34136329057E+02  0.46142317180E+02  0.99999947017E+01 0.  0.
        -12    1    1    2    0    0 -0.27360391833E+02  0.10734688536E+02 -0.34136329057E+02  0.45045682820E+02  0.00000000000E+00 0.  1.
         11    1    3    3    0    0  0.37473235467E+01 -0.30093432665E+01  0.90792165928E+01  0.10272816306E+02  0.51100000000E-03 0. -1.
        -11    1    3    3    0    0  0.22081170508E+01  0.57378459576E+00  0.67282638471E+00  0.23785931298E+01  0.51100000000E-03 0.  1.
         12    1    3    3    0    0  0.21404951235E+02 -0.82991298652E+01  0.24384286080E+02  0.33490907744E+02  0.00000000000E+00 0. -1.
</event>
<event>
 7    1  0.3919732E-008  0.4614232E+02  0.7816164E-02  0.1320468E+00
        -11   -1    0    0    0    0  0.00000000000E+00  0.00000000000E+00  0.45593999997E+02  0.45594000000E+02  0.51100000000E-03 0.  1.
         11   -1    0    0    0    0 -0.00000000000E+00 -0.00000000000E+00 -0.45593999997E+02  0.45594000000E+02  0.51100000000E-03 0. -1.
    9900012    2    1    2    0    0 -0.57950833981E+01 -0.10364922639E+02 -0.43452259804E+02  0.46142317688E+02  0.99999993317E+01 0.  0.
        -12    1    1    2    0    0  0.57950833981E+01  0.10364922639E+02  0.43452259804E+02  0.45045682312E+02  0.00000000000E+00 0.  1.
         11    1    3    3    0    0 -0.41996941993E+01 -0.51757035892E+01 -0.21513799054E+02  0.22522630597E+02  0.51100000000E-03 0. -1.
        -11    1    3    3    0    0  0.48116262276E+00 -0.20635200602E+01 -0.99174370221E+00  0.23394846313E+01  0.51100000000E-03 0.  1.
        -12    1    3    3    0    0 -0.20765518215E+01 -0.31256989897E+01 -0.20946717048E+02  0.21280202460E+02  0.00000000000E+00 0.  1.
</event>
<event>
 7    1  0.3919732E-008  0.4614231E+02  0.7816164E-02  0.1320468E+00
        -11   -1    0    0    0    0  0.00000000000E+00  0.00000000000E+00  0.45593999997E+02  0.45594000000E+02  0.51100000000E-03 0.  1.
         11   -1    0    0    0    0 -0.00000000000E+00 -0.00000000000E+00 -0.45593999997E+02  0.45594000000E+02  0.51100000000E-03 0. -1.
    9900012    2    1    2    0    0  0.13285990750E+02  0.17151589764E+02 -0.39476828606E+02  0.46142305662E+02  0.99998896699E+01 0.  0.
        -12    1    1    2    0    0 -0.13285990750E+02 -0.17151589764E+02  0.39476828606E+02  0.45045694338E+02  0.00000000000E+00 0.  1.
         11    1    3    3    0    0  0.24032119579E+01  0.99799570161E+00 -0.58139680818E+01  0.63697447557E+01  0.51100000000E-03 0. -1.
        -11    1    3    3    0    0  0.10735930279E+02  0.92742336341E+01 -0.20673128387E+02  0.25072890659E+02  0.51100000000E-03 0.  1.
         12    1    3    3    0    0  0.14684851363E+00  0.68793604280E+01 -0.12989732137E+02  0.14699670247E+02  0.00000000000E+00 0. -1.
</event>
<event>
 7    1  0.3919732E-008  0.4614232E+02  0.7816164E-02  0.1320468E+00
        -11   -1    0    0    0    0  0.00000000000E+00  0.00000000000E+00  0.45593999997E+02  0.45594000000E+02  0.51100000000E-03 0.  1.
         11   -1    0    0    0    0 -0.00000000000E+00 -0.00000000000E+00 -0.45593999997E+02  0.45594000000E+02  0.51100000000E-03 0. -1.
    9900012    2    1    2    0    0 -0.19230332343E+02 -0.13883146113E+02 -0.38295770546E+02  0.46142317968E+02  0.10000001890E+02 0.  0.
        -12    1    1    2    0    0  0.19230332343E+02  0.13883146113E+02  0.38295770546E+02  0.45045682032E+02  0.00000000000E+00 0.  1.
         11    1    3    3    0    0 -0.27624146899E+01 -0.19337849833E+01 -0.31496701804E+01  0.46142043504E+01  0.51100000000E-03 0. -1.
        -11    1    3    3    0    0 -0.38101812092E+01  0.96660103267E-01 -0.26828595024E+01  0.46609612091E+01  0.51100000000E-03 0.  1.
        -12    1    3    3    0    0 -0.12657736444E+02 -0.12046021233E+02 -0.32463240863E+02  0.36867152409E+02  0.00000000000E+00 0.  1.
</event>
<event>
 7    1  0.3919732E-008  0.4614232E+02  0.7816164E-02  0.1320468E+00
        -11   -1    0    0    0    0  0.00000000000E+00  0.00000000000E+00  0.45593999997E+02  0.45594000000E+02  0.51100000000E-03 0.  1.
         11   -1    0    0    0    0 -0.00000000000E+00 -0.00000000000E+00 -0.45593999997E+02  0.45594000000E+02  0.51100000000E-03 0. -1.
    9900012    2    1    2    0    0 -0.47143593984E+01  0.59722985562E+01 -0.44398422807E+02  0.46142317829E+02  0.10000000615E+02 0.  0.
        -12    1    1    2    0    0  0.47143593984E+01 -0.59722985562E+01  0.44398422807E+02  0.45045682171E+02  0.00000000000E+00 0.  1.
         11    1    3    3    0    0  0.20615545684E+01  0.15669816424E+01 -0.19962801858E+02  0.20130049602E+02  0.51100000000E-03 0.  1.
        -11    1    3    3    0    0 -0.21099088988E+01 -0.43428876923E+00 -0.70673498469E+01  0.73883527539E+01  0.51100000000E-03 0. -1.
        -12    1    3    3    0    0 -0.46660050680E+01  0.48396056830E+01 -0.17368271102E+02  0.18623915473E+02  0.00000000000E+00 0.  1.
</event>
<event>
 7    1  0.5651462E-008  0.4614232E+02  0.7816164E-02  0.1320468E+00
        -11   -1    0    0    0    0  0.00000000000E+00  0.00000000000E+00  0.45593999997E+02  0.45594000000E+02  0.51100000000E-03 0.  1.
         11   -1    0    0    0    0 -0.00000000000E+00 -0.00000000000E+00 -0.45593999997E+02  0.45594000000E+02  0.51100000000E-03 0. -1.
    9900012    2    1    2    0    0 -0.12097190268E+02 -0.41497585297E+02 -0.12677617654E+02  0.46142316663E+02  0.99999899889E+01 0.  0.
        -12    1    1    2    0    0  0.12097190268E+02  0.41497585297E+02  0.12677617654E+02  0.45045683337E+02  0.00000000000E+00 0.  1.
         11    1    3    3    0    0 -0.10182441439E+02 -0.29687559826E+02 -0.96166384238E+01  0.32825494009E+02  0.51100000000E-03 0. -1.
        -11    1    3    3    0    0 -0.22957293419E+01 -0.10371165361E+02 -0.42205766697E+01  0.11429991769E+02  0.51100000000E-03 0.  1.
        -12    1    3    3    0    0  0.38098051324E+00 -0.14388601101E+01  0.11595974393E+01  0.18868308852E+01  0.00000000000E+00 0.  1.
</event>
<event>
 7    1  0.3919732E-008  0.4614232E+02  0.7816164E-02  0.1320468E+00
        -11   -1    0    0    0    0  0.00000000000E+00  0.00000000000E+00  0.45593999997E+02  0.45594000000E+02  0.51100000000E-03 0.  1.
         11   -1    0    0    0    0 -0.00000000000E+00 -0.00000000000E+00 -0.45593999997E+02  0.45594000000E+02  0.51100000000E-03 0. -1.
    9900012    2    1    2    0    0  0.14371882989E+02 -0.27230615047E+02 -0.32879408252E+02  0.46142324254E+02  0.10000059205E+02 0.  0.
        -12    1    1    2    0    0 -0.14371882989E+02  0.27230615047E+02  0.32879408252E+02  0.45045675746E+02  0.00000000000E+00 0.  1.
         11    1    3    3    0    0  0.88869073411E+01 -0.16831434668E+02 -0.18888894699E+02  0.26815381002E+02  0.51100000000E-03 0. -1.
        -11    1    3    3    0    0  0.16701382474E+01 -0.54735113709E+01 -0.24766908888E+01  0.62355983284E+01  0.51100000000E-03 0.  1.
        -12    1    3    3    0    0  0.38148374005E+01 -0.49256690074E+01 -0.11513822664E+02  0.13091344923E+02  0.00000000000E+00 0.  1.
</event>
<event>
 7    1  0.3919732E-008  0.4614232E+02  0.7816164E-02  0.1320468E+00
        -11   -1    0    0    0    0  0.00000000000E+00  0.00000000000E+00  0.45593999997E+02  0.45594000000E+02  0.51100000000E-03 0.  1.
         11   -1    0    0    0    0 -0.00000000000E+00 -0.00000000000E+00 -0.45593999997E+02  0.45594000000E+02  0.51100000000E-03 0. -1.
    9900012    2    1    2    0    0  0.65925627910E+00  0.41958629288E+02 -0.16375353717E+02  0.46142318743E+02  0.10000008952E+02 0.  0.
        -12    1    1    2    0    0 -0.65925627910E+00 -0.41958629288E+02  0.16375353717E+02  0.45045681257E+02  0.00000000000E+00 0.  1.
         11    1    3    3    0    0  0.11348722107E+01  0.23849535489E+02 -0.81890891516E+01  0.25241819653E+02  0.51100000000E-03 0. -1.
        -11    1    3    3    0    0  0.25758972877E+01  0.70140417945E+01 -0.15985415297E+01  0.76411625041E+01  0.51100000000E-03 0.  1.
         12    1    3    3    0    0 -0.30515132193E+01  0.11095052004E+02 -0.65877230362E+01  0.13259336586E+02  0.00000000000E+00 0. -1.
</event>
<event>
 7    1  0.3919732E-008  0.4614232E+02  0.7816164E-02  0.1320468E+00
        -11   -1    0    0    0    0  0.00000000000E+00  0.00000000000E+00  0.45593999997E+02  0.45594000000E+02  0.51100000000E-03 0.  1.
         11   -1    0    0    0    0 -0.00000000000E+00 -0.00000000000E+00 -0.45593999997E+02  0.45594000000E+02  0.51100000000E-03 0. -1.
    9900012    2    1    2    0    0  0.30519578612E+02  0.22766898028E+02 -0.24069424242E+02  0.46142317545E+02  0.99999980329E+01 0.  0.
        -12    1    1    2    0    0 -0.30519578612E+02 -0.22766898028E+02  0.24069424242E+02  0.45045682455E+02  0.00000000000E+00 0.  1.
         11    1    3    3    0    0  0.18336149007E+02  0.14494947998E+02 -0.15539967785E+02  0.28067926124E+02  0.51100000000E-03 0. -1.
        -11    1    3    3    0    0  0.32117062595E+01  0.78583960477E+00 -0.47618729575E+01  0.57972437681E+01  0.51100000000E-03 0.  1.
        -12    1    3    3    0    0  0.89717233457E+01  0.74861104245E+01 -0.37675834998E+01  0.12277147654E+02  0.00000000000E+00 0.  1.
</event>
<event>
 7    1  0.3919732E-008  0.4614232E+02  0.7816164E-02  0.1320468E+00
        -11   -1    0    0    0    0  0.00000000000E+00  0.00000000000E+00  0.45593999997E+02  0.45594000000E+02  0.51100000000E-03 0.  1.
         11   -1    0    0    0    0 -0.00000000000E+00 -0.00000000000E+00 -0.45593999997E+02  0.45594000000E+02  0.51100000000E-03 0. -1.
    9900012    2    1    2    0    0  0.16568985033E+02  0.87848554028E+01 -0.40956177162E+02  0.46142318773E+02  0.10000009231E+02 0.  0.
        -12    1    1    2    0    0 -0.16568985033E+02 -0.87848554028E+01  0.40956177162E+02  0.45045681227E+02  0.00000000000E+00 0.  1.
         11    1    3    3    0    0  0.69295574990E+01  0.36233999000E+01 -0.86692335370E+01  0.11674904897E+02  0.51100000000E-03 0.  1.
        -11    1    3    3    0    0  0.13759650385E+01  0.17728288468E+00 -0.11098426895E+02  0.11184801689E+02  0.51100000000E-03 0. -1.
         12    1    3    3    0    0  0.82634624956E+01  0.49841726181E+01 -0.21188516729E+02  0.23282612188E+02  0.00000000000E+00 0. -1.
</event>
<event>
 7    1  0.3919732E-008  0.4614231E+02  0.7816164E-02  0.1320468E+00
        -11   -1    0    0    0    0  0.00000000000E+00  0.00000000000E+00  0.45593999997E+02  0.45594000000E+02  0.51100000000E-03 0.  1.
         11   -1    0    0    0    0 -0.00000000000E+00 -0.00000000000E+00 -0.45593999997E+02  0.45594000000E+02  0.51100000000E-03 0. -1.
    9900012    2    1    2    0    0  0.21896293619E+02 -0.37135515837E+02 -0.13062143507E+02  0.46142314261E+02  0.99999680799E+01 0.  0.
        -12    1    1    2    0    0 -0.21896293619E+02  0.37135515837E+02  0.13062143507E+02  0.45045685739E+02  0.00000000000E+00 0.  1.
         11    1    3    3    0    0  0.24644735662E+01 -0.71827232359E+01 -0.63133152735E+00  0.76199555642E+01  0.51100000000E-03 0.  1.
        -11    1    3    3    0    0  0.11989090189E+02 -0.22333228392E+02 -0.58904817538E+01  0.26023242487E+02  0.51100000000E-03 0. -1.
        -12    1    3    3    0    0  0.74427298637E+01 -0.76195642091E+01 -0.65403302256E+01  0.12499116210E+02  0.00000000000E+00 0.  1.
</event>
<event>
 7    1  0.3919732E-008  0.4614232E+02  0.7816164E-02  0.1320468E+00
        -11   -1    0    0    0    0  0.00000000000E+00  0.00000000000E+00  0.45593999997E+02  0.45594000000E+02  0.51100000000E-03 0.  1.
         11   -1    0    0    0    0 -0.00000000000E+00 -0.00000000000E+00 -0.45593999997E+02  0.45594000000E+02  0.51100000000E-03 0. -1.
    9900012    2    1    2    0    0 -0.29231779427E+02 -0.22060388463E+02 -0.26228909496E+02  0.46142319175E+02  0.10000012896E+02 0.  0.
        -12    1    1    2    0    0  0.29231779427E+02  0.22060388463E+02  0.26228909496E+02  0.45045680825E+02  0.00000000000E+00 0.  1.
         11    1    3    3    0    0 -0.29025175744E+01 -0.59496134147E+01 -0.65213841157E+01  0.92925216760E+01  0.51100000000E-03 0. -1.
        -11    1    3    3    0    0 -0.23435884206E+01 -0.26680705146E+00 -0.19564987893E+01  0.30645522448E+01  0.51100000000E-03 0.  1.
         12    1    3    3    0    0 -0.23985673432E+02 -0.15843967997E+02 -0.17751026591E+02  0.33785245255E+02  0.00000000000E+00 0. -1.
</event>
<event>
 7    1  0.3919732E-008  0.4614232E+02  0.7816164E-02  0.1320468E+00
        -11   -1    0    0    0    0  0.00000000000E+00  0.00000000000E+00  0.45593999997E+02  0.45594000000E+02  0.51100000000E-03 0.  1.
         11   -1    0    0    0    0 -0.00000000000E+00 -0.00000000000E+00 -0.45593999997E+02  0.45594000000E+02  0.51100000000E-03 0. -1.
    9900012    2    1    2    0    0 -0.39641346469E+01 -0.33706453460E+02 -0.29618811670E+02  0.46142319041E+02  0.10000011667E+02 0.  0.
        -12    1    1    2    0    0  0.39641346469E+01  0.33706453460E+02  0.29618811670E+02  0.45045680959E+02  0.00000000000E+00 0.  1.
         11    1    3    3    0    0  0.20596650093E+01 -0.17210499346E+01 -0.21977853573E+01  0.34690767599E+01  0.51100000000E-03 0. -1.
        -11    1    3    3    0    0 -0.75785529306E+00 -0.42023680308E+01 -0.23076213312E+01  0.48537983251E+01  0.51100000000E-03 0.  1.
         12    1    3    3    0    0 -0.52659443632E+01 -0.27783035495E+02 -0.25113404981E+02  0.37819443956E+02  0.00000000000E+00 0. -1.
</event>
<event>
 7    1  0.3919732E-008  0.4614231E+02  0.7816164E-02  0.1320468E+00
        -11   -1    0    0    0    0  0.00000000000E+00  0.00000000000E+00  0.45593999997E+02  0.45594000000E+02  0.51100000000E-03 0.  1.
         11   -1    0    0    0    0 -0.00000000000E+00 -0.00000000000E+00 -0.45593999997E+02  0.45594000000E+02  0.51100000000E-03 0. -1.
    9900012    2    1    2    0    0 -0.28700355802E+02 -0.30913939067E+02 -0.15802919672E+02  0.46142308508E+02  0.99999156225E+01 0.  0.
        -12    1    1    2    0    0  0.28700355802E+02  0.30913939067E+02  0.15802919672E+02  0.45045691492E+02  0.00000000000E+00 0.  1.
         11    1    3    3    0    0 -0.90063386716E+00 -0.23627079787E+01 -0.17279881828E+01  0.30625926559E+01  0.51100000000E-03 0. -1.
        -11    1    3    3    0    0 -0.11155708799E+02 -0.17061919658E+02 -0.55127582823E+01  0.21117515132E+02  0.51100000000E-03 0.  1.
         12    1    3    3    0    0 -0.16644013136E+02 -0.11489311430E+02 -0.85621732071E+01  0.21962200720E+02  0.00000000000E+00 0. -1.
</event>
<event>
 7    1  0.3919732E-008  0.4614232E+02  0.7816164E-02  0.1320468E+00
        -11   -1    0    0    0    0  0.00000000000E+00  0.00000000000E+00  0.45593999997E+02  0.45594000000E+02  0.51100000000E-03 0.  1.
         11   -1    0    0    0    0 -0.00000000000E+00 -0.00000000000E+00 -0.45593999997E+02  0.45594000000E+02  0.51100000000E-03 0. -1.
    9900012    2    1    2    0    0 -0.82851372651E+01 -0.41147351805E+02 -0.16351314987E+02  0.46142316945E+02  0.99999925598E+01 0.  0.
        -12    1    1    2    0    0  0.82851372651E+01  0.41147351805E+02  0.16351314987E+02  0.45045683055E+02  0.00000000000E+00 0.  1.
         11    1    3    3    0    0 -0.59190286490E+00 -0.11676666931E+01  0.30233127383E+00  0.13435769304E+01  0.51100000000E-03 0.  1.
        -11    1    3    3    0    0  0.89640596295E+00 -0.16040849962E+02 -0.50271951923E+01  0.16834045947E+02  0.51100000000E-03 0. -1.
         12    1    3    3    0    0 -0.85896403631E+01 -0.23938835150E+02 -0.11626451068E+02  0.27964694068E+02  0.00000000000E+00 0. -1.
</event>
<event>
 7    1  0.3919732E-008  0.4614232E+02  0.7816164E-02  0.1320468E+00
        -11   -1    0    0    0    0  0.00000000000E+00  0.00000000000E+00  0.45593999997E+02  0.45594000000E+02  0.51100000000E-03 0. -1.
         11   -1    0    0    0    0 -0.00000000000E+00 -0.00000000000E+00 -0.45593999997E+02  0.45594000000E+02  0.51100000000E-03 0.  1.
    9900012    2    1    2    0    0  0.38389553452E+02  0.22906634259E+02 -0.55355087915E+01  0.46142316912E+02  0.99999922557E+01 0.  0.
        -12    1    1    2    0    0 -0.38389553452E+02 -0.22906634259E+02  0.55355087915E+01  0.45045683088E+02  0.00000000000E+00 0.  1.
         11    1    3    3    0    0  0.11413470760E+02  0.93940127208E+01  0.78675101287E+00  0.14803167472E+02  0.51100000000E-03 0. -1.
        -11    1    3    3    0    0  0.15980667023E+02  0.59476260783E+01 -0.56968046521E+01  0.17978029869E+02  0.51100000000E-03 0.  1.
        -12    1    3    3    0    0  0.10995415668E+02  0.75649954597E+01 -0.62545515230E+00  0.13361119570E+02  0.00000000000E+00 0.  1.
</event>
<event>
 7    1  0.3919732E-008  0.4614232E+02  0.7816164E-02  0.1320468E+00
        -11   -1    0    0    0    0  0.00000000000E+00  0.00000000000E+00  0.45593999997E+02  0.45594000000E+02  0.51100000000E-03 0. -1.
         11   -1    0    0    0    0 -0.00000000000E+00 -0.00000000000E+00 -0.45593999997E+02  0.45594000000E+02  0.51100000000E-03 0.  1.
    9900012    2    1    2    0    0  0.97593628702E+01 -0.42248589455E+02 -0.12203483584E+02  0.46142317786E+02  0.10000000228E+02 0.  0.
        -12    1    1    2    0    0 -0.97593628702E+01  0.42248589455E+02  0.12203483584E+02  0.45045682214E+02  0.00000000000E+00 0.  1.
         11    1    3    3    0    0  0.20765362457E+01 -0.78586144572E+01 -0.61269104863E+00  0.81513934115E+01  0.51100000000E-03 0. -1.
        -11    1    3    3    0    0  0.69879317565E+01 -0.17379776815E+02 -0.31720016654E+01  0.18998669091E+02  0.51100000000E-03 0.  1.
         12    1    3    3    0    0  0.69489486806E+00 -0.17010198182E+02 -0.84187908698E+01  0.18992255284E+02  0.00000000000E+00 0. -1.
</event>
<event>
 7    1  0.3919732E-008  0.4614232E+02  0.7816164E-02  0.1320468E+00
        -11   -1    0    0    0    0  0.00000000000E+00  0.00000000000E+00  0.45593999997E+02  0.45594000000E+02  0.51100000000E-03 0.  1.
         11   -1    0    0    0    0 -0.00000000000E+00 -0.00000000000E+00 -0.45593999997E+02  0.45594000000E+02  0.51100000000E-03 0. -1.
    9900012    2    1    2    0    0 -0.37645632707E+02  0.23746759225E+02 -0.69290166733E+01  0.46142317548E+02  0.99999980530E+01 0.  0.
        -12    1    1    2    0    0  0.37645632707E+02 -0.23746759225E+02  0.69290166733E+01  0.45045682452E+02  0.00000000000E+00 0.  1.
         11    1    3    3    0    0 -0.96449518108E+01  0.72847857126E+01 -0.32633453384E+00  0.12091306497E+02  0.51100000000E-03 0.  1.
        -11    1    3    3    0    0 -0.18086307695E+02  0.12066061411E+02 -0.81258552873E+00  0.21756945087E+02  0.51100000000E-03 0. -1.
        -12    1    3    3    0    0 -0.99143732006E+01  0.43959121011E+01 -0.57900966108E+01  0.12294065964E+02  0.00000000000E+00 0.  1.
</event>
<event>
 7    1  0.3919732E-008  0.4614232E+02  0.7816164E-02  0.1320468E+00
        -11   -1    0    0    0    0  0.00000000000E+00  0.00000000000E+00  0.45593999997E+02  0.45594000000E+02  0.51100000000E-03 0.  1.
         11   -1    0    0    0    0 -0.00000000000E+00 -0.00000000000E+00 -0.45593999997E+02  0.45594000000E+02  0.51100000000E-03 0. -1.
    9900012    2    1    2    0    0  0.76096776219E+01  0.57207061110E+01 -0.44028170269E+02  0.46142318196E+02  0.10000003967E+02 0.  0.
        -12    1    1    2    0    0 -0.76096776219E+01 -0.57207061110E+01  0.44028170269E+02  0.45045681804E+02  0.00000000000E+00 0.  1.
         11    1    3    3    0    0  0.19387891210E+01 -0.76094508468E+00 -0.20049735650E+02  0.20157624875E+02  0.51100000000E-03 0. -1.
        -11    1    3    3    0    0  0.58745577252E+00  0.73447657490E-03 -0.78762348199E+01  0.78981124342E+01  0.51100000000E-03 0.  1.
         12    1    3    3    0    0  0.50834327284E+01  0.64809167191E+01 -0.16102199799E+02  0.18086580887E+02  0.00000000000E+00 0. -1.
</event>
<event>
 7    1  0.3919732E-008  0.4614232E+02  0.7816164E-02  0.1320468E+00
        -11   -1    0    0    0    0  0.00000000000E+00  0.00000000000E+00  0.45593999997E+02  0.45594000000E+02  0.51100000000E-03 0.  1.
         11   -1    0    0    0    0 -0.00000000000E+00 -0.00000000000E+00 -0.45593999997E+02  0.45594000000E+02  0.51100000000E-03 0. -1.
    9900012    2    1    2    0    0  0.13783380690E+02 -0.21669042066E+02 -0.37007898760E+02  0.46142317211E+02  0.99999949853E+01 0.  0.
        -12    1    1    2    0    0 -0.13783380690E+02  0.21669042066E+02  0.37007898760E+02  0.45045682789E+02  0.00000000000E+00 0.  1.
         11    1    3    3    0    0  0.30327106029E+01 -0.35342472668E+01 -0.30477490097E+01  0.55656995635E+01  0.51100000000E-03 0. -1.
        -11    1    3    3    0    0 -0.27774747691E+00 -0.38316194192E+01 -0.88288580542E+01  0.96284570850E+01  0.51100000000E-03 0.  1.
         12    1    3    3    0    0  0.11028417564E+02 -0.14303175380E+02 -0.25131291696E+02  0.30948160563E+02  0.00000000000E+00 0. -1.
</event>
<event>
 7    1  0.3919732E-008  0.4614232E+02  0.7816164E-02  0.1320468E+00
        -11   -1    0    0    0    0  0.00000000000E+00  0.00000000000E+00  0.45593999997E+02  0.45594000000E+02  0.51100000000E-03 0. -1.
         11   -1    0    0    0    0 -0.00000000000E+00 -0.00000000000E+00 -0.45593999997E+02  0.45594000000E+02  0.51100000000E-03 0.  1.
    9900012    2    1    2    0    0  0.22520078338E+02  0.37023981028E+02  0.12295706932E+02  0.46142317538E+02  0.99999979666E+01 0.  0.
        -12    1    1    2    0    0 -0.22520078338E+02 -0.37023981028E+02 -0.12295706932E+02  0.45045682462E+02  0.00000000000E+00 0.  1.
         11    1    3    3    0    0  0.99153817919E+01  0.16043467330E+02  0.43212934788E+01  0.19348933243E+02  0.51100000000E-03 0. -1.
        -11    1    3    3    0    0  0.97242153299E+01  0.96093141495E+01  0.27157863682E+01  0.13938248745E+02  0.51100000000E-03 0.  1.
        -12    1    3    3    0    0  0.28804812158E+01  0.11371199549E+02  0.52586270846E+01  0.12855135551E+02  0.00000000000E+00 0.  1.
</event>
<event>
 7    1  0.3919732E-008  0.4614232E+02  0.7816164E-02  0.1320468E+00
        -11   -1    0    0    0    0  0.00000000000E+00  0.00000000000E+00  0.45593999997E+02  0.45594000000E+02  0.51100000000E-03 0.  1.
         11   -1    0    0    0    0 -0.00000000000E+00 -0.00000000000E+00 -0.45593999997E+02  0.45594000000E+02  0.51100000000E-03 0. -1.
    9900012    2    1    2    0    0  0.13298929076E+02 -0.20095179863E+02 -0.38058320741E+02  0.46142317122E+02  0.99999941730E+01 0.  0.
        -12    1    1    2    0    0 -0.13298929076E+02  0.20095179863E+02  0.38058320741E+02  0.45045682878E+02  0.00000000000E+00 0.  1.
         11    1    3    3    0    0  0.11276812246E+02 -0.16878181889E+02 -0.29798914752E+02  0.36055718533E+02  0.51100000000E-03 0.  1.
        -11    1    3    3    0    0  0.30592964260E+01 -0.34619566667E+01 -0.73707622887E+01  0.86989985379E+01  0.51100000000E-03 0. -1.
         12    1    3    3    0    0 -0.10371795956E+01  0.24495869268E+00 -0.88864370045E+00  0.13876000508E+01  0.00000000000E+00 0. -1.
</event>
<event>
 7    1  0.3919732E-008  0.4614232E+02  0.7816164E-02  0.1320468E+00
        -11   -1    0    0    0    0  0.00000000000E+00  0.00000000000E+00  0.45593999997E+02  0.45594000000E+02  0.51100000000E-03 0. -1.
         11   -1    0    0    0    0 -0.00000000000E+00 -0.00000000000E+00 -0.45593999997E+02  0.45594000000E+02  0.51100000000E-03 0.  1.
    9900012    2    1    2    0    0 -0.43183814093E+02 -0.12614564776E+02 -0.22681464910E+01  0.46142317270E+02  0.99999955236E+01 0.  0.
        -12    1    1    2    0    0  0.43183814093E+02  0.12614564776E+02  0.22681464910E+01  0.45045682730E+02  0.00000000000E+00 0.  1.
         11    1    3    3    0    0 -0.28225774751E+01 -0.17220660936E+01  0.11056075098E+01  0.34863768386E+01  0.51100000000E-03 0. -1.
        -11    1    3    3    0    0 -0.42738043669E+01 -0.22838829236E+01  0.18561708389E+01  0.51891131631E+01  0.51100000000E-03 0.  1.
         12    1    3    3    0    0 -0.36087432251E+02 -0.86086157584E+01 -0.52299248397E+01  0.37466827269E+02  0.00000000000E+00 0. -1.
</event>
<event>
 7    1  0.3919732E-008  0.4614232E+02  0.7816164E-02  0.1320468E+00
        -11   -1    0    0    0    0  0.00000000000E+00  0.00000000000E+00  0.45593999997E+02  0.45594000000E+02  0.51100000000E-03 0.  1.
         11   -1    0    0    0    0 -0.00000000000E+00 -0.00000000000E+00 -0.45593999997E+02  0.45594000000E+02  0.51100000000E-03 0. -1.
    9900012    2    1    2    0    0 -0.33992863201E+02 -0.24740295352E+02 -0.16171473303E+02  0.46142317504E+02  0.99999976558E+01 0.  0.
        -12    1    1    2    0    0  0.33992863201E+02  0.24740295352E+02  0.16171473303E+02  0.45045682496E+02  0.00000000000E+00 0.  1.
         11    1    3    3    0    0 -0.87002799602E+01 -0.32851351708E+01 -0.33926361558E+00  0.93060240994E+01  0.51100000000E-03 0. -1.
        -11    1    3    3    0    0 -0.89552419612E+01 -0.64106378692E+01 -0.60827154636E+01  0.12581417414E+02  0.51100000000E-03 0.  1.
         12    1    3    3    0    0 -0.16337341280E+02 -0.15044522312E+02 -0.97494942241E+01  0.24254875991E+02  0.00000000000E+00 0. -1.
</event>
<event>
 7    1  0.3919732E-008  0.4614232E+02  0.7816164E-02  0.1320468E+00
        -11   -1    0    0    0    0  0.00000000000E+00  0.00000000000E+00  0.45593999997E+02  0.45594000000E+02  0.51100000000E-03 0.  1.
         11   -1    0    0    0    0 -0.00000000000E+00 -0.00000000000E+00 -0.45593999997E+02  0.45594000000E+02  0.51100000000E-03 0. -1.
    9900012    2    1    2    0    0 -0.28190290891E+02 -0.18193648216E+02 -0.30056815199E+02  0.46142317900E+02  0.10000001270E+02 0.  0.
        -12    1    1    2    0    0  0.28190290891E+02  0.18193648216E+02  0.30056815199E+02  0.45045682100E+02  0.00000000000E+00 0.  1.
         11    1    3    3    0    0 -0.19449042505E+02 -0.13294665915E+02 -0.21315403514E+02  0.31770423721E+02  0.51100000000E-03 0. -1.
        -11    1    3    3    0    0 -0.64293872563E+01 -0.48146548146E+01 -0.89777085306E+01  0.12046458907E+02  0.51100000000E-03 0.  1.
        -12    1    3    3    0    0 -0.23118611300E+01 -0.84327485863E-01  0.23629684571E+00  0.23254352729E+01  0.00000000000E+00 0.  1.
</event>
<event>
 7    1  0.3919732E-008  0.4614232E+02  0.7816164E-02  0.1320468E+00
        -11   -1    0    0    0    0  0.00000000000E+00  0.00000000000E+00  0.45593999997E+02  0.45594000000E+02  0.51100000000E-03 0.  1.
         11   -1    0    0    0    0 -0.00000000000E+00 -0.00000000000E+00 -0.45593999997E+02  0.45594000000E+02  0.51100000000E-03 0. -1.
    9900012    2    1    2    0    0  0.35083401931E+02  0.11325036006E+02 -0.25884592766E+02  0.46142315698E+02  0.99999811830E+01 0.  0.
        -12    1    1    2    0    0 -0.35083401931E+02 -0.11325036006E+02  0.25884592766E+02  0.45045684302E+02  0.00000000000E+00 0.  1.
         11    1    3    3    0    0  0.14466950948E+02  0.29049452281E+01 -0.81024482628E+01  0.16833925408E+02  0.51100000000E-03 0. -1.
        -11    1    3    3    0    0  0.20289889459E+02  0.93026111534E+01 -0.16715207521E+02  0.27885773277E+02  0.51100000000E-03 0.  1.
        -12    1    3    3    0    0  0.32656152388E+00 -0.88252037510E+00 -0.10669369817E+01  0.14226170125E+01  0.00000000000E+00 0.  1.
</event>
<event>
 7    1  0.3919732E-008  0.4614232E+02  0.7816164E-02  0.1320468E+00
        -11   -1    0    0    0    0  0.00000000000E+00  0.00000000000E+00  0.45593999997E+02  0.45594000000E+02  0.51100000000E-03 0.  1.
         11   -1    0    0    0    0 -0.00000000000E+00 -0.00000000000E+00 -0.45593999997E+02  0.45594000000E+02  0.51100000000E-03 0. -1.
    9900012    2    1    2    0    0  0.56931861282E+00  0.24312598036E+02 -0.37916842763E+02  0.46142317498E+02  0.99999975994E+01 0.  0.
        -12    1    1    2    0    0 -0.56931861282E+00 -0.24312598036E+02  0.37916842763E+02  0.45045682502E+02  0.00000000000E+00 0.  1.
         11    1    3    3    0    0  0.36174849549E+00  0.76236362681E+01 -0.20901199036E+02  0.22251085666E+02  0.51100000000E-03 0. -1.
        -11    1    3    3    0    0 -0.54000187816E+00  0.24231926388E+01 -0.26762888287E+01  0.36504776056E+01  0.51100000000E-03 0.  1.
         12    1    3    3    0    0  0.74757199548E+00  0.14265769129E+02 -0.14339354899E+02  0.20240754227E+02  0.00000000000E+00 0. -1.
</event>
<event>
 7    1  0.3919732E-008  0.4614232E+02  0.7816164E-02  0.1320468E+00
        -11   -1    0    0    0    0  0.00000000000E+00  0.00000000000E+00  0.45593999997E+02  0.45594000000E+02  0.51100000000E-03 0. -1.
         11   -1    0    0    0    0 -0.00000000000E+00 -0.00000000000E+00 -0.45593999997E+02  0.45594000000E+02  0.51100000000E-03 0.  1.
    9900012    2    1    2    0    0 -0.42208844948E+02  0.51531681427E+01 -0.14865119743E+02  0.46142317424E+02  0.99999969237E+01 0.  0.
        -12    1    1    2    0    0  0.42208844948E+02 -0.51531681427E+01  0.14865119743E+02  0.45045682576E+02  0.00000000000E+00 0.  1.
         11    1    3    3    0    0 -0.14347633683E+02  0.49716611679E+01 -0.50437375042E+01  0.16000352975E+02  0.51100000000E-03 0. -1.
        -11    1    3    3    0    0 -0.21954396078E+01  0.47053807632E+00  0.77219218478E+00  0.23743719557E+01  0.51100000000E-03 0.  1.
        -12    1    3    3    0    0 -0.25665771658E+02 -0.28903110152E+00 -0.10593574424E+02  0.27767592493E+02  0.00000000000E+00 0.  1.
</event>
<event>
 7    1  0.3919732E-008  0.4614233E+02  0.7816164E-02  0.1320468E+00
        -11   -1    0    0    0    0  0.00000000000E+00  0.00000000000E+00  0.45593999997E+02  0.45594000000E+02  0.51100000000E-03 0.  1.
         11   -1    0    0    0    0 -0.00000000000E+00 -0.00000000000E+00 -0.45593999997E+02  0.45594000000E+02  0.51100000000E-03 0. -1.
    9900012    2    1    2    0    0 -0.35284679334E+02  0.21645213965E+01 -0.27918069975E+02  0.46142330067E+02  0.10000112219E+02 0.  0.
        -12    1    1    2    0    0  0.35284679334E+02 -0.21645213965E+01  0.27918069975E+02  0.45045669933E+02  0.00000000000E+00 0.  1.
         11    1    3    3    0    0 -0.25135313998E+02  0.13016322221E+01 -0.17276766625E+02  0.30528100523E+02  0.51100000000E-03 0. -1.
        -11    1    3    3    0    0 -0.40454480102E+01  0.28784236713E+01 -0.40486311476E+01  0.64064332405E+01  0.51100000000E-03 0.  1.
         12    1    3    3    0    0 -0.61039173252E+01 -0.20155344969E+01 -0.65926722019E+01  0.92077963044E+01  0.00000000000E+00 0. -1.
</event>
<event>
 7    1  0.3919732E-008  0.4614232E+02  0.7816164E-02  0.1320468E+00
        -11   -1    0    0    0    0  0.00000000000E+00  0.00000000000E+00  0.45593999997E+02  0.45594000000E+02  0.51100000000E-03 0.  1.
         11   -1    0    0    0    0 -0.00000000000E+00 -0.00000000000E+00 -0.45593999997E+02  0.45594000000E+02  0.51100000000E-03 0. -1.
    9900012    2    1    2    0    0 -0.38467998510E+01  0.19181088825E+01 -0.44840121408E+02  0.46142317647E+02  0.99999989582E+01 0.  0.
        -12    1    1    2    0    0  0.38467998510E+01 -0.19181088825E+01  0.44840121408E+02  0.45045682353E+02  0.00000000000E+00 0.  1.
         11    1    3    3    0    0  0.13799333583E+01  0.83663324543E+00 -0.46425006664E+01  0.49149754790E+01  0.51100000000E-03 0. -1.
        -11    1    3    3    0    0  0.10940502642E+01  0.82655197985E+00 -0.20346548113E+02  0.20392698560E+02  0.51100000000E-03 0.  1.
        -12    1    3    3    0    0 -0.63207834734E+01  0.25492365724E+00 -0.19851072628E+02  0.20834643608E+02  0.00000000000E+00 0.  1.
</event>
<event>
 7    1  0.3919732E-008  0.4614232E+02  0.7816164E-02  0.1320468E+00
        -11   -1    0    0    0    0  0.00000000000E+00  0.00000000000E+00  0.45593999997E+02  0.45594000000E+02  0.51100000000E-03 0. -1.
         11   -1    0    0    0    0 -0.00000000000E+00 -0.00000000000E+00 -0.45593999997E+02  0.45594000000E+02  0.51100000000E-03 0.  1.
    9900012    2    1    2    0    0 -0.16963562076E+02  0.22782810718E+02  0.34961329610E+02  0.46142317958E+02  0.10000001796E+02 0.  0.
        -12    1    1    2    0    0  0.16963562076E+02 -0.22782810718E+02 -0.34961329610E+02  0.45045682042E+02  0.00000000000E+00 0.  1.
         11    1    3    3    0    0 -0.57910321246E+01  0.54284476784E+01  0.83450833494E+01  0.11517139994E+02  0.51100000000E-03 0. -1.
        -11    1    3    3    0    0 -0.37025763338E+01  0.68631402102E+00  0.59766825431E+01  0.70640521604E+01  0.51100000000E-03 0.  1.
        -12    1    3    3    0    0 -0.74699536173E+01  0.16668049018E+02  0.20639563718E+02  0.27561125804E+02  0.00000000000E+00 0.  1.
</event>
<event>
 7    1  0.3919732E-008  0.4614232E+02  0.7816164E-02  0.1320468E+00
        -11   -1    0    0    0    0  0.00000000000E+00  0.00000000000E+00  0.45593999997E+02  0.45594000000E+02  0.51100000000E-03 0.  1.
         11   -1    0    0    0    0 -0.00000000000E+00 -0.00000000000E+00 -0.45593999997E+02  0.45594000000E+02  0.51100000000E-03 0. -1.
    9900012    2    1    2    0    0 -0.26210539942E+02 -0.20000619508E+02 -0.30693586411E+02  0.46142318392E+02  0.10000005752E+02 0.  0.
        -12    1    1    2    0    0  0.26210539942E+02  0.20000619508E+02  0.30693586411E+02  0.45045681608E+02  0.00000000000E+00 0.  1.
         11    1    3    3    0    0 -0.29989491039E+01 -0.31334290093E+00 -0.38368416972E+01  0.48798805284E+01  0.51100000000E-03 0.  1.
        -11    1    3    3    0    0 -0.22943208332E+02 -0.19214074672E+02 -0.24018827591E+02  0.38372849167E+02  0.51100000000E-03 0. -1.
        -12    1    3    3    0    0 -0.26838250665E+00 -0.47320193495E+00 -0.28379171229E+01  0.28895886970E+01  0.00000000000E+00 0.  1.
</event>
<event>
 7    1  0.3919732E-008  0.4614232E+02  0.7816164E-02  0.1320468E+00
        -11   -1    0    0    0    0  0.00000000000E+00  0.00000000000E+00  0.45593999997E+02  0.45594000000E+02  0.51100000000E-03 0.  1.
         11   -1    0    0    0    0 -0.00000000000E+00 -0.00000000000E+00 -0.45593999997E+02  0.45594000000E+02  0.51100000000E-03 0. -1.
    9900012    2    1    2    0    0 -0.24039043185E+02  0.10448380593E+02 -0.36634262461E+02  0.46142318295E+02  0.10000004865E+02 0.  0.
        -12    1    1    2    0    0  0.24039043185E+02 -0.10448380593E+02  0.36634262461E+02  0.45045681705E+02  0.00000000000E+00 0.  1.
         11    1    3    3    0    0 -0.13970065825E+02  0.70851408653E+01 -0.20882719770E+02  0.26104596252E+02  0.51100000000E-03 0. -1.
        -11    1    3    3    0    0 -0.47158473734E+01 -0.15879049431E+01 -0.50637235287E+01  0.70994334135E+01  0.51100000000E-03 0.  1.
        -12    1    3    3    0    0 -0.53531299862E+01  0.49511446704E+01 -0.10687819162E+02  0.12938288629E+02  0.00000000000E+00 0.  1.
</event>
<event>
 7    1  0.3919732E-008  0.4614231E+02  0.7816164E-02  0.1320468E+00
        -11   -1    0    0    0    0  0.00000000000E+00  0.00000000000E+00  0.45593999997E+02  0.45594000000E+02  0.51100000000E-03 0. -1.
         11   -1    0    0    0    0 -0.00000000000E+00 -0.00000000000E+00 -0.45593999997E+02  0.45594000000E+02  0.51100000000E-03 0.  1.
    9900012    2    1    2    0    0 -0.64086871615E+01 -0.20732502526E+02  0.39474116741E+02  0.46142314029E+02  0.99999659664E+01 0.  0.
        -12    1    1    2    0    0  0.64086871615E+01  0.20732502526E+02 -0.39474116741E+02  0.45045685971E+02  0.00000000000E+00 0.  1.
         11    1    3    3    0    0 -0.10279788996E+01 -0.10448750247E+02  0.19543225241E+02  0.22184922254E+02  0.51100000000E-03 0. -1.
        -11    1    3    3    0    0  0.83249808691E+00 -0.47560469928E+01  0.56548919187E+01  0.74357809904E+01  0.51100000000E-03 0.  1.
         12    1    3    3    0    0 -0.62132063488E+01 -0.55277052861E+01  0.14275999581E+02  0.16521610784E+02  0.00000000000E+00 0. -1.
</event>
<event>
 7    1  0.3919732E-008  0.4614232E+02  0.7816164E-02  0.1320468E+00
        -11   -1    0    0    0    0  0.00000000000E+00  0.00000000000E+00  0.45593999997E+02  0.45594000000E+02  0.51100000000E-03 0.  1.
         11   -1    0    0    0    0 -0.00000000000E+00 -0.00000000000E+00 -0.45593999997E+02  0.45594000000E+02  0.51100000000E-03 0. -1.
    9900012    2    1    2    0    0 -0.36884297101E+02  0.25409195159E+02 -0.47994647002E+01  0.46142318380E+02  0.10000005641E+02 0.  0.
        -12    1    1    2    0    0  0.36884297101E+02 -0.25409195159E+02  0.47994647002E+01  0.45045681620E+02  0.00000000000E+00 0.  1.
         11    1    3    3    0    0 -0.24242917611E+02  0.18238079339E+02 -0.57133199151E+01  0.30870513715E+02  0.51100000000E-03 0. -1.
        -11    1    3    3    0    0 -0.87624583088E+01  0.25558773979E+01 -0.25304050340E+00  0.91311124538E+01  0.51100000000E-03 0.  1.
        -12    1    3    3    0    0 -0.38789211804E+01  0.46152384221E+01  0.11668957183E+01  0.61406922113E+01  0.00000000000E+00 0.  1.
</event>
<event>
 7    1  0.3919732E-008  0.4614232E+02  0.7816164E-02  0.1320468E+00
        -11   -1    0    0    0    0  0.00000000000E+00  0.00000000000E+00  0.45593999997E+02  0.45594000000E+02  0.51100000000E-03 0. -1.
         11   -1    0    0    0    0 -0.00000000000E+00 -0.00000000000E+00 -0.45593999997E+02  0.45594000000E+02  0.51100000000E-03 0.  1.
    9900012    2    1    2    0    0 -0.42208181074E+02 -0.15402116900E+02 -0.32183386133E+01  0.46142318098E+02  0.10000003074E+02 0.  0.
        -12    1    1    2    0    0  0.42208181074E+02  0.15402116900E+02  0.32183386133E+01  0.45045681902E+02  0.00000000000E+00 0.  1.
         11    1    3    3    0    0 -0.17098174481E+02 -0.48943694969E+01  0.12545822773E+01  0.17829088600E+02  0.51100000000E-03 0. -1.
        -11    1    3    3    0    0 -0.49524537716E+01 -0.47949265625E+01 -0.17871079459E-01  0.68933619328E+01  0.51100000000E-03 0.  1.
        -12    1    3    3    0    0 -0.20157552822E+02 -0.57128208403E+01 -0.44550498111E+01  0.21419867566E+02  0.00000000000E+00 0.  1.
</event>
<event>
 7    1  0.3919732E-008  0.4614232E+02  0.7816164E-02  0.1320468E+00
        -11   -1    0    0    0    0  0.00000000000E+00  0.00000000000E+00  0.45593999997E+02  0.45594000000E+02  0.51100000000E-03 0. -1.
         11   -1    0    0    0    0 -0.00000000000E+00 -0.00000000000E+00 -0.45593999997E+02  0.45594000000E+02  0.51100000000E-03 0.  1.
    9900012    2    1    2    0    0  0.13482655838E+02  0.24172771448E+02  0.35538832568E+02  0.46142317540E+02  0.99999979872E+01 0.  0.
        -12    1    1    2    0    0 -0.13482655838E+02 -0.24172771448E+02 -0.35538832568E+02  0.45045682460E+02  0.00000000000E+00 0.  1.
         11    1    3    3    0    0  0.72403112039E+01  0.75053830725E+01  0.14320602825E+02  0.17715319555E+02  0.51100000000E-03 0. -1.
        -11    1    3    3    0    0  0.51578205158E+01  0.54123595445E+01  0.10130852448E+02  0.12590906238E+02  0.51100000000E-03 0.  1.
         12    1    3    3    0    0  0.10845241188E+01  0.11255028831E+02  0.11087377296E+02  0.15836091748E+02  0.00000000000E+00 0. -1.
</event>
<event>
 7    1  0.3919732E-008  0.4614232E+02  0.7816164E-02  0.1320468E+00
        -11   -1    0    0    0    0  0.00000000000E+00  0.00000000000E+00  0.45593999997E+02  0.45594000000E+02  0.51100000000E-03 0. -1.
         11   -1    0    0    0    0 -0.00000000000E+00 -0.00000000000E+00 -0.45593999997E+02  0.45594000000E+02  0.51100000000E-03 0.  1.
    9900012    2    1    2    0    0  0.15989309053E+02 -0.20838585236E+02  0.36595202214E+02  0.46142318034E+02  0.10000002490E+02 0.  0.
        -12    1    1    2    0    0 -0.15989309053E+02  0.20838585236E+02 -0.36595202214E+02  0.45045681966E+02  0.00000000000E+00 0.  1.
         11    1    3    3    0    0  0.12560083932E+01 -0.35530064627E+01  0.86145533044E+01  0.94027624081E+01  0.51100000000E-03 0. -1.
        -11    1    3    3    0    0  0.36185338232E+01 -0.15603521529E+01  0.20538365337E+01  0.44437293616E+01  0.51100000000E-03 0.  1.
         12    1    3    3    0    0  0.11114766837E+02 -0.15725226621E+02  0.25926812376E+02  0.32295826265E+02  0.00000000000E+00 0. -1.
</event>
<event>
 7    1  0.3919732E-008  0.4614232E+02  0.7816164E-02  0.1320468E+00
        -11   -1    0    0    0    0  0.00000000000E+00  0.00000000000E+00  0.45593999997E+02  0.45594000000E+02  0.51100000000E-03 0. -1.
         11   -1    0    0    0    0 -0.00000000000E+00 -0.00000000000E+00 -0.45593999997E+02  0.45594000000E+02  0.51100000000E-03 0.  1.
    9900012    2    1    2    0    0 -0.32704673421E+01 -0.28440906515E+02  0.34778332158E+02  0.46142317546E+02  0.99999980430E+01 0.  0.
        -12    1    1    2    0    0  0.32704673421E+01  0.28440906515E+02 -0.34778332158E+02  0.45045682454E+02  0.00000000000E+00 0.  1.
         11    1    3    3    0    0  0.25036956659E+00 -0.43751295985E+01  0.31945303163E+01  0.54230497071E+01  0.51100000000E-03 0. -1.
        -11    1    3    3    0    0  0.24742849721E+01 -0.36812042537E+01  0.60330344191E+01  0.74880475054E+01  0.51100000000E-03 0.  1.
        -12    1    3    3    0    0 -0.59951218808E+01 -0.20384572663E+02  0.25550767422E+02  0.33231220334E+02  0.00000000000E+00 0.  1.
</event>
<event>
 7    1  0.3919732E-008  0.4614232E+02  0.7816164E-02  0.1320468E+00
        -11   -1    0    0    0    0  0.00000000000E+00  0.00000000000E+00  0.45593999997E+02  0.45594000000E+02  0.51100000000E-03 0. -1.
         11   -1    0    0    0    0 -0.00000000000E+00 -0.00000000000E+00 -0.45593999997E+02  0.45594000000E+02  0.51100000000E-03 0.  1.
    9900012    2    1    2    0    0  0.39212486721E+02 -0.16838955592E+02  0.14420265241E+02  0.46142316634E+02  0.99999897231E+01 0.  0.
        -12    1    1    2    0    0 -0.39212486721E+02  0.16838955592E+02 -0.14420265241E+02  0.45045683366E+02  0.00000000000E+00 0.  1.
         11    1    3    3    0    0  0.72548020811E+01 -0.34201033556E+01  0.51647260646E+01  0.95395836273E+01  0.51100000000E-03 0. -1.
        -11    1    3    3    0    0  0.11629616400E+02 -0.84011987091E+01  0.22401653262E+01  0.14520552962E+02  0.51100000000E-03 0.  1.
        -12    1    3    3    0    0  0.20328068240E+02 -0.50176535271E+01  0.70153738503E+01  0.22082180045E+02  0.00000000000E+00 0.  1.
</event>
<event>
 7    1  0.3919732E-008  0.4614231E+02  0.7816164E-02  0.1320468E+00
        -11   -1    0    0    0    0  0.00000000000E+00  0.00000000000E+00  0.45593999997E+02  0.45594000000E+02  0.51100000000E-03 0.  1.
         11   -1    0    0    0    0 -0.00000000000E+00 -0.00000000000E+00 -0.45593999997E+02  0.45594000000E+02  0.51100000000E-03 0. -1.
    9900012    2    1    2    0    0 -0.14091363425E+01  0.38166523096E+02 -0.23883985842E+02  0.46142312858E+02  0.99999552876E+01 0.  0.
        -12    1    1    2    0    0  0.14091363425E+01 -0.38166523096E+02  0.23883985842E+02  0.45045687142E+02  0.00000000000E+00 0.  1.
         11    1    3    3    0    0  0.19457313014E+01  0.14107552624E+02 -0.65724584384E+01  0.15684582287E+02  0.51100000000E-03 0.  1.
        -11    1    3    3    0    0  0.16108861847E+00  0.14434199459E+02 -0.74837413202E+01  0.16259718570E+02  0.51100000000E-03 0. -1.
        -12    1    3    3    0    0 -0.35159562624E+01  0.96247710129E+01 -0.98277860829E+01  0.14198012001E+02  0.00000000000E+00 0.  1.
</event>
<event>
 7    1  0.3919732E-008  0.4614232E+02  0.7816164E-02  0.1320468E+00
        -11   -1    0    0    0    0  0.00000000000E+00  0.00000000000E+00  0.45593999997E+02  0.45594000000E+02  0.51100000000E-03 0.  1.
         11   -1    0    0    0    0 -0.00000000000E+00 -0.00000000000E+00 -0.45593999997E+02  0.45594000000E+02  0.51100000000E-03 0. -1.
    9900012    2    1    2    0    0 -0.29921851456E+02  0.97131900242E+01 -0.32240506224E+02  0.46142317670E+02  0.99999991733E+01 0.  0.
        -12    1    1    2    0    0  0.29921851456E+02 -0.97131900242E+01  0.32240506224E+02  0.45045682330E+02  0.00000000000E+00 0.  1.
         11    1    3    3    0    0 -0.48527469717E+01  0.52653664123E+00 -0.59433312138E+01  0.76908764249E+01  0.51100000000E-03 0. -1.
        -11    1    3    3    0    0  0.48141534325E+00  0.55161093333E+00 -0.20766481657E+01  0.22019317019E+01  0.51100000000E-03 0.  1.
        -12    1    3    3    0    0 -0.25550519827E+02  0.86350424496E+01 -0.24220526844E+02  0.36249509544E+02  0.00000000000E+00 0.  1.
</event>
<event>
 7    1  0.3919732E-008  0.4614232E+02  0.7816164E-02  0.1320468E+00
        -11   -1    0    0    0    0  0.00000000000E+00  0.00000000000E+00  0.45593999997E+02  0.45594000000E+02  0.51100000000E-03 0.  1.
         11   -1    0    0    0    0 -0.00000000000E+00 -0.00000000000E+00 -0.45593999997E+02  0.45594000000E+02  0.51100000000E-03 0. -1.
    9900012    2    1    2    0    0 -0.53132835461E+01  0.20766507840E+02 -0.39618617558E+02  0.46142315556E+02  0.99999798885E+01 0.  0.
        -12    1    1    2    0    0  0.53132835461E+01 -0.20766507840E+02  0.39618617558E+02  0.45045684444E+02  0.00000000000E+00 0.  1.
         11    1    3    3    0    0 -0.38559123542E+01  0.29531257067E+01 -0.76716988300E+01  0.90798664485E+01  0.51100000000E-03 0. -1.
        -11    1    3    3    0    0  0.19882603083E+01  0.10720190534E+02 -0.18521543238E+02  0.21492399315E+02  0.51100000000E-03 0.  1.
        -12    1    3    3    0    0 -0.34456315001E+01  0.70931915994E+01 -0.13425375490E+02  0.15570049792E+02  0.00000000000E+00 0.  1.
</event>
<event>
 7    1  0.3919732E-008  0.4614232E+02  0.7816164E-02  0.1320468E+00
        -11   -1    0    0    0    0  0.00000000000E+00  0.00000000000E+00  0.45593999997E+02  0.45594000000E+02  0.51100000000E-03 0. -1.
         11   -1    0    0    0    0 -0.00000000000E+00 -0.00000000000E+00 -0.45593999997E+02  0.45594000000E+02  0.51100000000E-03 0.  1.
    9900012    2    1    2    0    0 -0.23314436403E+02  0.38411038949E+02  0.31847400288E+01  0.46142318443E+02  0.10000006214E+02 0.  0.
        -12    1    1    2    0    0  0.23314436403E+02 -0.38411038949E+02 -0.31847400288E+01  0.45045681557E+02  0.00000000000E+00 0.  1.
         11    1    3    3    0    0 -0.23711791424E+01  0.12517898375E+01 -0.56850879417E+00  0.27409251783E+01  0.51100000000E-03 0. -1.
        -11    1    3    3    0    0 -0.14901861542E+01  0.77866343411E+01  0.17207150484E+01  0.81125328767E+01  0.51100000000E-03 0.  1.
         12    1    3    3    0    0 -0.19453071107E+02  0.29372614770E+02  0.20325337746E+01  0.35288860388E+02  0.00000000000E+00 0. -1.
</event>
<event>
 7    1  0.3919732E-008  0.4614232E+02  0.7816164E-02  0.1320468E+00
        -11   -1    0    0    0    0  0.00000000000E+00  0.00000000000E+00  0.45593999997E+02  0.45594000000E+02  0.51100000000E-03 0.  1.
         11   -1    0    0    0    0 -0.00000000000E+00 -0.00000000000E+00 -0.45593999997E+02  0.45594000000E+02  0.51100000000E-03 0. -1.
    9900012    2    1    2    0    0  0.26600755909E+02 -0.15317749374E+02 -0.32967862038E+02  0.46142316653E+02  0.99999898989E+01 0.  0.
        -12    1    1    2    0    0 -0.26600755909E+02  0.15317749374E+02  0.32967862038E+02  0.45045683347E+02  0.00000000000E+00 0.  1.
         11    1    3    3    0    0  0.13730126862E+02 -0.65115860927E+01 -0.22142907047E+02  0.26855641304E+02  0.51100000000E-03 0. -1.
        -11    1    3    3    0    0  0.41817005465E+01 -0.10501390694E+01 -0.31116284571E+01  0.53171085603E+01  0.51100000000E-03 0.  1.
         12    1    3    3    0    0  0.86889284999E+01 -0.77560242123E+01 -0.77133265340E+01  0.13969566789E+02  0.00000000000E+00 0. -1.
</event>
<event>
 7    1  0.3919732E-008  0.4614232E+02  0.7816164E-02  0.1320468E+00
        -11   -1    0    0    0    0  0.00000000000E+00  0.00000000000E+00  0.45593999997E+02  0.45594000000E+02  0.51100000000E-03 0.  1.
         11   -1    0    0    0    0 -0.00000000000E+00 -0.00000000000E+00 -0.45593999997E+02  0.45594000000E+02  0.51100000000E-03 0. -1.
    9900012    2    1    2    0    0  0.14876981946E+02 -0.35772882495E+02 -0.22980206109E+02  0.46142316670E+02  0.99999900532E+01 0.  0.
        -12    1    1    2    0    0 -0.14876981946E+02  0.35772882495E+02  0.22980206109E+02  0.45045683330E+02  0.00000000000E+00 0.  1.
         11    1    3    3    0    0  0.19975209656E-01 -0.37285454127E+01 -0.13865061210E+01  0.39780459259E+01  0.51100000000E-03 0. -1.
        -11    1    3    3    0    0  0.98377085762E+01 -0.11836538291E+02 -0.89433603769E+01  0.17800782113E+02  0.51100000000E-03 0.  1.
         12    1    3    3    0    0  0.50192981599E+01 -0.20207798792E+02 -0.12650339611E+02  0.24363488631E+02  0.00000000000E+00 0. -1.
</event>
<event>
 7    1  0.3919732E-008  0.4614232E+02  0.7816164E-02  0.1320468E+00
        -11   -1    0    0    0    0  0.00000000000E+00  0.00000000000E+00  0.45593999997E+02  0.45594000000E+02  0.51100000000E-03 0.  1.
         11   -1    0    0    0    0 -0.00000000000E+00 -0.00000000000E+00 -0.45593999997E+02  0.45594000000E+02  0.51100000000E-03 0. -1.
    9900012    2    1    2    0    0 -0.20472528161E+01 -0.29284658343E+01 -0.44903745296E+02  0.46142317656E+02  0.99999990412E+01 0.  0.
        -12    1    1    2    0    0  0.20472528161E+01  0.29284658343E+01  0.44903745296E+02  0.45045682344E+02  0.00000000000E+00 0.  1.
         11    1    3    3    0    0 -0.27009321649E+01 -0.11364340149E+01 -0.20830803695E+02  0.21035895504E+02  0.51100000000E-03 0.  1.
        -11    1    3    3    0    0 -0.12204860521E+01 -0.37192018296E+01 -0.18618399436E+02  0.19025426310E+02  0.51100000000E-03 0. -1.
        -12    1    3    3    0    0  0.18741654009E+01  0.19271700102E+01 -0.54545421655E+01  0.60809958423E+01  0.00000000000E+00 0.  1.
</event>
<event>
 7    1  0.3919732E-008  0.4614232E+02  0.7816164E-02  0.1320468E+00
        -11   -1    0    0    0    0  0.00000000000E+00  0.00000000000E+00  0.45593999997E+02  0.45594000000E+02  0.51100000000E-03 0.  1.
         11   -1    0    0    0    0 -0.00000000000E+00 -0.00000000000E+00 -0.45593999997E+02  0.45594000000E+02  0.51100000000E-03 0. -1.
    9900012    2    1    2    0    0 -0.12927686807E+02  0.37291808190E+02 -0.21709659098E+02  0.46142319382E+02  0.10000014777E+02 0.  0.
        -12    1    1    2    0    0  0.12927686807E+02 -0.37291808190E+02  0.21709659098E+02  0.45045680618E+02  0.00000000000E+00 0.  1.
         11    1    3    3    0    0 -0.46878298364E+01  0.88526663479E+01 -0.32013636676E+01  0.10516376735E+02  0.51100000000E-03 0. -1.
        -11    1    3    3    0    0  0.79124349603E+00  0.74519049326E+01 -0.58429107650E+01  0.95024502031E+01  0.51100000000E-03 0.  1.
         12    1    3    3    0    0 -0.90311004663E+01  0.20987236909E+02 -0.12665384665E+02  0.26123492443E+02  0.00000000000E+00 0. -1.
</event>
<event>
 7    1  0.3919732E-008  0.4614232E+02  0.7816164E-02  0.1320468E+00
        -11   -1    0    0    0    0  0.00000000000E+00  0.00000000000E+00  0.45593999997E+02  0.45594000000E+02  0.51100000000E-03 0.  1.
         11   -1    0    0    0    0 -0.00000000000E+00 -0.00000000000E+00 -0.45593999997E+02  0.45594000000E+02  0.51100000000E-03 0. -1.
    9900012    2    1    2    0    0  0.35463033434E+02  0.27480882814E+02 -0.40358241590E+01  0.46142317218E+02  0.99999950511E+01 0.  0.
        -12    1    1    2    0    0 -0.35463033434E+02 -0.27480882814E+02  0.40358241590E+01  0.45045682782E+02  0.00000000000E+00 0.  1.
         11    1    3    3    0    0  0.37941534934E+01  0.35278799479E+01 -0.89002005063E+00  0.52567740688E+01  0.51100000000E-03 0. -1.
        -11    1    3    3    0    0  0.23518650887E+02  0.12777732775E+02 -0.31611112204E+00  0.26767467585E+02  0.51100000000E-03 0.  1.
        -12    1    3    3    0    0  0.81502290538E+01  0.11175270092E+02 -0.28296929863E+01  0.14118075565E+02  0.00000000000E+00 0.  1.
</event>
<event>
 7    1  0.3919732E-008  0.4614232E+02  0.7816164E-02  0.1320468E+00
        -11   -1    0    0    0    0  0.00000000000E+00  0.00000000000E+00  0.45593999997E+02  0.45594000000E+02  0.51100000000E-03 0.  1.
         11   -1    0    0    0    0 -0.00000000000E+00 -0.00000000000E+00 -0.45593999997E+02  0.45594000000E+02  0.51100000000E-03 0. -1.
    9900012    2    1    2    0    0  0.30382750858E+02  0.30422401563E+02 -0.13434261855E+02  0.46142318097E+02  0.10000003059E+02 0.  0.
        -12    1    1    2    0    0 -0.30382750858E+02 -0.30422401563E+02  0.13434261855E+02  0.45045681903E+02  0.00000000000E+00 0.  1.
         11    1    3    3    0    0  0.91360894297E+01  0.74759330362E+01 -0.45004012666E+01  0.12633737240E+02  0.51100000000E-03 0. -1.
        -11    1    3    3    0    0  0.17897081723E+02  0.16458161085E+02 -0.38641314432E+01  0.24619263039E+02  0.51100000000E-03 0.  1.
        -12    1    3    3    0    0  0.33495797052E+01  0.64883074423E+01 -0.50697291447E+01  0.88893178180E+01  0.00000000000E+00 0.  1.
</event>
<event>
 7    1  0.3919732E-008  0.4614232E+02  0.7816164E-02  0.1320468E+00
        -11   -1    0    0    0    0  0.00000000000E+00  0.00000000000E+00  0.45593999997E+02  0.45594000000E+02  0.51100000000E-03 0.  1.
         11   -1    0    0    0    0 -0.00000000000E+00 -0.00000000000E+00 -0.45593999997E+02  0.45594000000E+02  0.51100000000E-03 0. -1.
    9900012    2    1    2    0    0  0.94109499285E+01  0.59384210098E+01 -0.43649543603E+02  0.46142317861E+02  0.10000000911E+02 0.  0.
        -12    1    1    2    0    0 -0.94109499285E+01 -0.59384210098E+01  0.43649543603E+02  0.45045682139E+02  0.00000000000E+00 0.  1.
         11    1    3    3    0    0  0.24253443384E+01  0.51827745671E+01 -0.31281172949E+02  0.31800239444E+02  0.51100000000E-03 0. -1.
        -11    1    3    3    0    0  0.19542133128E+01  0.10339899103E+01 -0.34192832150E+01  0.40718033808E+01  0.51100000000E-03 0.  1.
         12    1    3    3    0    0  0.50313922773E+01 -0.27834346757E+00 -0.89490874391E+01  0.10270275037E+02  0.00000000000E+00 0. -1.
</event>
<event>
 7    1  0.3919732E-008  0.4614232E+02  0.7816164E-02  0.1320468E+00
        -11   -1    0    0    0    0  0.00000000000E+00  0.00000000000E+00  0.45593999997E+02  0.45594000000E+02  0.51100000000E-03 0. -1.
         11   -1    0    0    0    0 -0.00000000000E+00 -0.00000000000E+00 -0.45593999997E+02  0.45594000000E+02  0.51100000000E-03 0.  1.
    9900012    2    1    2    0    0  0.22761878546E+02 -0.15598591580E+02  0.35604695738E+02  0.46142317267E+02  0.99999954972E+01 0.  0.
        -12    1    1    2    0    0 -0.22761878546E+02  0.15598591580E+02 -0.35604695738E+02  0.45045682733E+02  0.00000000000E+00 0.  1.
         11    1    3    3    0    0  0.33713891913E+01 -0.34375327847E+00  0.34277693906E+01  0.48201695667E+01  0.51100000000E-03 0. -1.
        -11    1    3    3    0    0  0.19491648932E+01 -0.56961507918E+01  0.81170187140E+01  0.10106006664E+02  0.51100000000E-03 0.  1.
         12    1    3    3    0    0  0.17441324462E+02 -0.95586875102E+01  0.24059907634E+02  0.31216141037E+02  0.00000000000E+00 0. -1.
</event>
<event>
 7    1  0.3919732E-008  0.4614231E+02  0.7816164E-02  0.1320468E+00
        -11   -1    0    0    0    0  0.00000000000E+00  0.00000000000E+00  0.45593999997E+02  0.45594000000E+02  0.51100000000E-03 0. -1.
         11   -1    0    0    0    0 -0.00000000000E+00 -0.00000000000E+00 -0.45593999997E+02  0.45594000000E+02  0.51100000000E-03 0.  1.
    9900012    2    1    2    0    0  0.32129852624E+01  0.43620222435E+02 -0.10773435772E+02  0.46142312105E+02  0.99999484248E+01 0.  0.
        -12    1    1    2    0    0 -0.32129852624E+01 -0.43620222435E+02  0.10773435772E+02  0.45045687895E+02  0.00000000000E+00 0.  1.
         11    1    3    3    0    0  0.14683969484E+01  0.97342478408E+01 -0.35841415476E+01  0.10476537668E+02  0.51100000000E-03 0. -1.
        -11    1    3    3    0    0  0.18274598844E+01  0.13556024044E+02  0.10734228545E+01  0.13720700944E+02  0.51100000000E-03 0.  1.
        -12    1    3    3    0    0 -0.82871570494E-01  0.20329950551E+02 -0.82627170790E+01  0.21945073493E+02  0.00000000000E+00 0.  1.
</event>
<event>
 7    1  0.3919732E-008  0.4614232E+02  0.7816164E-02  0.1320468E+00
        -11   -1    0    0    0    0  0.00000000000E+00  0.00000000000E+00  0.45593999997E+02  0.45594000000E+02  0.51100000000E-03 0.  1.
         11   -1    0    0    0    0 -0.00000000000E+00 -0.00000000000E+00 -0.45593999997E+02  0.45594000000E+02  0.51100000000E-03 0. -1.
    9900012    2    1    2    0    0  0.13378524894E+02 -0.18727874198E+02 -0.38722021803E+02  0.46142321263E+02  0.10000031936E+02 0.  0.
        -12    1    1    2    0    0 -0.13378524894E+02  0.18727874198E+02  0.38722021803E+02  0.45045678737E+02  0.00000000000E+00 0.  1.
         11    1    3    3    0    0  0.88262530971E+01 -0.11540574897E+02 -0.26738326250E+02  0.30430670443E+02  0.51100000000E-03 0. -1.
        -11    1    3    3    0    0  0.56931453898E+01 -0.63835303935E+01 -0.89915523457E+01  0.12410051513E+02  0.51100000000E-03 0.  1.
         12    1    3    3    0    0 -0.11408735926E+01 -0.80376890695E+00 -0.29921432073E+01  0.33015993069E+01  0.00000000000E+00 0. -1.
</event>
<event>
 7    1  0.3919732E-008  0.4614232E+02  0.7816164E-02  0.1320468E+00
        -11   -1    0    0    0    0  0.00000000000E+00  0.00000000000E+00  0.45593999997E+02  0.45594000000E+02  0.51100000000E-03 0. -1.
         11   -1    0    0    0    0 -0.00000000000E+00 -0.00000000000E+00 -0.45593999997E+02  0.45594000000E+02  0.51100000000E-03 0.  1.
    9900012    2    1    2    0    0 -0.38452990392E+02  0.14581481805E+02  0.18381006405E+02  0.46142317874E+02  0.10000001032E+02 0.  0.
        -12    1    1    2    0    0  0.38452990392E+02 -0.14581481805E+02 -0.18381006405E+02  0.45045682126E+02  0.00000000000E+00 0.  1.
         11    1    3    3    0    0 -0.19442133919E+02  0.31766265427E+01  0.11424960178E+02  0.22773169364E+02  0.51100000000E-03 0. -1.
        -11    1    3    3    0    0 -0.17428652859E+01  0.17870520021E+01  0.12759358398E+01  0.28034169850E+01  0.51100000000E-03 0.  1.
         12    1    3    3    0    0 -0.17267991187E+02  0.96178032602E+01  0.56801103866E+01  0.20565731525E+02  0.00000000000E+00 0. -1.
</event>
<event>
 7    1  0.3919732E-008  0.4614232E+02  0.7816164E-02  0.1320468E+00
        -11   -1    0    0    0    0  0.00000000000E+00  0.00000000000E+00  0.45593999997E+02  0.45594000000E+02  0.51100000000E-03 0.  1.
         11   -1    0    0    0    0 -0.00000000000E+00 -0.00000000000E+00 -0.45593999997E+02  0.45594000000E+02  0.51100000000E-03 0. -1.
    9900012    2    1    2    0    0  0.12797377322E+02  0.38271408788E+02 -0.20015993868E+02  0.46142316440E+02  0.99999879497E+01 0.  0.
        -12    1    1    2    0    0 -0.12797377322E+02 -0.38271408788E+02  0.20015993868E+02  0.45045683560E+02  0.00000000000E+00 0.  1.
         11    1    3    3    0    0  0.90831322196E+01  0.29823554577E+02 -0.17166409641E+02  0.35589792339E+02  0.51100000000E-03 0. -1.
        -11    1    3    3    0    0  0.31209288971E+01  0.60177847103E+01 -0.39210503639E+01  0.78312557242E+01  0.51100000000E-03 0.  1.
        -12    1    3    3    0    0  0.59331620483E+00  0.24300694999E+01  0.10714661364E+01  0.27212683761E+01  0.00000000000E+00 0.  1.
</event>
<event>
 7    1  0.3919732E-008  0.4614232E+02  0.7816164E-02  0.1320468E+00
        -11   -1    0    0    0    0  0.00000000000E+00  0.00000000000E+00  0.45593999997E+02  0.45594000000E+02  0.51100000000E-03 0.  1.
         11   -1    0    0    0    0 -0.00000000000E+00 -0.00000000000E+00 -0.45593999997E+02  0.45594000000E+02  0.51100000000E-03 0. -1.
    9900012    2    1    2    0    0 -0.77027202731E+01 -0.15967138570E+02 -0.41410531551E+02  0.46142317221E+02  0.99999950773E+01 0.  0.
        -12    1    1    2    0    0  0.77027202731E+01  0.15967138570E+02  0.41410531551E+02  0.45045682779E+02  0.00000000000E+00 0.  1.
         11    1    3    3    0    0  0.56219352202E+00 -0.10311252046E+01 -0.12432265347E+01  0.17102319204E+01  0.51100000000E-03 0.  1.
        -11    1    3    3    0    0 -0.11074683657E+01 -0.10359432344E+02 -0.20073219688E+02  0.22615889847E+02  0.51100000000E-03 0. -1.
         12    1    3    3    0    0 -0.71574454295E+01 -0.45765810208E+01 -0.20094085328E+02  0.21816195454E+02  0.00000000000E+00 0. -1.
</event>
<event>
 7    1  0.3919732E-008  0.4614232E+02  0.7816164E-02  0.1320468E+00
        -11   -1    0    0    0    0  0.00000000000E+00  0.00000000000E+00  0.45593999997E+02  0.45594000000E+02  0.51100000000E-03 0.  1.
         11   -1    0    0    0    0 -0.00000000000E+00 -0.00000000000E+00 -0.45593999997E+02  0.45594000000E+02  0.51100000000E-03 0. -1.
    9900012    2    1    2    0    0 -0.31487431012E+02  0.32117425295E+02  0.24750909165E+01  0.46142318804E+02  0.10000009513E+02 0.  0.
        -12    1    1    2    0    0  0.31487431012E+02 -0.32117425295E+02 -0.24750909165E+01  0.45045681196E+02  0.00000000000E+00 0.  1.
         11    1    3    3    0    0 -0.17580759110E+01 -0.22375639095E+00 -0.54343814888E+00  0.18537052393E+01  0.51100000000E-03 0.  1.
        -11    1    3    3    0    0 -0.24530338506E+02  0.23916514132E+02  0.17066220544E+01  0.34302328122E+02  0.51100000000E-03 0. -1.
        -12    1    3    3    0    0 -0.51990165945E+01  0.84246675544E+01  0.13119070110E+01  0.99862854434E+01  0.00000000000E+00 0.  1.
</event>
<event>
 7    1  0.3919732E-008  0.4614232E+02  0.7816164E-02  0.1320468E+00
        -11   -1    0    0    0    0  0.00000000000E+00  0.00000000000E+00  0.45593999997E+02  0.45594000000E+02  0.51100000000E-03 0.  1.
         11   -1    0    0    0    0 -0.00000000000E+00 -0.00000000000E+00 -0.45593999997E+02  0.45594000000E+02  0.51100000000E-03 0. -1.
    9900012    2    1    2    0    0  0.15527555544E+02  0.17616332513E+02 -0.38440516975E+02  0.46142317658E+02  0.99999990604E+01 0.  0.
        -12    1    1    2    0    0 -0.15527555544E+02 -0.17616332513E+02  0.38440516975E+02  0.45045682342E+02  0.00000000000E+00 0.  1.
         11    1    3    3    0    0  0.53541655448E+01  0.68195527337E+01 -0.13221437623E+02  0.15810749547E+02  0.51100000000E-03 0. -1.
        -11    1    3    3    0    0  0.10671270727E+02  0.85152839381E+01 -0.24196477088E+02  0.27782289020E+02  0.51100000000E-03 0.  1.
        -12    1    3    3    0    0 -0.49788072832E+00  0.22814958411E+01 -0.10226022644E+01  0.25492790910E+01  0.00000000000E+00 0.  1.
</event>
<event>
 7    1  0.3919732E-008  0.4614232E+02  0.7816164E-02  0.1320468E+00
        -11   -1    0    0    0    0  0.00000000000E+00  0.00000000000E+00  0.45593999997E+02  0.45594000000E+02  0.51100000000E-03 0.  1.
         11   -1    0    0    0    0 -0.00000000000E+00 -0.00000000000E+00 -0.45593999997E+02  0.45594000000E+02  0.51100000000E-03 0. -1.
    9900012    2    1    2    0    0 -0.33271569419E+02 -0.15350115881E+02 -0.26200956815E+02  0.46142317330E+02  0.99999960683E+01 0.  0.
        -12    1    1    2    0    0  0.33271569419E+02  0.15350115881E+02  0.26200956815E+02  0.45045682670E+02  0.00000000000E+00 0.  1.
         11    1    3    3    0    0 -0.15664807277E+02 -0.10010958061E+02 -0.10540999911E+02  0.21370965062E+02  0.51100000000E-03 0. -1.
        -11    1    3    3    0    0 -0.15996642019E+02 -0.29048623179E+01 -0.13636552520E+02  0.21219951599E+02  0.51100000000E-03 0.  1.
        -12    1    3    3    0    0 -0.16101201228E+01 -0.24342955026E+01 -0.20234043844E+01  0.35514006683E+01  0.00000000000E+00 0.  1.
</event>
<event>
 7    1  0.3919732E-008  0.4614232E+02  0.7816164E-02  0.1320468E+00
        -11   -1    0    0    0    0  0.00000000000E+00  0.00000000000E+00  0.45593999997E+02  0.45594000000E+02  0.51100000000E-03 0.  1.
         11   -1    0    0    0    0 -0.00000000000E+00 -0.00000000000E+00 -0.45593999997E+02  0.45594000000E+02  0.51100000000E-03 0. -1.
    9900012    2    1    2    0    0 -0.18289872399E+01 -0.28602549209E+02 -0.34751438808E+02  0.46142317468E+02  0.99999973248E+01 0.  0.
        -12    1    1    2    0    0  0.18289872399E+01  0.28602549209E+02  0.34751438808E+02  0.45045682532E+02  0.00000000000E+00 0.  1.
         11    1    3    3    0    0  0.27664886079E+01 -0.11868951234E+02 -0.16498272233E+02  0.20511422416E+02  0.51100000000E-03 0. -1.
        -11    1    3    3    0    0 -0.49259126561E+01 -0.16905253291E+02 -0.17723958298E+02  0.24983812806E+02  0.51100000000E-03 0.  1.
        -12    1    3    3    0    0  0.33043680822E+00  0.17165531570E+00 -0.52920827702E+00  0.64708224523E+00  0.00000000000E+00 0.  1.
</event>
<event>
 7    1  0.3919732E-008  0.4614232E+02  0.7816164E-02  0.1320468E+00
        -11   -1    0    0    0    0  0.00000000000E+00  0.00000000000E+00  0.45593999997E+02  0.45594000000E+02  0.51100000000E-03 0. -1.
         11   -1    0    0    0    0 -0.00000000000E+00 -0.00000000000E+00 -0.45593999997E+02  0.45594000000E+02  0.51100000000E-03 0.  1.
    9900012    2    1    2    0    0  0.15717212404E+02  0.33889721349E+02  0.25170806345E+02  0.46142317954E+02  0.10000001762E+02 0.  0.
        -12    1    1    2    0    0 -0.15717212404E+02 -0.33889721349E+02 -0.25170806345E+02  0.45045682046E+02  0.00000000000E+00 0.  1.
         11    1    3    3    0    0  0.99270428368E+01  0.13949572230E+02  0.11761342197E+02  0.20771757639E+02  0.51100000000E-03 0. -1.
        -11    1    3    3    0    0  0.53646068190E+01  0.11140254123E+02  0.55071464374E+01  0.13535617104E+02  0.51100000000E-03 0.  1.
         12    1    3    3    0    0  0.42556274787E+00  0.87998949963E+01  0.79023177105E+01  0.11834943211E+02  0.00000000000E+00 0. -1.
</event>
<event>
 7    1  0.3919732E-008  0.4614232E+02  0.7816164E-02  0.1320468E+00
        -11   -1    0    0    0    0  0.00000000000E+00  0.00000000000E+00  0.45593999997E+02  0.45594000000E+02  0.51100000000E-03 0.  1.
         11   -1    0    0    0    0 -0.00000000000E+00 -0.00000000000E+00 -0.45593999997E+02  0.45594000000E+02  0.51100000000E-03 0. -1.
    9900012    2    1    2    0    0  0.27567180718E+01  0.39676843494E+01 -0.44785840507E+02  0.46142317371E+02  0.99999964405E+01 0.  0.
        -12    1    1    2    0    0 -0.27567180718E+01 -0.39676843494E+01  0.44785840507E+02  0.45045682629E+02  0.00000000000E+00 0.  1.
         11    1    3    3    0    0  0.45483674447E+01  0.58521715685E+01 -0.29402781242E+02  0.30322584051E+02  0.51100000000E-03 0. -1.
        -11    1    3    3    0    0  0.29627106906E+00 -0.40950942687E+00 -0.78201097057E+01  0.78364271571E+01  0.51100000000E-03 0.  1.
        -12    1    3    3    0    0 -0.20879204419E+01 -0.14749777922E+01 -0.75629495587E+01  0.79833061627E+01  0.00000000000E+00 0.  1.
</event>
<event>
 7    1  0.3919732E-008  0.4614232E+02  0.7816164E-02  0.1320468E+00
        -11   -1    0    0    0    0  0.00000000000E+00  0.00000000000E+00  0.45593999997E+02  0.45594000000E+02  0.51100000000E-03 0.  1.
         11   -1    0    0    0    0 -0.00000000000E+00 -0.00000000000E+00 -0.45593999997E+02  0.45594000000E+02  0.51100000000E-03 0. -1.
    9900012    2    1    2    0    0  0.20084292532E+02 -0.16729296100E+02 -0.36686034561E+02  0.46142320003E+02  0.10000020448E+02 0.  0.
        -12    1    1    2    0    0 -0.20084292532E+02  0.16729296100E+02  0.36686034561E+02  0.45045679997E+02  0.00000000000E+00 0.  1.
         11    1    3    3    0    0  0.13560609898E+02 -0.75896077470E+01 -0.21716721654E+02  0.26704087444E+02  0.51100000000E-03 0. -1.
        -11    1    3    3    0    0  0.66541801850E+01 -0.92327829029E+01 -0.12274853468E+02  0.16739008991E+02  0.51100000000E-03 0.  1.
         12    1    3    3    0    0 -0.13049755094E+00  0.93094549436E-01 -0.26944594390E+01  0.26992235688E+01  0.00000000000E+00 0. -1.
</event>
<event>
 7    1  0.3919732E-008  0.4614232E+02  0.7816164E-02  0.1320468E+00
        -11   -1    0    0    0    0  0.00000000000E+00  0.00000000000E+00  0.45593999997E+02  0.45594000000E+02  0.51100000000E-03 0.  1.
         11   -1    0    0    0    0 -0.00000000000E+00 -0.00000000000E+00 -0.45593999997E+02  0.45594000000E+02  0.51100000000E-03 0. -1.
    9900012    2    1    2    0    0 -0.14606797655E+02 -0.39770809971E+02 -0.15298290708E+02  0.46142316943E+02  0.99999925393E+01 0.  0.
        -12    1    1    2    0    0  0.14606797655E+02  0.39770809971E+02  0.15298290708E+02  0.45045683057E+02  0.00000000000E+00 0.  1.
         11    1    3    3    0    0 -0.27806165866E+00 -0.79102936464E+00  0.54732024649E+00  0.10013018801E+01  0.51100000000E-03 0. -1.
        -11    1    3    3    0    0 -0.98520113080E+01 -0.18306592819E+02 -0.10656870334E+02  0.23361557162E+02  0.51100000000E-03 0.  1.
         12    1    3    3    0    0 -0.44767246879E+01 -0.20673187788E+02 -0.51887406210E+01  0.21779457901E+02  0.00000000000E+00 0. -1.
</event>
<event>
 7    1  0.3919732E-008  0.4614232E+02  0.7816164E-02  0.1320468E+00
        -11   -1    0    0    0    0  0.00000000000E+00  0.00000000000E+00  0.45593999997E+02  0.45594000000E+02  0.51100000000E-03 0.  1.
         11   -1    0    0    0    0 -0.00000000000E+00 -0.00000000000E+00 -0.45593999997E+02  0.45594000000E+02  0.51100000000E-03 0. -1.
    9900012    2    1    2    0    0  0.16712335390E+02 -0.36814115479E+02  0.19862826159E+02  0.46142321898E+02  0.10000037719E+02 0.  0.
        -12    1    1    2    0    0 -0.16712335390E+02  0.36814115479E+02 -0.19862826159E+02  0.45045678102E+02  0.00000000000E+00 0.  1.
         11    1    3    3    0    0  0.94198750399E+01 -0.10977004684E+02  0.91338160328E+01  0.17107170227E+02  0.51100000000E-03 0. -1.
        -11    1    3    3    0    0  0.15870355423E+01 -0.99555588957E+01  0.46022350361E+01  0.11082075723E+02  0.51100000000E-03 0.  1.
        -12    1    3    3    0    0  0.57054248077E+01 -0.15881551900E+02  0.61267750902E+01  0.17953075948E+02  0.00000000000E+00 0.  1.
</event>
<event>
 7    1  0.3919732E-008  0.4614232E+02  0.7816164E-02  0.1320468E+00
        -11   -1    0    0    0    0  0.00000000000E+00  0.00000000000E+00  0.45593999997E+02  0.45594000000E+02  0.51100000000E-03 0. -1.
         11   -1    0    0    0    0 -0.00000000000E+00 -0.00000000000E+00 -0.45593999997E+02  0.45594000000E+02  0.51100000000E-03 0.  1.
    9900012    2    1    2    0    0  0.71936191840E+01 -0.42126478160E+02  0.14238158903E+02  0.46142317764E+02  0.10000000031E+02 0.  0.
        -12    1    1    2    0    0 -0.71936191840E+01  0.42126478160E+02 -0.14238158903E+02  0.45045682236E+02  0.00000000000E+00 0.  1.
         11    1    3    3    0    0  0.27171829803E+01 -0.11787728523E+02  0.47640204925E+01  0.13001135281E+02  0.51100000000E-03 0. -1.
        -11    1    3    3    0    0  0.53364219181E+01 -0.24247298013E+02  0.45047495461E+01  0.25232947282E+02  0.51100000000E-03 0.  1.
        -12    1    3    3    0    0 -0.85998571445E+00 -0.60914516246E+01  0.49693888639E+01  0.79082352016E+01  0.00000000000E+00 0.  1.
</event>
<event>
 7    1  0.3919732E-008  0.4614232E+02  0.7816164E-02  0.1320468E+00
        -11   -1    0    0    0    0  0.00000000000E+00  0.00000000000E+00  0.45593999997E+02  0.45594000000E+02  0.51100000000E-03 0. -1.
         11   -1    0    0    0    0 -0.00000000000E+00 -0.00000000000E+00 -0.45593999997E+02  0.45594000000E+02  0.51100000000E-03 0.  1.
    9900012    2    1    2    0    0 -0.38783025261E+02 -0.14246812659E+02 -0.17944883958E+02  0.46142316748E+02  0.99999907605E+01 0.  0.
        -12    1    1    2    0    0  0.38783025261E+02  0.14246812659E+02  0.17944883958E+02  0.45045683252E+02  0.00000000000E+00 0.  1.
         11    1    3    3    0    0 -0.40773744313E+01 -0.85564027132E+00 -0.63747186473E+00  0.42146735540E+01  0.51100000000E-03 0.  1.
        -11    1    3    3    0    0 -0.19676472516E+02 -0.31314262467E+01 -0.10288450833E+02  0.22423684394E+02  0.51100000000E-03 0. -1.
         12    1    3    3    0    0 -0.15029178315E+02 -0.10259746141E+02 -0.70189612600E+01  0.19503958800E+02  0.00000000000E+00 0. -1.
</event>
<event>
 7    1  0.3919732E-008  0.4614232E+02  0.7816164E-02  0.1320468E+00
        -11   -1    0    0    0    0  0.00000000000E+00  0.00000000000E+00  0.45593999997E+02  0.45594000000E+02  0.51100000000E-03 0. -1.
         11   -1    0    0    0    0 -0.00000000000E+00 -0.00000000000E+00 -0.45593999997E+02  0.45594000000E+02  0.51100000000E-03 0.  1.
    9900012    2    1    2    0    0 -0.24658549289E+02  0.42746047988E+01  0.37453934543E+02  0.46142317499E+02  0.99999976089E+01 0.  0.
        -12    1    1    2    0    0  0.24658549289E+02 -0.42746047988E+01 -0.37453934543E+02  0.45045682501E+02  0.00000000000E+00 0.  1.
         11    1    3    3    0    0 -0.30376983984E+01 -0.12934757699E+01  0.29530073198E+01  0.44295534333E+01  0.51100000000E-03 0.  1.
        -11    1    3    3    0    0 -0.84641085923E+01  0.56427197353E+01  0.17110719712E+02  0.19906233938E+02  0.51100000000E-03 0. -1.
        -12    1    3    3    0    0 -0.13156742299E+02 -0.74639166562E-01  0.17390207511E+02  0.21806530128E+02  0.00000000000E+00 0.  1.
</event>
<event>
 7    1  0.3919732E-008  0.4614232E+02  0.7816164E-02  0.1320468E+00
        -11   -1    0    0    0    0  0.00000000000E+00  0.00000000000E+00  0.45593999997E+02  0.45594000000E+02  0.51100000000E-03 0. -1.
         11   -1    0    0    0    0 -0.00000000000E+00 -0.00000000000E+00 -0.45593999997E+02  0.45594000000E+02  0.51100000000E-03 0.  1.
    9900012    2    1    2    0    0 -0.20121620956E+02 -0.39881459188E+02  0.58054401730E+01  0.46142317050E+02  0.99999935132E+01 0.  0.
        -12    1    1    2    0    0  0.20121620956E+02  0.39881459188E+02 -0.58054401730E+01  0.45045682950E+02  0.00000000000E+00 0.  1.
         11    1    3    3    0    0  0.39162354188E+00 -0.59926806832E+01  0.57624228276E+00  0.60330461791E+01  0.51100000000E-03 0. -1.
        -11    1    3    3    0    0 -0.19191858319E+01 -0.34129560078E+01  0.15821549635E+01  0.42231217787E+01  0.51100000000E-03 0.  1.
        -12    1    3    3    0    0 -0.18594058666E+02 -0.30475822497E+02  0.36470429267E+01  0.35886149092E+02  0.00000000000E+00 0.  1.
</event>
<event>
 7    1  0.3919732E-008  0.4614232E+02  0.7816164E-02  0.1320468E+00
        -11   -1    0    0    0    0  0.00000000000E+00  0.00000000000E+00  0.45593999997E+02  0.45594000000E+02  0.51100000000E-03 0. -1.
         11   -1    0    0    0    0 -0.00000000000E+00 -0.00000000000E+00 -0.45593999997E+02  0.45594000000E+02  0.51100000000E-03 0.  1.
    9900012    2    1    2    0    0  0.24791897103E+02 -0.10419584764E+02  0.36137343446E+02  0.46142317633E+02  0.99999988274E+01 0.  0.
        -12    1    1    2    0    0 -0.24791897103E+02  0.10419584764E+02 -0.36137343446E+02  0.45045682367E+02  0.00000000000E+00 0.  1.
         11    1    3    3    0    0  0.14511455904E+02 -0.45556447842E+01  0.26004213908E+02  0.30125660044E+02  0.51100000000E-03 0. -1.
        -11    1    3    3    0    0  0.99487232997E+01 -0.50752879242E+01  0.80576879475E+01  0.13771781952E+02  0.51100000000E-03 0.  1.
         12    1    3    3    0    0  0.33171789954E+00 -0.78865205522E+00  0.20754415905E+01  0.22448756368E+01  0.00000000000E+00 0. -1.
</event>
<event>
 7    1  0.3919732E-008  0.4614232E+02  0.7816164E-02  0.1320468E+00
        -11   -1    0    0    0    0  0.00000000000E+00  0.00000000000E+00  0.45593999997E+02  0.45594000000E+02  0.51100000000E-03 0.  1.
         11   -1    0    0    0    0 -0.00000000000E+00 -0.00000000000E+00 -0.45593999997E+02  0.45594000000E+02  0.51100000000E-03 0. -1.
    9900012    2    1    2    0    0  0.37160857226E+02 -0.19905881463E+02 -0.15872621264E+02  0.46142317273E+02  0.99999955448E+01 0.  0.
        -12    1    1    2    0    0 -0.37160857226E+02  0.19905881463E+02  0.15872621264E+02  0.45045682727E+02  0.00000000000E+00 0.  1.
         11    1    3    3    0    0  0.13028673644E+02 -0.71354850381E+01 -0.49520092959E+01  0.15658348571E+02  0.51100000000E-03 0. -1.
        -11    1    3    3    0    0  0.16126152652E+02 -0.40594619142E+01 -0.64479279924E+01  0.17835576976E+02  0.51100000000E-03 0.  1.
        -12    1    3    3    0    0  0.80060309299E+01 -0.87109345110E+01 -0.44726839758E+01  0.12648391726E+02  0.00000000000E+00 0.  1.
</event>
<event>
 7    1  0.3919732E-008  0.4614232E+02  0.7816164E-02  0.1320468E+00
        -11   -1    0    0    0    0  0.00000000000E+00  0.00000000000E+00  0.45593999997E+02  0.45594000000E+02  0.51100000000E-03 0.  1.
         11   -1    0    0    0    0 -0.00000000000E+00 -0.00000000000E+00 -0.45593999997E+02  0.45594000000E+02  0.51100000000E-03 0. -1.
    9900012    2    1    2    0    0  0.20543268932E+02  0.21187520994E+02 -0.34031993021E+02  0.46142317706E+02  0.99999995006E+01 0.  0.
        -12    1    1    2    0    0 -0.20543268932E+02 -0.21187520994E+02  0.34031993021E+02  0.45045682294E+02  0.00000000000E+00 0.  1.
         11    1    3    3    0    0  0.64503792103E+01  0.56506350126E+01 -0.48076437000E+01  0.98310989319E+01  0.51100000000E-03 0.  1.
        -11    1    3    3    0    0  0.73169506455E+01  0.96476711504E+01 -0.12978314186E+02  0.17749703230E+02  0.51100000000E-03 0. -1.
        -12    1    3    3    0    0  0.67759390766E+01  0.58892148313E+01 -0.16246035135E+02  0.18561515545E+02  0.00000000000E+00 0.  1.
</event>
<event>
 7    1  0.3919732E-008  0.4614232E+02  0.7816164E-02  0.1320468E+00
        -11   -1    0    0    0    0  0.00000000000E+00  0.00000000000E+00  0.45593999997E+02  0.45594000000E+02  0.51100000000E-03 0.  1.
         11   -1    0    0    0    0 -0.00000000000E+00 -0.00000000000E+00 -0.45593999997E+02  0.45594000000E+02  0.51100000000E-03 0. -1.
    9900012    2    1    2    0    0  0.43224671648E+02 -0.76856863262E+01 -0.10083226162E+02  0.46142318040E+02  0.10000002541E+02 0.  0.
        -12    1    1    2    0    0 -0.43224671648E+02  0.76856863262E+01  0.10083226162E+02  0.45045681960E+02  0.00000000000E+00 0.  1.
         11    1    3    3    0    0  0.29579859487E+02 -0.68713770361E+01 -0.45547115746E+01  0.30707154010E+02  0.51100000000E-03 0. -1.
        -11    1    3    3    0    0  0.15066507446E+01 -0.13867308766E+01  0.85257052915E-01  0.20494604209E+01  0.51100000000E-03 0.  1.
         12    1    3    3    0    0  0.12138161417E+02  0.57242158661E+00 -0.56137716407E+01  0.13385703609E+02  0.00000000000E+00 0. -1.
</event>
<event>
 7    1  0.3919732E-008  0.4614232E+02  0.7816164E-02  0.1320468E+00
        -11   -1    0    0    0    0  0.00000000000E+00  0.00000000000E+00  0.45593999997E+02  0.45594000000E+02  0.51100000000E-03 0. -1.
         11   -1    0    0    0    0 -0.00000000000E+00 -0.00000000000E+00 -0.45593999997E+02  0.45594000000E+02  0.51100000000E-03 0.  1.
    9900012    2    1    2    0    0  0.93434347885E+01  0.36167299461E+02  0.25174197333E+02  0.46142317240E+02  0.99999952506E+01 0.  0.
        -12    1    1    2    0    0 -0.93434347885E+01 -0.36167299461E+02 -0.25174197333E+02  0.45045682760E+02  0.00000000000E+00 0.  1.
         11    1    3    3    0    0  0.35235620558E+01  0.10367461471E+02  0.59780357124E+01  0.12475442203E+02  0.51100000000E-03 0. -1.
        -11    1    3    3    0    0  0.39118931145E+01  0.13235607669E+02  0.51657320480E+01  0.14736655182E+02  0.51100000000E-03 0.  1.
         12    1    3    3    0    0  0.19079796181E+01  0.12564230320E+02  0.14030429573E+02  0.18930219855E+02  0.00000000000E+00 0. -1.
</event>
<event>
 7    1  0.3919732E-008  0.4614232E+02  0.7816164E-02  0.1320468E+00
        -11   -1    0    0    0    0  0.00000000000E+00  0.00000000000E+00  0.45593999997E+02  0.45594000000E+02  0.51100000000E-03 0.  1.
         11   -1    0    0    0    0 -0.00000000000E+00 -0.00000000000E+00 -0.45593999997E+02  0.45594000000E+02  0.51100000000E-03 0. -1.
    9900012    2    1    2    0    0  0.40585282729E+02 -0.17946256243E+02 -0.77382399748E+01  0.46142316020E+02  0.99999841194E+01 0.  0.
        -12    1    1    2    0    0 -0.40585282729E+02  0.17946256243E+02  0.77382399748E+01  0.45045683980E+02  0.00000000000E+00 0.  1.
         11    1    3    3    0    0  0.19795535187E+00 -0.35798614519E+00  0.68441938236E+00  0.79735221424E+00  0.51100000000E-03 0. -1.
        -11    1    3    3    0    0 -0.25958788544E+00 -0.11219116990E+00  0.73060822316E-01  0.29208025225E+00  0.51100000000E-03 0.  1.
         12    1    3    3    0    0  0.40646915263E+02 -0.17476078928E+02 -0.84957201795E+01  0.45052883553E+02  0.00000000000E+00 0. -1.
</event>
<event>
 7    1  0.3919732E-008  0.4614232E+02  0.7816164E-02  0.1320468E+00
        -11   -1    0    0    0    0  0.00000000000E+00  0.00000000000E+00  0.45593999997E+02  0.45594000000E+02  0.51100000000E-03 0.  1.
         11   -1    0    0    0    0 -0.00000000000E+00 -0.00000000000E+00 -0.45593999997E+02  0.45594000000E+02  0.51100000000E-03 0. -1.
    9900012    2    1    2    0    0 -0.35487864156E+02 -0.27152552051E+02  0.56977141222E+01  0.46142317283E+02  0.99999956405E+01 0.  0.
        -12    1    1    2    0    0  0.35487864156E+02  0.27152552051E+02 -0.56977141222E+01  0.45045682717E+02  0.00000000000E+00 0.  1.
         11    1    3    3    0    0 -0.10059087218E+02 -0.78272259174E+01  0.25357665132E+01  0.12995415087E+02  0.51100000000E-03 0. -1.
        -11    1    3    3    0    0 -0.11320921975E+02 -0.49232666819E+01  0.39767241756E+01  0.12969817447E+02  0.51100000000E-03 0.  1.
        -12    1    3    3    0    0 -0.14107854964E+02 -0.14402059451E+02 -0.81477656651E+00  0.20177084749E+02  0.00000000000E+00 0.  1.
</event>
<event>
 7    1  0.3919732E-008  0.4614231E+02  0.7816164E-02  0.1320468E+00
        -11   -1    0    0    0    0  0.00000000000E+00  0.00000000000E+00  0.45593999997E+02  0.45594000000E+02  0.51100000000E-03 0.  1.
         11   -1    0    0    0    0 -0.00000000000E+00 -0.00000000000E+00 -0.45593999997E+02  0.45594000000E+02  0.51100000000E-03 0. -1.
    9900012    2    1    2    0    0 -0.21066754360E+02 -0.36909059655E+02 -0.14934102621E+02  0.46142309363E+02  0.99999234206E+01 0.  0.
        -12    1    1    2    0    0  0.21066754360E+02  0.36909059655E+02  0.14934102621E+02  0.45045690637E+02  0.00000000000E+00 0.  1.
         11    1    3    3    0    0 -0.68971313664E+01 -0.18378341372E+02 -0.47731984347E+01  0.20201912688E+02  0.51100000000E-03 0. -1.
        -11    1    3    3    0    0 -0.85327604273E+00  0.11099768014E-01  0.19147458245E+00  0.87456617061E+00  0.51100000000E-03 0.  1.
         12    1    3    3    0    0 -0.13316346951E+02 -0.18541818051E+02 -0.10352378769E+02  0.25065830505E+02  0.00000000000E+00 0. -1.
</event>
<event>
 7    1  0.3919732E-008  0.4614232E+02  0.7816164E-02  0.1320468E+00
        -11   -1    0    0    0    0  0.00000000000E+00  0.00000000000E+00  0.45593999997E+02  0.45594000000E+02  0.51100000000E-03 0. -1.
         11   -1    0    0    0    0 -0.00000000000E+00 -0.00000000000E+00 -0.45593999997E+02  0.45594000000E+02  0.51100000000E-03 0.  1.
    9900012    2    1    2    0    0 -0.37910354162E+02 -0.20336360378E+02  0.13354816904E+02  0.46142316071E+02  0.99999845872E+01 0.  0.
        -12    1    1    2    0    0  0.37910354162E+02  0.20336360378E+02 -0.13354816904E+02  0.45045683929E+02  0.00000000000E+00 0.  1.
         11    1    3    3    0    0 -0.64173777065E+01 -0.39697185721E+01  0.52384487295E+01  0.91860082475E+01  0.51100000000E-03 0.  1.
        -11    1    3    3    0    0 -0.84083125725E+01 -0.54670931217E+01  0.50959972472E+01  0.11249800697E+02  0.51100000000E-03 0. -1.
         12    1    3    3    0    0 -0.23084663883E+02 -0.10899548684E+02  0.30203709276E+01  0.25706507126E+02  0.00000000000E+00 0. -1.
</event>
<event>
 7    1  0.3919732E-008  0.4614232E+02  0.7816164E-02  0.1320468E+00
        -11   -1    0    0    0    0  0.00000000000E+00  0.00000000000E+00  0.45593999997E+02  0.45594000000E+02  0.51100000000E-03 0.  1.
         11   -1    0    0    0    0 -0.00000000000E+00 -0.00000000000E+00 -0.45593999997E+02  0.45594000000E+02  0.51100000000E-03 0. -1.
    9900012    2    1    2    0    0  0.41458122535E+02 -0.13177631636E+02  0.11691346128E+02  0.46142317921E+02  0.10000001460E+02 0.  0.
        -12    1    1    2    0    0 -0.41458122535E+02  0.13177631636E+02 -0.11691346128E+02  0.45045682079E+02  0.00000000000E+00 0.  1.
         11    1    3    3    0    0  0.19687532252E+02 -0.30783001397E+01  0.59656554244E+01  0.20800574580E+02  0.51100000000E-03 0. -1.
        -11    1    3    3    0    0  0.43891664172E+00 -0.64575274568E+00  0.14123360833E+01  0.16137961148E+01  0.51100000000E-03 0.  1.
        -12    1    3    3    0    0  0.21331673641E+02 -0.94535787511E+01  0.43133546199E+01  0.23727947227E+02  0.00000000000E+00 0.  1.
</event>
<event>
 7    1  0.3919732E-008  0.4614232E+02  0.7816164E-02  0.1320468E+00
        -11   -1    0    0    0    0  0.00000000000E+00  0.00000000000E+00  0.45593999997E+02  0.45594000000E+02  0.51100000000E-03 0.  1.
         11   -1    0    0    0    0 -0.00000000000E+00 -0.00000000000E+00 -0.45593999997E+02  0.45594000000E+02  0.51100000000E-03 0. -1.
    9900012    2    1    2    0    0  0.44664655648E+02  0.48168016737E+01  0.33136875754E+01  0.46142316879E+02  0.99999919552E+01 0.  0.
        -12    1    1    2    0    0 -0.44664655648E+02 -0.48168016737E+01 -0.33136875754E+01  0.45045683121E+02  0.00000000000E+00 0.  1.
         11    1    3    3    0    0  0.14004143592E+02  0.26002297796E+01  0.50750682524E+01  0.15120633276E+02  0.51100000000E-03 0. -1.
        -11    1    3    3    0    0  0.70839493578E+01  0.85343317316E+00 -0.19797600407E+01  0.74047374542E+01  0.51100000000E-03 0.  1.
         12    1    3    3    0    0  0.23576562698E+02  0.13631387209E+01  0.21837936371E+00  0.23616946148E+02  0.00000000000E+00 0. -1.
</event>
<event>
 7    1  0.3919732E-008  0.4614232E+02  0.7816164E-02  0.1320468E+00
        -11   -1    0    0    0    0  0.00000000000E+00  0.00000000000E+00  0.45593999997E+02  0.45594000000E+02  0.51100000000E-03 0. -1.
         11   -1    0    0    0    0 -0.00000000000E+00 -0.00000000000E+00 -0.45593999997E+02  0.45594000000E+02  0.51100000000E-03 0.  1.
    9900012    2    1    2    0    0  0.19377511881E+01  0.35191956325E+02  0.28051467614E+02  0.46142317577E+02  0.99999983218E+01 0.  0.
        -12    1    1    2    0    0 -0.19377511881E+01 -0.35191956325E+02 -0.28051467614E+02  0.45045682423E+02  0.00000000000E+00 0.  1.
         11    1    3    3    0    0 -0.75763485509E+00  0.48975732405E+01  0.22712274265E+01  0.54514868159E+01  0.51100000000E-03 0. -1.
        -11    1    3    3    0    0  0.35472603686E+01  0.89190049874E+01  0.48172032354E+01  0.10739513646E+02  0.51100000000E-03 0.  1.
         12    1    3    3    0    0 -0.85187432541E+00  0.21375378097E+02  0.20963036952E+02  0.29951317115E+02  0.00000000000E+00 0. -1.
</event>
<event>
 7    1  0.3919732E-008  0.4614232E+02  0.7816164E-02  0.1320468E+00
        -11   -1    0    0    0    0  0.00000000000E+00  0.00000000000E+00  0.45593999997E+02  0.45594000000E+02  0.51100000000E-03 0.  1.
         11   -1    0    0    0    0 -0.00000000000E+00 -0.00000000000E+00 -0.45593999997E+02  0.45594000000E+02  0.51100000000E-03 0. -1.
    9900012    2    1    2    0    0 -0.31421283291E+02 -0.31402592423E+02 -0.74628212608E+01  0.46142317013E+02  0.99999931800E+01 0.  0.
        -12    1    1    2    0    0  0.31421283291E+02  0.31402592423E+02  0.74628212608E+01  0.45045682987E+02  0.00000000000E+00 0.  1.
         11    1    3    3    0    0 -0.50117162474E+01 -0.35604683728E+01 -0.16224483053E+01  0.63581894862E+01  0.51100000000E-03 0. -1.
        -11    1    3    3    0    0 -0.98263624848E+01 -0.16246831167E+02 -0.12078317949E+01  0.19025661107E+02  0.51100000000E-03 0.  1.
        -12    1    3    3    0    0 -0.16583204559E+02 -0.11595292883E+02 -0.46325411607E+01  0.20758466420E+02  0.00000000000E+00 0.  1.
</event>
<event>
 7    1  0.3919732E-008  0.4614232E+02  0.7816164E-02  0.1320468E+00
        -11   -1    0    0    0    0  0.00000000000E+00  0.00000000000E+00  0.45593999997E+02  0.45594000000E+02  0.51100000000E-03 0.  1.
         11   -1    0    0    0    0 -0.00000000000E+00 -0.00000000000E+00 -0.45593999997E+02  0.45594000000E+02  0.51100000000E-03 0. -1.
    9900012    2    1    2    0    0 -0.20768345780E+02  0.39574946345E+02 -0.56225398884E+01  0.46142317416E+02  0.99999968566E+01 0.  0.
        -12    1    1    2    0    0  0.20768345780E+02 -0.39574946345E+02  0.56225398884E+01  0.45045682584E+02  0.00000000000E+00 0.  1.
         11    1    3    3    0    0 -0.58513111107E+01  0.14882299255E+02 -0.15498670810E+01  0.16066199335E+02  0.51100000000E-03 0. -1.
        -11    1    3    3    0    0 -0.10495135577E+02  0.19948486941E+02 -0.23848726087E+00  0.22542113442E+02  0.51100000000E-03 0.  1.
        -12    1    3    3    0    0 -0.44218990928E+01  0.47441601486E+01 -0.38341855465E+01  0.75340046395E+01  0.00000000000E+00 0.  1.
</event>
<event>
 7    1  0.3919732E-008  0.4614232E+02  0.7816164E-02  0.1320468E+00
        -11   -1    0    0    0    0  0.00000000000E+00  0.00000000000E+00  0.45593999997E+02  0.45594000000E+02  0.51100000000E-03 0. -1.
         11   -1    0    0    0    0 -0.00000000000E+00 -0.00000000000E+00 -0.45593999997E+02  0.45594000000E+02  0.51100000000E-03 0.  1.
    9900012    2    1    2    0    0 -0.16561205942E+02 -0.35319217394E+02 -0.22525382598E+02  0.46142317401E+02  0.99999967195E+01 0.  0.
        -12    1    1    2    0    0  0.16561205942E+02  0.35319217394E+02  0.22525382598E+02  0.45045682599E+02  0.00000000000E+00 0.  1.
         11    1    3    3    0    0 -0.15143191607E+02 -0.29098317659E+02 -0.17537294643E+02  0.37196573045E+02  0.51100000000E-03 0. -1.
        -11    1    3    3    0    0 -0.27207963577E+01 -0.40346335955E+01 -0.30050917977E+01  0.57194036441E+01  0.51100000000E-03 0.  1.
        -12    1    3    3    0    0  0.13027820226E+01 -0.21862661392E+01 -0.19829961576E+01  0.32263407122E+01  0.00000000000E+00 0.  1.
</event>
<event>
 7    1  0.3919732E-008  0.4614232E+02  0.7816164E-02  0.1320468E+00
        -11   -1    0    0    0    0  0.00000000000E+00  0.00000000000E+00  0.45593999997E+02  0.45594000000E+02  0.51100000000E-03 0.  1.
         11   -1    0    0    0    0 -0.00000000000E+00 -0.00000000000E+00 -0.45593999997E+02  0.45594000000E+02  0.51100000000E-03 0. -1.
    9900012    2    1    2    0    0  0.32656422606E+02  0.29024564626E+02 -0.10965678910E+02  0.46142318708E+02  0.10000008631E+02 0.  0.
        -12    1    1    2    0    0 -0.32656422606E+02 -0.29024564626E+02  0.10965678910E+02  0.45045681292E+02  0.00000000000E+00 0.  1.
         11    1    3    3    0    0  0.73270128752E+01  0.78739596207E+01 -0.50829495627E+01  0.11896248749E+02  0.51100000000E-03 0. -1.
        -11    1    3    3    0    0  0.10904040770E+01  0.26911029913E+01  0.88547570321E+00  0.30356356571E+01  0.51100000000E-03 0.  1.
        -12    1    3    3    0    0  0.24239005654E+02  0.18459502014E+02 -0.67682050505E+01  0.31210434301E+02  0.00000000000E+00 0.  1.
</event>
<event>
 7    1  0.3919732E-008  0.4614232E+02  0.7816164E-02  0.1320468E+00
        -11   -1    0    0    0    0  0.00000000000E+00  0.00000000000E+00  0.45593999997E+02  0.45594000000E+02  0.51100000000E-03 0.  1.
         11   -1    0    0    0    0 -0.00000000000E+00 -0.00000000000E+00 -0.45593999997E+02  0.45594000000E+02  0.51100000000E-03 0. -1.
    9900012    2    1    2    0    0 -0.43204497700E+01 -0.20605205854E+02 -0.39823015750E+02  0.46142318987E+02  0.10000011180E+02 0.  0.
        -12    1    1    2    0    0  0.43204497700E+01  0.20605205854E+02  0.39823015750E+02  0.45045681013E+02  0.00000000000E+00 0.  1.
         11    1    3    3    0    0 -0.52616997484E+01 -0.51901932403E+01 -0.12216153648E+02  0.14277885009E+02  0.51100000000E-03 0. -1.
        -11    1    3    3    0    0  0.11227407593E+00 -0.65634747828E+01 -0.80910423985E+01  0.10419058213E+02  0.51100000000E-03 0.  1.
         12    1    3    3    0    0  0.82897590248E+00 -0.88515378312E+01 -0.19515819703E+02  0.21445375765E+02  0.00000000000E+00 0. -1.
</event>
<event>
 7    1  0.3919732E-008  0.4614232E+02  0.7816164E-02  0.1320468E+00
        -11   -1    0    0    0    0  0.00000000000E+00  0.00000000000E+00  0.45593999997E+02  0.45594000000E+02  0.51100000000E-03 0.  1.
         11   -1    0    0    0    0 -0.00000000000E+00 -0.00000000000E+00 -0.45593999997E+02  0.45594000000E+02  0.51100000000E-03 0. -1.
    9900012    2    1    2    0    0  0.12187768657E+01 -0.30615252234E+02 -0.33020211560E+02  0.46142318100E+02  0.10000003090E+02 0.  0.
        -12    1    1    2    0    0 -0.12187768657E+01  0.30615252234E+02  0.33020211560E+02  0.45045681900E+02  0.00000000000E+00 0.  1.
         11    1    3    3    0    0  0.16292193772E+01 -0.18384216556E+02 -0.14545217474E+02  0.23498874990E+02  0.51100000000E-03 0. -1.
        -11    1    3    3    0    0 -0.12295856421E+01 -0.10980762198E+02 -0.13481307404E+02  0.17430853935E+02  0.51100000000E-03 0.  1.
        -12    1    3    3    0    0  0.81914313063E+00 -0.12502734801E+01 -0.49936866815E+01  0.52125891759E+01  0.00000000000E+00 0.  1.
</event>
<event>
 7    1  0.3919732E-008  0.4614232E+02  0.7816164E-02  0.1320468E+00
        -11   -1    0    0    0    0  0.00000000000E+00  0.00000000000E+00  0.45593999997E+02  0.45594000000E+02  0.51100000000E-03 0. -1.
         11   -1    0    0    0    0 -0.00000000000E+00 -0.00000000000E+00 -0.45593999997E+02  0.45594000000E+02  0.51100000000E-03 0.  1.
    9900012    2    1    2    0    0 -0.10742643213E+02 -0.41534478005E+02  0.13733032274E+02  0.46142318500E+02  0.10000006736E+02 0.  0.
        -12    1    1    2    0    0  0.10742643213E+02  0.41534478005E+02 -0.13733032274E+02  0.45045681500E+02  0.00000000000E+00 0.  1.
         11    1    3    3    0    0 -0.27945776472E+01 -0.39831699162E+01  0.19938808591E+01  0.52584092603E+01  0.51100000000E-03 0.  1.
        -11    1    3    3    0    0 -0.53212624367E+01 -0.19719233621E+02  0.10098950091E+02  0.22784924879E+02  0.51100000000E-03 0. -1.
         12    1    3    3    0    0 -0.26268031292E+01 -0.17832074468E+02  0.16402013238E+01  0.18098984361E+02  0.00000000000E+00 0. -1.
</event>
<event>
 7    1  0.3919732E-008  0.4614232E+02  0.7816164E-02  0.1320468E+00
        -11   -1    0    0    0    0  0.00000000000E+00  0.00000000000E+00  0.45593999997E+02  0.45594000000E+02  0.51100000000E-03 0.  1.
         11   -1    0    0    0    0 -0.00000000000E+00 -0.00000000000E+00 -0.45593999997E+02  0.45594000000E+02  0.51100000000E-03 0. -1.
    9900012    2    1    2    0    0  0.22173530605E+02  0.16781332178E+02 -0.35437760541E+02  0.46142318284E+02  0.10000004766E+02 0.  0.
        -12    1    1    2    0    0 -0.22173530605E+02 -0.16781332178E+02  0.35437760541E+02  0.45045681716E+02  0.00000000000E+00 0.  1.
         11    1    3    3    0    0  0.31295550814E+01  0.45846699304E+01 -0.92358422197E+01  0.10775625047E+02  0.51100000000E-03 0. -1.
        -11    1    3    3    0    0  0.74224024280E+01  0.10108009957E+01 -0.10103957876E+02  0.12577906879E+02  0.51100000000E-03 0.  1.
         12    1    3    3    0    0  0.11621573095E+02  0.11185861252E+02 -0.16097960446E+02  0.22788786358E+02  0.00000000000E+00 0. -1.
</event>
<event>
 7    1  0.3919732E-008  0.4614232E+02  0.7816164E-02  0.1320468E+00
        -11   -1    0    0    0    0  0.00000000000E+00  0.00000000000E+00  0.45593999997E+02  0.45594000000E+02  0.51100000000E-03 0. -1.
         11   -1    0    0    0    0 -0.00000000000E+00 -0.00000000000E+00 -0.45593999997E+02  0.45594000000E+02  0.51100000000E-03 0.  1.
    9900012    2    1    2    0    0  0.28127465524E+02  0.30159296755E+02  0.18121150712E+02  0.46142316515E+02  0.99999886363E+01 0.  0.
        -12    1    1    2    0    0 -0.28127465524E+02 -0.30159296755E+02 -0.18121150712E+02  0.45045683485E+02  0.00000000000E+00 0.  1.
         11    1    3    3    0    0  0.11657647288E+02  0.15917427883E+02  0.12191454008E+02  0.23192602308E+02  0.51100000000E-03 0. -1.
        -11    1    3    3    0    0  0.88353215516E+01  0.57005019506E+01  0.43754781987E+01  0.11388741772E+02  0.51100000000E-03 0.  1.
        -12    1    3    3    0    0  0.76344966846E+01  0.85413669208E+01  0.15542185046E+01  0.11560972436E+02  0.00000000000E+00 0.  1.
</event>
<event>
 7    1  0.3919732E-008  0.4614232E+02  0.7816164E-02  0.1320468E+00
        -11   -1    0    0    0    0  0.00000000000E+00  0.00000000000E+00  0.45593999997E+02  0.45594000000E+02  0.51100000000E-03 0.  1.
         11   -1    0    0    0    0 -0.00000000000E+00 -0.00000000000E+00 -0.45593999997E+02  0.45594000000E+02  0.51100000000E-03 0. -1.
    9900012    2    1    2    0    0 -0.24553270195E+02  0.33228884528E+02 -0.17946911534E+02  0.46142317878E+02  0.10000001067E+02 0.  0.
        -12    1    1    2    0    0  0.24553270195E+02 -0.33228884528E+02  0.17946911534E+02  0.45045682122E+02  0.00000000000E+00 0.  1.
         11    1    3    3    0    0 -0.16009094861E+01  0.61740688709E+01 -0.48247810244E+01  0.79975339824E+01  0.51100000000E-03 0. -1.
        -11    1    3    3    0    0 -0.11114673732E+00  0.15603175507E+01 -0.85780769897E+00  0.17840344072E+01  0.51100000000E-03 0.  1.
        -12    1    3    3    0    0 -0.22841213971E+02  0.25494498106E+02 -0.12264322811E+02  0.36360749489E+02  0.00000000000E+00 0.  1.
</event>
<event>
 7    1  0.3919732E-008  0.4614232E+02  0.7816164E-02  0.1320468E+00
        -11   -1    0    0    0    0  0.00000000000E+00  0.00000000000E+00  0.45593999997E+02  0.45594000000E+02  0.51100000000E-03 0.  1.
         11   -1    0    0    0    0 -0.00000000000E+00 -0.00000000000E+00 -0.45593999997E+02  0.45594000000E+02  0.51100000000E-03 0. -1.
    9900012    2    1    2    0    0 -0.17960776674E+02 -0.28248355131E+02 -0.30142235582E+02  0.46142318384E+02  0.10000005684E+02 0.  0.
        -12    1    1    2    0    0  0.17960776674E+02  0.28248355131E+02  0.30142235582E+02  0.45045681616E+02  0.00000000000E+00 0.  1.
         11    1    3    3    0    0 -0.58196102459E+01 -0.12284862644E+02 -0.16430569665E+02  0.21324852482E+02  0.51100000000E-03 0. -1.
        -11    1    3    3    0    0 -0.11910610091E+02 -0.13987922892E+02 -0.13537669909E+02  0.22820892322E+02  0.51100000000E-03 0.  1.
        -12    1    3    3    0    0 -0.23055633726E+00 -0.19755695958E+01 -0.17399600811E+00  0.19965735808E+01  0.00000000000E+00 0.  1.
</event>
<event>
 7    1  0.3919732E-008  0.4614232E+02  0.7816164E-02  0.1320468E+00
        -11   -1    0    0    0    0  0.00000000000E+00  0.00000000000E+00  0.45593999997E+02  0.45594000000E+02  0.51100000000E-03 0.  1.
         11   -1    0    0    0    0 -0.00000000000E+00 -0.00000000000E+00 -0.45593999997E+02  0.45594000000E+02  0.51100000000E-03 0. -1.
    9900012    2    1    2    0    0  0.28723489210E+02 -0.29152670702E+02 -0.18820106057E+02  0.46142318371E+02  0.10000005561E+02 0.  0.
        -12    1    1    2    0    0 -0.28723489210E+02  0.29152670702E+02  0.18820106057E+02  0.45045681629E+02  0.00000000000E+00 0.  1.
         11    1    3    3    0    0  0.57600948507E+01 -0.30862943086E+01 -0.43154208039E+01  0.78311405443E+01  0.51100000000E-03 0. -1.
        -11    1    3    3    0    0  0.18558169441E+02 -0.16991075020E+02 -0.84337721102E+01  0.26537347185E+02  0.51100000000E-03 0.  1.
         12    1    3    3    0    0  0.44052249180E+01 -0.90753013737E+01 -0.60709131425E+01  0.11773830642E+02  0.00000000000E+00 0. -1.
</event>
<event>
 7    1  0.3919732E-008  0.4614232E+02  0.7816164E-02  0.1320468E+00
        -11   -1    0    0    0    0  0.00000000000E+00  0.00000000000E+00  0.45593999997E+02  0.45594000000E+02  0.51100000000E-03 0.  1.
         11   -1    0    0    0    0 -0.00000000000E+00 -0.00000000000E+00 -0.45593999997E+02  0.45594000000E+02  0.51100000000E-03 0. -1.
    9900012    2    1    2    0    0  0.26658070003E+02  0.30590071974E+02 -0.19562928299E+02  0.46142319150E+02  0.10000012662E+02 0.  0.
        -12    1    1    2    0    0 -0.26658070003E+02 -0.30590071974E+02  0.19562928299E+02  0.45045680850E+02  0.00000000000E+00 0.  1.
         11    1    3    3    0    0  0.10595585535E+02  0.10759713982E+02 -0.66657018758E+01  0.16506648950E+02  0.51100000000E-03 0. -1.
        -11    1    3    3    0    0  0.43663430602E+01  0.85413656972E+01 -0.13294924878E+01  0.96843910613E+01  0.51100000000E-03 0.  1.
         12    1    3    3    0    0  0.11696141407E+02  0.11288992295E+02 -0.11567733935E+02  0.19951279138E+02  0.00000000000E+00 0. -1.
</event>
<event>
 7    1  0.3919732E-008  0.4614232E+02  0.7816164E-02  0.1320468E+00
        -11   -1    0    0    0    0  0.00000000000E+00  0.00000000000E+00  0.45593999997E+02  0.45594000000E+02  0.51100000000E-03 0.  1.
         11   -1    0    0    0    0 -0.00000000000E+00 -0.00000000000E+00 -0.45593999997E+02  0.45594000000E+02  0.51100000000E-03 0. -1.
    9900012    2    1    2    0    0  0.17670652129E+02  0.20756170788E+02 -0.35861442688E+02  0.46142316032E+02  0.99999842354E+01 0.  0.
        -12    1    1    2    0    0 -0.17670652129E+02 -0.20756170788E+02  0.35861442688E+02  0.45045683968E+02  0.00000000000E+00 0.  1.
         11    1    3    3    0    0  0.59216562841E+00  0.12309863516E+01 -0.42279977710E+00  0.14299466570E+01  0.51100000000E-03 0. -1.
        -11    1    3    3    0    0  0.78918937127E+00  0.45932807921E+01 -0.33030209376E+01  0.57123546698E+01  0.51100000000E-03 0.  1.
         12    1    3    3    0    0  0.16289297130E+02  0.14931903645E+02 -0.32135621973E+02  0.39000014705E+02  0.00000000000E+00 0. -1.
</event>
<event>
 7    1  0.3919732E-008  0.4614232E+02  0.7816164E-02  0.1320468E+00
        -11   -1    0    0    0    0  0.00000000000E+00  0.00000000000E+00  0.45593999997E+02  0.45594000000E+02  0.51100000000E-03 0. -1.
         11   -1    0    0    0    0 -0.00000000000E+00 -0.00000000000E+00 -0.45593999997E+02  0.45594000000E+02  0.51100000000E-03 0.  1.
    9900012    2    1    2    0    0 -0.41021382596E+02  0.10849610850E+02  0.15121031271E+02  0.46142317939E+02  0.10000001619E+02 0.  0.
        -12    1    1    2    0    0  0.41021382596E+02 -0.10849610850E+02 -0.15121031271E+02  0.45045682061E+02  0.00000000000E+00 0.  1.
         11    1    3    3    0    0 -0.12060499554E+02  0.29613886311E+01  0.31278804580E+01  0.12806604099E+02  0.51100000000E-03 0. -1.
        -11    1    3    3    0    0 -0.48664353736E+01 -0.97302262567E-01 -0.76396948787E+00  0.49269981343E+01  0.51100000000E-03 0.  1.
         12    1    3    3    0    0 -0.24094447668E+02  0.79855244810E+01  0.12757120301E+02  0.28408715706E+02  0.00000000000E+00 0. -1.
</event>
<event>
 7    1  0.3919732E-008  0.4614231E+02  0.7816164E-02  0.1320468E+00
        -11   -1    0    0    0    0  0.00000000000E+00  0.00000000000E+00  0.45593999997E+02  0.45594000000E+02  0.51100000000E-03 0. -1.
         11   -1    0    0    0    0 -0.00000000000E+00 -0.00000000000E+00 -0.45593999997E+02  0.45594000000E+02  0.51100000000E-03 0.  1.
    9900012    2    1    2    0    0  0.24113462338E+02  0.36921591190E+02  0.91897333332E+01  0.46142310299E+02  0.99999319519E+01 0.  0.
        -12    1    1    2    0    0 -0.24113462338E+02 -0.36921591190E+02 -0.91897333332E+01  0.45045689701E+02  0.00000000000E+00 0.  1.
         11    1    3    3    0    0  0.69892269628E+01  0.11126313921E+02 -0.33627063234E+00  0.13143714589E+02  0.51100000000E-03 0. -1.
        -11    1    3    3    0    0  0.20779418812E+01  0.24545757242E+01  0.31588528078E+01  0.45078970452E+01  0.51100000000E-03 0.  1.
         12    1    3    3    0    0  0.15046293494E+02  0.23340701545E+02  0.63671511577E+01  0.28490698664E+02  0.00000000000E+00 0. -1.
</event>
<event>
 7    1  0.3919732E-008  0.4614232E+02  0.7816164E-02  0.1320468E+00
        -11   -1    0    0    0    0  0.00000000000E+00  0.00000000000E+00  0.45593999997E+02  0.45594000000E+02  0.51100000000E-03 0. -1.
         11   -1    0    0    0    0 -0.00000000000E+00 -0.00000000000E+00 -0.45593999997E+02  0.45594000000E+02  0.51100000000E-03 0.  1.
    9900012    2    1    2    0    0 -0.65968057045E+01 -0.89710351790E+01  0.43647636270E+02  0.46142317969E+02  0.10000001896E+02 0.  0.
        -12    1    1    2    0    0  0.65968057045E+01  0.89710351790E+01 -0.43647636270E+02  0.45045682031E+02  0.00000000000E+00 0.  1.
         11    1    3    3    0    0  0.25225145065E-01 -0.17387901197E+00 -0.18250077837E+00  0.25333182582E+00  0.51100000000E-03 0. -1.
        -11    1    3    3    0    0  0.50171231706E+00 -0.58292784206E+01  0.17588384844E+02  0.18536005067E+02  0.51100000000E-03 0.  1.
         12    1    3    3    0    0 -0.71237431666E+01 -0.29678777464E+01  0.26241752204E+02  0.27352981076E+02  0.00000000000E+00 0. -1.
</event>
<event>
 7    1  0.3919732E-008  0.4614231E+02  0.7816164E-02  0.1320468E+00
        -11   -1    0    0    0    0  0.00000000000E+00  0.00000000000E+00  0.45593999997E+02  0.45594000000E+02  0.51100000000E-03 0.  1.
         11   -1    0    0    0    0 -0.00000000000E+00 -0.00000000000E+00 -0.45593999997E+02  0.45594000000E+02  0.51100000000E-03 0. -1.
    9900012    2    1    2    0    0 -0.15081342886E+02 -0.31018270491E+02 -0.28974710094E+02  0.46142313941E+02  0.99999651636E+01 0.  0.
        -12    1    1    2    0    0  0.15081342886E+02  0.31018270491E+02  0.28974710094E+02  0.45045686059E+02  0.00000000000E+00 0.  1.
         11    1    3    3    0    0 -0.38292245521E+01 -0.10739407795E+02 -0.10772966778E+02  0.15686129348E+02  0.51100000000E-03 0. -1.
        -11    1    3    3    0    0  0.25853101706E+00 -0.46981491276E+01 -0.57420500207E+01  0.74236501947E+01  0.51100000000E-03 0.  1.
        -12    1    3    3    0    0 -0.11510649351E+02 -0.15580713568E+02 -0.12459693295E+02  0.23032534398E+02  0.00000000000E+00 0.  1.
</event>
<event>
 7    1  0.3919732E-008  0.4614232E+02  0.7816164E-02  0.1320468E+00
        -11   -1    0    0    0    0  0.00000000000E+00  0.00000000000E+00  0.45593999997E+02  0.45594000000E+02  0.51100000000E-03 0.  1.
         11   -1    0    0    0    0 -0.00000000000E+00 -0.00000000000E+00 -0.45593999997E+02  0.45594000000E+02  0.51100000000E-03 0. -1.
    9900012    2    1    2    0    0 -0.13853911524E+01 -0.44507035281E+02  0.68057311561E+01  0.46142317912E+02  0.10000001377E+02 0.  0.
        -12    1    1    2    0    0  0.13853911524E+01  0.44507035281E+02 -0.68057311561E+01  0.45045682088E+02  0.00000000000E+00 0.  1.
         11    1    3    3    0    0 -0.12229927471E+01 -0.62607600848E+01  0.30125902302E+01  0.70546813007E+01  0.51100000000E-03 0. -1.
        -11    1    3    3    0    0  0.28887442470E+01 -0.11808843779E+02 -0.30593919020E+00  0.12160889514E+02  0.51100000000E-03 0.  1.
         12    1    3    3    0    0 -0.30511426523E+01 -0.26437431418E+02  0.40990801162E+01  0.26926747098E+02  0.00000000000E+00 0. -1.
</event>
<event>
 7    1  0.4395215E-008  0.4614232E+02  0.7816164E-02  0.1320468E+00
        -11   -1    0    0    0    0  0.00000000000E+00  0.00000000000E+00  0.45593999997E+02  0.45594000000E+02  0.51100000000E-03 0. -1.
         11   -1    0    0    0    0 -0.00000000000E+00 -0.00000000000E+00 -0.45593999997E+02  0.45594000000E+02  0.51100000000E-03 0.  1.
    9900012    2    1    2    0    0 -0.38622100398E+02 -0.11680506981E+01  0.23153456819E+02  0.46142317141E+02  0.99999943451E+01 0.  0.
        -12    1    1    2    0    0  0.38622100398E+02  0.11680506981E+01 -0.23153456819E+02  0.45045682859E+02  0.00000000000E+00 0.  1.
         11    1    3    3    0    0 -0.19866274035E+02 -0.13047616527E+01  0.13581520077E+02  0.24100392836E+02  0.51100000000E-03 0.  1.
        -11    1    3    3    0    0 -0.21653107178E+01 -0.13565000656E+01  0.34540444937E+01  0.42964039100E+01  0.51100000000E-03 0. -1.
        -12    1    3    3    0    0 -0.16590515645E+02  0.14932110202E+01  0.61178922486E+01  0.17745520394E+02  0.00000000000E+00 0.  1.
</event>
<event>
 7    1  0.3919732E-008  0.4614232E+02  0.7816164E-02  0.1320468E+00
        -11   -1    0    0    0    0  0.00000000000E+00  0.00000000000E+00  0.45593999997E+02  0.45594000000E+02  0.51100000000E-03 0.  1.
         11   -1    0    0    0    0 -0.00000000000E+00 -0.00000000000E+00 -0.45593999997E+02  0.45594000000E+02  0.51100000000E-03 0. -1.
    9900012    2    1    2    0    0  0.43261942802E+02  0.10154953711E+02 -0.73752728218E+01  0.46142318419E+02  0.10000006001E+02 0.  0.
        -12    1    1    2    0    0 -0.43261942802E+02 -0.10154953711E+02  0.73752728218E+01  0.45045681581E+02  0.00000000000E+00 0.  1.
         11    1    3    3    0    0  0.19999600400E+01  0.23239827228E+01 -0.13044765671E+01  0.33320256951E+01  0.51100000000E-03 0. -1.
        -11    1    3    3    0    0  0.22643974571E+02  0.59571741490E+01 -0.10577364884E+01  0.23438351370E+02  0.51100000000E-03 0.  1.
        -12    1    3    3    0    0  0.18618008191E+02  0.18737968393E+01 -0.50130597663E+01  0.19371941354E+02  0.00000000000E+00 0.  1.
</event>
<event>
 7    1  0.3919732E-008  0.4614232E+02  0.7816164E-02  0.1320468E+00
        -11   -1    0    0    0    0  0.00000000000E+00  0.00000000000E+00  0.45593999997E+02  0.45594000000E+02  0.51100000000E-03 0.  1.
         11   -1    0    0    0    0 -0.00000000000E+00 -0.00000000000E+00 -0.45593999997E+02  0.45594000000E+02  0.51100000000E-03 0. -1.
    9900012    2    1    2    0    0 -0.88019561599E+01  0.13648794756E+02 -0.42016062818E+02  0.46142316907E+02  0.99999922149E+01 0.  0.
        -12    1    1    2    0    0  0.88019561599E+01 -0.13648794756E+02  0.42016062818E+02  0.45045683093E+02  0.00000000000E+00 0.  1.
         11    1    3    3    0    0 -0.21812332465E+01  0.62871298360E+01 -0.24808663547E+02  0.25685707452E+02  0.51100000000E-03 0. -1.
        -11    1    3    3    0    0 -0.62815983692E+01  0.76532590893E+01 -0.17359191063E+02  0.19984303025E+02  0.51100000000E-03 0.  1.
        -12    1    3    3    0    0 -0.33912454422E+00 -0.29159416968E+00  0.15179179190E+00  0.47230643058E+00  0.00000000000E+00 0.  1.
</event>
<event>
 7    1  0.3919732E-008  0.4614232E+02  0.7816164E-02  0.1320468E+00
        -11   -1    0    0    0    0  0.00000000000E+00  0.00000000000E+00  0.45593999997E+02  0.45594000000E+02  0.51100000000E-03 0. -1.
         11   -1    0    0    0    0 -0.00000000000E+00 -0.00000000000E+00 -0.45593999997E+02  0.45594000000E+02  0.51100000000E-03 0.  1.
    9900012    2    1    2    0    0  0.25050187371E+02 -0.21108425564E+02  0.30919831084E+02  0.46142317950E+02  0.10000001718E+02 0.  0.
        -12    1    1    2    0    0 -0.25050187371E+02  0.21108425564E+02 -0.30919831084E+02  0.45045682050E+02  0.00000000000E+00 0.  1.
         11    1    3    3    0    0  0.13334063308E+01  0.34511344786E+00  0.24565346708E+00  0.13990788476E+01  0.51100000000E-03 0.  1.
        -11    1    3    3    0    0  0.30223007722E+01 -0.10698232432E+01  0.13843752603E+01  0.34921796706E+01  0.51100000000E-03 0. -1.
         12    1    3    3    0    0  0.20694480268E+02 -0.20383715768E+02  0.29289802357E+02  0.41251059431E+02  0.00000000000E+00 0. -1.
</event>
<event>
 7    1  0.3919732E-008  0.4614232E+02  0.7816164E-02  0.1320468E+00
        -11   -1    0    0    0    0  0.00000000000E+00  0.00000000000E+00  0.45593999997E+02  0.45594000000E+02  0.51100000000E-03 0.  1.
         11   -1    0    0    0    0 -0.00000000000E+00 -0.00000000000E+00 -0.45593999997E+02  0.45594000000E+02  0.51100000000E-03 0. -1.
    9900012    2    1    2    0    0  0.24090782608E+02  0.35108438397E+02 -0.14701877195E+02  0.46142318227E+02  0.10000004249E+02 0.  0.
        -12    1    1    2    0    0 -0.24090782608E+02 -0.35108438397E+02  0.14701877195E+02  0.45045681773E+02  0.00000000000E+00 0.  1.
         11    1    3    3    0    0  0.65299620083E+00  0.11602930316E+01  0.70305746406E+00  0.15056473745E+01  0.51100000000E-03 0. -1.
        -11    1    3    3    0    0  0.70873499895E+01  0.15129256689E+02 -0.37774514308E+01  0.17128750025E+02  0.51100000000E-03 0.  1.
         12    1    3    3    0    0  0.16350436417E+02  0.18818888677E+02 -0.11627483228E+02  0.27507920828E+02  0.00000000000E+00 0. -1.
</event>
<event>
 7    1  0.3919732E-008  0.4614232E+02  0.7816164E-02  0.1320468E+00
        -11   -1    0    0    0    0  0.00000000000E+00  0.00000000000E+00  0.45593999997E+02  0.45594000000E+02  0.51100000000E-03 0.  1.
         11   -1    0    0    0    0 -0.00000000000E+00 -0.00000000000E+00 -0.45593999997E+02  0.45594000000E+02  0.51100000000E-03 0. -1.
    9900012    2    1    2    0    0  0.21927016798E+01  0.10093543449E+02 -0.43845477585E+02  0.46142318024E+02  0.10000002401E+02 0.  0.
        -12    1    1    2    0    0 -0.21927016798E+01 -0.10093543449E+02  0.43845477585E+02  0.45045681976E+02  0.00000000000E+00 0.  1.
         11    1    3    3    0    0  0.35434057510E+01  0.23221847725E+01 -0.14796723571E+02  0.15391273343E+02  0.51100000000E-03 0. -1.
        -11    1    3    3    0    0  0.10187365867E+01  0.23713856493E+01 -0.26403236852E+01  0.36922355768E+01  0.51100000000E-03 0.  1.
        -12    1    3    3    0    0 -0.23694406578E+01  0.53999730270E+01 -0.26408430329E+02  0.27058809104E+02  0.00000000000E+00 0.  1.
</event>
<event>
 7    1  0.3919732E-008  0.4614232E+02  0.7816164E-02  0.1320468E+00
        -11   -1    0    0    0    0  0.00000000000E+00  0.00000000000E+00  0.45593999997E+02  0.45594000000E+02  0.51100000000E-03 0.  1.
         11   -1    0    0    0    0 -0.00000000000E+00 -0.00000000000E+00 -0.45593999997E+02  0.45594000000E+02  0.51100000000E-03 0. -1.
    9900012    2    1    2    0    0 -0.80113811827E+01  0.33286243013E+02 -0.29273834717E+02  0.46142316507E+02  0.99999885619E+01 0.  0.
        -12    1    1    2    0    0  0.80113811827E+01 -0.33286243013E+02  0.29273834717E+02  0.45045683493E+02  0.00000000000E+00 0.  1.
         11    1    3    3    0    0  0.11671870904E-01  0.13570249953E+02 -0.89998094445E+01  0.16283377731E+02  0.51100000000E-03 0. -1.
        -11    1    3    3    0    0 -0.11804231010E+01  0.56301560332E+01 -0.85130211027E+01  0.10274414057E+02  0.51100000000E-03 0.  1.
         12    1    3    3    0    0 -0.68426299526E+01  0.14085837026E+02 -0.11761004170E+02  0.19584524719E+02  0.00000000000E+00 0. -1.
</event>
<event>
 7    1  0.3919732E-008  0.4614232E+02  0.7816164E-02  0.1320468E+00
        -11   -1    0    0    0    0  0.00000000000E+00  0.00000000000E+00  0.45593999997E+02  0.45594000000E+02  0.51100000000E-03 0. -1.
         11   -1    0    0    0    0 -0.00000000000E+00 -0.00000000000E+00 -0.45593999997E+02  0.45594000000E+02  0.51100000000E-03 0.  1.
    9900012    2    1    2    0    0 -0.45767202515E+00  0.90959230378E+01  0.44115392791E+02  0.46142321398E+02  0.10000033162E+02 0.  0.
        -12    1    1    2    0    0  0.45767202515E+00 -0.90959230378E+01 -0.44115392791E+02  0.45045678602E+02  0.00000000000E+00 0.  1.
         11    1    3    3    0    0 -0.30897181832E+00 -0.48837122472E+00  0.12316301921E+01  0.13604716936E+01  0.51100000000E-03 0. -1.
        -11    1    3    3    0    0  0.16537950244E+01  0.96695891654E+00  0.13963648789E+01  0.23706291707E+01  0.51100000000E-03 0.  1.
         12    1    3    3    0    0 -0.18024952312E+01  0.86173353460E+01  0.41487397720E+02  0.42411220533E+02  0.00000000000E+00 0. -1.
</event>
<event>
 7    1  0.3919732E-008  0.4614232E+02  0.7816164E-02  0.1320468E+00
        -11   -1    0    0    0    0  0.00000000000E+00  0.00000000000E+00  0.45593999997E+02  0.45594000000E+02  0.51100000000E-03 0.  1.
         11   -1    0    0    0    0 -0.00000000000E+00 -0.00000000000E+00 -0.45593999997E+02  0.45594000000E+02  0.51100000000E-03 0. -1.
    9900012    2    1    2    0    0 -0.21542275568E+02 -0.32056957724E+02 -0.23181786277E+02  0.46142318851E+02  0.10000009940E+02 0.  0.
        -12    1    1    2    0    0  0.21542275568E+02  0.32056957724E+02  0.23181786277E+02  0.45045681149E+02  0.00000000000E+00 0.  1.
         11    1    3    3    0    0 -0.86161756699E+01 -0.12365342543E+02 -0.10754305688E+02  0.18514731174E+02  0.51100000000E-03 0. -1.
        -11    1    3    3    0    0 -0.12131510931E+02 -0.18744111733E+02 -0.91590214605E+01  0.24133026261E+02  0.51100000000E-03 0.  1.
         12    1    3    3    0    0 -0.79458896682E+00 -0.94750344786E+00 -0.32684591290E+01  0.34945614157E+01  0.00000000000E+00 0. -1.
</event>
<event>
 7    1  0.3919732E-008  0.4614232E+02  0.7816164E-02  0.1320468E+00
        -11   -1    0    0    0    0  0.00000000000E+00  0.00000000000E+00  0.45593999997E+02  0.45594000000E+02  0.51100000000E-03 0.  1.
         11   -1    0    0    0    0 -0.00000000000E+00 -0.00000000000E+00 -0.45593999997E+02  0.45594000000E+02  0.51100000000E-03 0. -1.
    9900012    2    1    2    0    0 -0.24633565292E+02  0.49896916179E+01 -0.37381866514E+02  0.46142317571E+02  0.99999982636E+01 0.  0.
        -12    1    1    2    0    0  0.24633565292E+02 -0.49896916179E+01  0.37381866514E+02  0.45045682429E+02  0.00000000000E+00 0.  1.
         11    1    3    3    0    0 -0.80931806770E+01  0.22104900916E+01 -0.17421720600E+02  0.19336550593E+02  0.51100000000E-03 0. -1.
        -11    1    3    3    0    0 -0.60177494020E+01  0.36455357721E+01 -0.56581978738E+01  0.90287564133E+01  0.51100000000E-03 0.  1.
        -12    1    3    3    0    0 -0.10522635213E+02 -0.86633424577E+00 -0.14301948041E+02  0.17777010565E+02  0.00000000000E+00 0.  1.
</event>
<event>
 7    1  0.4200542E-008  0.4614232E+02  0.7816164E-02  0.1320468E+00
        -11   -1    0    0    0    0  0.00000000000E+00  0.00000000000E+00  0.45593999997E+02  0.45594000000E+02  0.51100000000E-03 0. -1.
         11   -1    0    0    0    0 -0.00000000000E+00 -0.00000000000E+00 -0.45593999997E+02  0.45594000000E+02  0.51100000000E-03 0.  1.
    9900012    2    1    2    0    0 -0.20519583046E+02 -0.39031835649E+02 -0.91965194739E+01  0.46142318154E+02  0.10000003584E+02 0.  0.
        -12    1    1    2    0    0  0.20519583046E+02  0.39031835649E+02  0.91965194739E+01  0.45045681846E+02  0.00000000000E+00 0.  1.
         11    1    3    3    0    0 -0.11458845121E+02 -0.17412951661E+02 -0.43375489125E+01  0.21291555788E+02  0.51100000000E-03 0. -1.
        -11    1    3    3    0    0 -0.97403799194E+01 -0.21561056874E+02 -0.45121261102E+01  0.24085544561E+02  0.51100000000E-03 0.  1.
        -12    1    3    3    0    0  0.67964199478E+00 -0.57827114787E-01 -0.34684445118E+00  0.76521780533E+00  0.00000000000E+00 0.  1.
</event>
<event>
 7    1  0.3919732E-008  0.4614232E+02  0.7816164E-02  0.1320468E+00
        -11   -1    0    0    0    0  0.00000000000E+00  0.00000000000E+00  0.45593999997E+02  0.45594000000E+02  0.51100000000E-03 0. -1.
         11   -1    0    0    0    0 -0.00000000000E+00 -0.00000000000E+00 -0.45593999997E+02  0.45594000000E+02  0.51100000000E-03 0.  1.
    9900012    2    1    2    0    0  0.41915000104E+02 -0.12800487225E+02  0.10411234830E+02  0.46142317437E+02  0.99999970434E+01 0.  0.
        -12    1    1    2    0    0 -0.41915000104E+02  0.12800487225E+02 -0.10411234830E+02  0.45045682563E+02  0.00000000000E+00 0.  1.
         11    1    3    3    0    0  0.27659555895E+02 -0.71284672360E+01  0.90268439410E+01  0.29955800594E+02  0.51100000000E-03 0. -1.
        -11    1    3    3    0    0  0.34911104674E+01  0.75102139034E+00  0.65300554816E+00  0.36301930984E+01  0.51100000000E-03 0.  1.
        -12    1    3    3    0    0  0.10764333742E+02 -0.64230413794E+01  0.73138534075E+00  0.12556323745E+02  0.00000000000E+00 0.  1.
</event>
<event>
 7    1  0.3919732E-008  0.4614232E+02  0.7816164E-02  0.1320468E+00
        -11   -1    0    0    0    0  0.00000000000E+00  0.00000000000E+00  0.45593999997E+02  0.45594000000E+02  0.51100000000E-03 0. -1.
         11   -1    0    0    0    0 -0.00000000000E+00 -0.00000000000E+00 -0.45593999997E+02  0.45594000000E+02  0.51100000000E-03 0.  1.
    9900012    2    1    2    0    0 -0.27420495497E+02  0.16608161380E+02  0.31644886630E+02  0.46142318214E+02  0.10000004134E+02 0.  0.
        -12    1    1    2    0    0  0.27420495497E+02 -0.16608161380E+02 -0.31644886630E+02  0.45045681786E+02  0.00000000000E+00 0.  1.
         11    1    3    3    0    0 -0.42949906491E+01  0.38872831744E+01  0.25071665015E+01  0.63121944902E+01  0.51100000000E-03 0. -1.
        -11    1    3    3    0    0 -0.10941714379E+02  0.87490634657E+01  0.18300419355E+02  0.23047181474E+02  0.51100000000E-03 0.  1.
         12    1    3    3    0    0 -0.12183790469E+02  0.39718147400E+01  0.10837300773E+02  0.16782942250E+02  0.00000000000E+00 0. -1.
</event>
<event>
 7    1  0.3919732E-008  0.4614232E+02  0.7816164E-02  0.1320468E+00
        -11   -1    0    0    0    0  0.00000000000E+00  0.00000000000E+00  0.45593999997E+02  0.45594000000E+02  0.51100000000E-03 0. -1.
         11   -1    0    0    0    0 -0.00000000000E+00 -0.00000000000E+00 -0.45593999997E+02  0.45594000000E+02  0.51100000000E-03 0.  1.
    9900012    2    1    2    0    0  0.48999108043E+01  0.28642537542E+02  0.34419606086E+02  0.46142319121E+02  0.10000012404E+02 0.  0.
        -12    1    1    2    0    0 -0.48999108043E+01 -0.28642537542E+02 -0.34419606086E+02  0.45045680879E+02  0.00000000000E+00 0.  1.
         11    1    3    3    0    0  0.10424742506E+01 -0.49598188586E+00  0.51004242339E+00  0.12620990963E+01  0.51100000000E-03 0.  1.
        -11    1    3    3    0    0  0.18964187152E+01  0.16266808576E+02  0.19211528412E+02  0.25244569503E+02  0.51100000000E-03 0. -1.
        -12    1    3    3    0    0  0.19610178385E+01  0.12871710851E+02  0.14698035251E+02  0.19635650522E+02  0.00000000000E+00 0.  1.
</event>
<event>
 7    1  0.3919732E-008  0.4614232E+02  0.7816164E-02  0.1320468E+00
        -11   -1    0    0    0    0  0.00000000000E+00  0.00000000000E+00  0.45593999997E+02  0.45594000000E+02  0.51100000000E-03 0.  1.
         11   -1    0    0    0    0 -0.00000000000E+00 -0.00000000000E+00 -0.45593999997E+02  0.45594000000E+02  0.51100000000E-03 0. -1.
    9900012    2    1    2    0    0  0.35047241648E+02  0.23123500426E+02 -0.16312816881E+02  0.46142318590E+02  0.10000007557E+02 0.  0.
        -12    1    1    2    0    0 -0.35047241648E+02 -0.23123500426E+02  0.16312816881E+02  0.45045681410E+02  0.00000000000E+00 0.  1.
         11    1    3    3    0    0  0.24077489595E+02  0.15616732180E+02 -0.14143639069E+02  0.31994536339E+02  0.51100000000E-03 0. -1.
        -11    1    3    3    0    0  0.10049860802E+02  0.49007460534E+01 -0.13320655834E+01  0.11260169315E+02  0.51100000000E-03 0.  1.
        -12    1    3    3    0    0  0.91989125128E+00  0.26060221932E+01 -0.83711222864E+00  0.28876129361E+01  0.00000000000E+00 0.  1.
</event>
<event>
 7    1  0.3919732E-008  0.4614232E+02  0.7816164E-02  0.1320468E+00
        -11   -1    0    0    0    0  0.00000000000E+00  0.00000000000E+00  0.45593999997E+02  0.45594000000E+02  0.51100000000E-03 0.  1.
         11   -1    0    0    0    0 -0.00000000000E+00 -0.00000000000E+00 -0.45593999997E+02  0.45594000000E+02  0.51100000000E-03 0. -1.
    9900012    2    1    2    0    0 -0.30347919244E+02  0.22466451677E+02 -0.24563710431E+02  0.46142317371E+02  0.99999964390E+01 0.  0.
        -12    1    1    2    0    0  0.30347919244E+02 -0.22466451677E+02  0.24563710431E+02  0.45045682629E+02  0.00000000000E+00 0.  1.
         11    1    3    3    0    0  0.22196410203E+00  0.66625600726E+00 -0.29896372383E+00  0.76324615891E+00  0.51100000000E-03 0. -1.
        -11    1    3    3    0    0 -0.14437898676E+02  0.68779261253E+01 -0.71147016011E+01  0.17503650051E+02  0.51100000000E-03 0.  1.
         12    1    3    3    0    0 -0.16131984670E+02  0.14922269544E+02 -0.17150045106E+02  0.27875421161E+02  0.00000000000E+00 0. -1.
</event>
<event>
 7    1  0.3919732E-008  0.4614232E+02  0.7816164E-02  0.1320468E+00
        -11   -1    0    0    0    0  0.00000000000E+00  0.00000000000E+00  0.45593999997E+02  0.45594000000E+02  0.51100000000E-03 0. -1.
         11   -1    0    0    0    0 -0.00000000000E+00 -0.00000000000E+00 -0.45593999997E+02  0.45594000000E+02  0.51100000000E-03 0.  1.
    9900012    2    1    2    0    0 -0.19665305565E+02  0.37274670992E+02  0.15905602958E+02  0.46142317122E+02  0.99999941722E+01 0.  0.
        -12    1    1    2    0    0  0.19665305565E+02 -0.37274670992E+02 -0.15905602958E+02  0.45045682878E+02  0.00000000000E+00 0.  1.
         11    1    3    3    0    0 -0.67215368200E+01  0.15645211335E+02  0.59551183132E+01  0.18039266319E+02  0.51100000000E-03 0. -1.
        -11    1    3    3    0    0 -0.70225938053E+01  0.14777065252E+02  0.28773471308E+01  0.16611971828E+02  0.51100000000E-03 0.  1.
         12    1    3    3    0    0 -0.59211749395E+01  0.68523944045E+01  0.70731375136E+01  0.11491078976E+02  0.00000000000E+00 0. -1.
</event>
<event>
 7    1  0.3919732E-008  0.4614232E+02  0.7816164E-02  0.1320468E+00
        -11   -1    0    0    0    0  0.00000000000E+00  0.00000000000E+00  0.45593999997E+02  0.45594000000E+02  0.51100000000E-03 0.  1.
         11   -1    0    0    0    0 -0.00000000000E+00 -0.00000000000E+00 -0.45593999997E+02  0.45594000000E+02  0.51100000000E-03 0. -1.
    9900012    2    1    2    0    0 -0.22449442092E+02 -0.26665134130E+02 -0.28532552822E+02  0.46142318753E+02  0.10000009048E+02 0.  0.
        -12    1    1    2    0    0  0.22449442092E+02  0.26665134130E+02  0.28532552822E+02  0.45045681247E+02  0.00000000000E+00 0.  1.
         11    1    3    3    0    0 -0.60792677120E+01 -0.10497873584E+02 -0.95393479170E+01  0.15432498328E+02  0.51100000000E-03 0. -1.
        -11    1    3    3    0    0  0.80548345707E-01  0.59779228425E+00 -0.22335805410E+00  0.64322059401E+00  0.51100000000E-03 0.  1.
        -12    1    3    3    0    0 -0.16450722726E+02 -0.16765052831E+02 -0.18769846850E+02  0.30066599831E+02  0.00000000000E+00 0.  1.
</event>
<event>
 7    1  0.3919732E-008  0.4614232E+02  0.7816164E-02  0.1320468E+00
        -11   -1    0    0    0    0  0.00000000000E+00  0.00000000000E+00  0.45593999997E+02  0.45594000000E+02  0.51100000000E-03 0.  1.
         11   -1    0    0    0    0 -0.00000000000E+00 -0.00000000000E+00 -0.45593999997E+02  0.45594000000E+02  0.51100000000E-03 0. -1.
    9900012    2    1    2    0    0 -0.15231524009E+01 -0.39725166063E+02 -0.21182650891E+02  0.46142317512E+02  0.99999977323E+01 0.  0.
        -12    1    1    2    0    0  0.15231524009E+01  0.39725166063E+02  0.21182650891E+02  0.45045682488E+02  0.00000000000E+00 0.  1.
         11    1    3    3    0    0  0.11816164310E+01 -0.95490243201E+01 -0.52841313255E+01  0.10977346081E+02  0.51100000000E-03 0. -1.
        -11    1    3    3    0    0 -0.31304663074E+01 -0.36006407642E+01 -0.28244613687E+01  0.55445482683E+01  0.51100000000E-03 0.  1.
        -12    1    3    3    0    0  0.42569747553E+00 -0.26575500979E+02 -0.13074058197E+02  0.29620423163E+02  0.00000000000E+00 0.  1.
</event>
<event>
 7    1  0.3919732E-008  0.4614232E+02  0.7816164E-02  0.1320468E+00
        -11   -1    0    0    0    0  0.00000000000E+00  0.00000000000E+00  0.45593999997E+02  0.45594000000E+02  0.51100000000E-03 0.  1.
         11   -1    0    0    0    0 -0.00000000000E+00 -0.00000000000E+00 -0.45593999997E+02  0.45594000000E+02  0.51100000000E-03 0. -1.
    9900012    2    1    2    0    0 -0.34509450432E+02  0.70031173772E+01 -0.28092125203E+02  0.46142319624E+02  0.10000016987E+02 0.  0.
        -12    1    1    2    0    0  0.34509450432E+02 -0.70031173772E+01  0.28092125203E+02  0.45045680376E+02  0.00000000000E+00 0.  1.
         11    1    3    3    0    0 -0.85980479473E+01 -0.59944375746E+00 -0.71144923864E+01  0.11175945754E+02  0.51100000000E-03 0. -1.
        -11    1    3    3    0    0 -0.10811058492E+02  0.83147551164E+00 -0.49185461389E+01  0.11906403052E+02  0.51100000000E-03 0.  1.
         12    1    3    3    0    0 -0.15100343992E+02  0.67710856231E+01 -0.16059086678E+02  0.23059970818E+02  0.00000000000E+00 0. -1.
</event>
<event>
 7    1  0.3919732E-008  0.4614231E+02  0.7816164E-02  0.1320468E+00
        -11   -1    0    0    0    0  0.00000000000E+00  0.00000000000E+00  0.45593999997E+02  0.45594000000E+02  0.51100000000E-03 0.  1.
         11   -1    0    0    0    0 -0.00000000000E+00 -0.00000000000E+00 -0.45593999997E+02  0.45594000000E+02  0.51100000000E-03 0. -1.
    9900012    2    1    2    0    0  0.22023541779E+02  0.31975088378E+02 -0.22840120159E+02  0.46142314767E+02  0.99999726976E+01 0.  0.
        -12    1    1    2    0    0 -0.22023541779E+02 -0.31975088378E+02  0.22840120159E+02  0.45045685233E+02  0.00000000000E+00 0.  1.
         11    1    3    3    0    0  0.39026648916E+01  0.42628802193E+01 -0.67393845797E-01  0.57799206926E+01  0.51100000000E-03 0. -1.
        -11    1    3    3    0    0  0.59779054474E+01  0.93829780931E+01 -0.98499576732E+01  0.14859249573E+02  0.51100000000E-03 0.  1.
         12    1    3    3    0    0  0.12142971440E+02  0.18329230065E+02 -0.12922768640E+02  0.25503144502E+02  0.00000000000E+00 0. -1.
</event>
<event>
 7    1  0.3919732E-008  0.4614232E+02  0.7816164E-02  0.1320468E+00
        -11   -1    0    0    0    0  0.00000000000E+00  0.00000000000E+00  0.45593999997E+02  0.45594000000E+02  0.51100000000E-03 0. -1.
         11   -1    0    0    0    0 -0.00000000000E+00 -0.00000000000E+00 -0.45593999997E+02  0.45594000000E+02  0.51100000000E-03 0.  1.
    9900012    2    1    2    0    0  0.25738968782E+02 -0.34224589421E+02 -0.13974841952E+02  0.46142320490E+02  0.10000024883E+02 0.  0.
        -12    1    1    2    0    0 -0.25738968782E+02  0.34224589421E+02  0.13974841952E+02  0.45045679510E+02  0.00000000000E+00 0.  1.
         11    1    3    3    0    0  0.25146095910E+01 -0.12689913824E+01 -0.83367276337E+00  0.29374497547E+01  0.51100000000E-03 0. -1.
        -11    1    3    3    0    0  0.98848101149E+01 -0.76003108296E+01 -0.31281710503E+01  0.12855335472E+02  0.51100000000E-03 0.  1.
         12    1    3    3    0    0  0.13339549076E+02 -0.25355287209E+02 -0.10012998138E+02  0.30349535263E+02  0.00000000000E+00 0. -1.
</event>
<event>
 7    1  0.5127323E-008  0.4614232E+02  0.7816164E-02  0.1320468E+00
        -11   -1    0    0    0    0  0.00000000000E+00  0.00000000000E+00  0.45593999997E+02  0.45594000000E+02  0.51100000000E-03 0. -1.
         11   -1    0    0    0    0 -0.00000000000E+00 -0.00000000000E+00 -0.45593999997E+02  0.45594000000E+02  0.51100000000E-03 0.  1.
    9900012    2    1    2    0    0  0.41153890175E+02 -0.11843712890E+02  0.13971305417E+02  0.46142316671E+02  0.99999900577E+01 0.  0.
        -12    1    1    2    0    0 -0.41153890175E+02  0.11843712890E+02 -0.13971305417E+02  0.45045683329E+02  0.00000000000E+00 0.  1.
         11    1    3    3    0    0  0.28439424596E+02 -0.91226132023E+01  0.11881396003E+02  0.32143281013E+02  0.51100000000E-03 0. -1.
        -11    1    3    3    0    0  0.58195515515E+01 -0.18211591556E+01  0.33117148907E+01  0.69391106569E+01  0.51100000000E-03 0.  1.
        -12    1    3    3    0    0  0.68949140268E+01 -0.89994053249E+00 -0.12218054770E+01  0.70599250012E+01  0.00000000000E+00 0.  1.
</event>
<event>
 7    1  0.3919732E-008  0.4614232E+02  0.7816164E-02  0.1320468E+00
        -11   -1    0    0    0    0  0.00000000000E+00  0.00000000000E+00  0.45593999997E+02  0.45594000000E+02  0.51100000000E-03 0.  1.
         11   -1    0    0    0    0 -0.00000000000E+00 -0.00000000000E+00 -0.45593999997E+02  0.45594000000E+02  0.51100000000E-03 0. -1.
    9900012    2    1    2    0    0 -0.27487142002E+02 -0.26861484953E+02 -0.23495345153E+02  0.46142316598E+02  0.99999893917E+01 0.  0.
        -12    1    1    2    0    0  0.27487142002E+02  0.26861484953E+02  0.23495345153E+02  0.45045683402E+02  0.00000000000E+00 0.  1.
         11    1    3    3    0    0 -0.60041864140E+00 -0.21810769750E+01 -0.21271470683E+01  0.31052140388E+01  0.51100000000E-03 0. -1.
        -11    1    3    3    0    0 -0.44892415455E+01 -0.80909788371E+01 -0.33140385169E+01  0.98285339573E+01  0.51100000000E-03 0.  1.
         12    1    3    3    0    0 -0.22397481815E+02 -0.16589429141E+02 -0.18054159568E+02  0.33208568602E+02  0.00000000000E+00 0. -1.
</event>
<event>
 7    1  0.3919732E-008  0.4614232E+02  0.7816164E-02  0.1320468E+00
        -11   -1    0    0    0    0  0.00000000000E+00  0.00000000000E+00  0.45593999997E+02  0.45594000000E+02  0.51100000000E-03 0.  1.
         11   -1    0    0    0    0 -0.00000000000E+00 -0.00000000000E+00 -0.45593999997E+02  0.45594000000E+02  0.51100000000E-03 0. -1.
    9900012    2    1    2    0    0 -0.10189963448E+02  0.43233931565E+02 -0.74903400475E+01  0.46142318879E+02  0.10000010194E+02 0.  0.
        -12    1    1    2    0    0  0.10189963448E+02 -0.43233931565E+02  0.74903400475E+01  0.45045681121E+02  0.00000000000E+00 0.  1.
         11    1    3    3    0    0 -0.77417577951E+01  0.20750427223E+02 -0.46868942363E+01  0.22638065764E+02  0.51100000000E-03 0. -1.
        -11    1    3    3    0    0 -0.24564175408E+01  0.21621006680E+02 -0.13347338779E+01  0.21800996118E+02  0.51100000000E-03 0.  1.
        -12    1    3    3    0    0  0.82118879803E-02  0.86249766227E+00 -0.14687119333E+01  0.17032569963E+01  0.00000000000E+00 0.  1.
</event>
<event>
 7    1  0.3919732E-008  0.4614232E+02  0.7816164E-02  0.1320468E+00
        -11   -1    0    0    0    0  0.00000000000E+00  0.00000000000E+00  0.45593999997E+02  0.45594000000E+02  0.51100000000E-03 0. -1.
         11   -1    0    0    0    0 -0.00000000000E+00 -0.00000000000E+00 -0.45593999997E+02  0.45594000000E+02  0.51100000000E-03 0.  1.
    9900012    2    1    2    0    0 -0.13119381133E+02 -0.40113480764E+02 -0.15744966904E+02  0.46142317819E+02  0.10000000529E+02 0.  0.
        -12    1    1    2    0    0  0.13119381133E+02  0.40113480764E+02  0.15744966904E+02  0.45045682181E+02  0.00000000000E+00 0.  1.
         11    1    3    3    0    0 -0.13348812230E+01 -0.57270213340E+01 -0.50417350587E+01  0.77459520979E+01  0.51100000000E-03 0. -1.
        -11    1    3    3    0    0 -0.12067495750E+02 -0.29066621873E+02 -0.82755853035E+01  0.32541946364E+02  0.51100000000E-03 0.  1.
        -12    1    3    3    0    0  0.28299583917E+00 -0.53198375567E+01 -0.24276465418E+01  0.58544193569E+01  0.00000000000E+00 0.  1.
</event>
<event>
 7    1  0.3919732E-008  0.4614232E+02  0.7816164E-02  0.1320468E+00
        -11   -1    0    0    0    0  0.00000000000E+00  0.00000000000E+00  0.45593999997E+02  0.45594000000E+02  0.51100000000E-03 0. -1.
         11   -1    0    0    0    0 -0.00000000000E+00 -0.00000000000E+00 -0.45593999997E+02  0.45594000000E+02  0.51100000000E-03 0.  1.
    9900012    2    1    2    0    0 -0.22224879723E+02  0.34002711119E+02  0.19467509565E+02  0.46142316846E+02  0.99999916581E+01 0.  0.
        -12    1    1    2    0    0  0.22224879723E+02 -0.34002711119E+02 -0.19467509565E+02  0.45045683154E+02  0.00000000000E+00 0.  1.
         11    1    3    3    0    0 -0.34885908515E+01  0.36529540027E+01  0.13201800835E+01  0.52208442602E+01  0.51100000000E-03 0. -1.
        -11    1    3    3    0    0 -0.51768301416E+01  0.67021418154E+01  0.85178890473E+01  0.12011357513E+02  0.51100000000E-03 0.  1.
        -12    1    3    3    0    0 -0.13559458729E+02  0.23647615301E+02  0.96294404346E+01  0.28910115073E+02  0.00000000000E+00 0.  1.
</event>
<event>
 7    1  0.4688125E-008  0.4614232E+02  0.7816164E-02  0.1320468E+00
        -11   -1    0    0    0    0  0.00000000000E+00  0.00000000000E+00  0.45593999997E+02  0.45594000000E+02  0.51100000000E-03 0.  1.
         11   -1    0    0    0    0 -0.00000000000E+00 -0.00000000000E+00 -0.45593999997E+02  0.45594000000E+02  0.51100000000E-03 0. -1.
    9900012    2    1    2    0    0 -0.41344457769E+02 -0.59198239067E+01 -0.16873203602E+02  0.46142317598E+02  0.99999985097E+01 0.  0.
        -12    1    1    2    0    0  0.41344457769E+02  0.59198239067E+01  0.16873203602E+02  0.45045682402E+02  0.00000000000E+00 0.  1.
         11    1    3    3    0    0 -0.16370880629E+02  0.33931659325E+00 -0.78214496811E+01  0.18146513265E+02  0.51100000000E-03 0. -1.
        -11    1    3    3    0    0 -0.43712854631E+01  0.31285171917E+00 -0.36572027584E+01  0.57079895826E+01  0.51100000000E-03 0.  1.
        -12    1    3    3    0    0 -0.20602291677E+02 -0.65719922191E+01 -0.53945511627E+01  0.22287814750E+02  0.00000000000E+00 0.  1.
</event>
<event>
 7    1  0.3919732E-008  0.4614232E+02  0.7816164E-02  0.1320468E+00
        -11   -1    0    0    0    0  0.00000000000E+00  0.00000000000E+00  0.45593999997E+02  0.45594000000E+02  0.51100000000E-03 0.  1.
         11   -1    0    0    0    0 -0.00000000000E+00 -0.00000000000E+00 -0.45593999997E+02  0.45594000000E+02  0.51100000000E-03 0. -1.
    9900012    2    1    2    0    0  0.38646640084E+02 -0.13054005246E+02 -0.19108732175E+02  0.46142317764E+02  0.10000000029E+02 0.  0.
        -12    1    1    2    0    0 -0.38646640084E+02  0.13054005246E+02  0.19108732175E+02  0.45045682236E+02  0.00000000000E+00 0.  1.
         11    1    3    3    0    0  0.12951658677E+02 -0.54709228673E+01 -0.10954285696E+02  0.17823378885E+02  0.51100000000E-03 0. -1.
        -11    1    3    3    0    0  0.15507553814E+01 -0.15440269452E+01 -0.11066776112E+01  0.24522636597E+01  0.51100000000E-03 0.  1.
         12    1    3    3    0    0  0.24144226026E+02 -0.60390554330E+01 -0.70477688681E+01  0.25866675220E+02  0.00000000000E+00 0. -1.
</event>
<event>
 7    1  0.3919732E-008  0.4614232E+02  0.7816164E-02  0.1320468E+00
        -11   -1    0    0    0    0  0.00000000000E+00  0.00000000000E+00  0.45593999997E+02  0.45594000000E+02  0.51100000000E-03 0.  1.
         11   -1    0    0    0    0 -0.00000000000E+00 -0.00000000000E+00 -0.45593999997E+02  0.45594000000E+02  0.51100000000E-03 0. -1.
    9900012    2    1    2    0    0 -0.56609305067E+01  0.38345828781E+02 -0.22949178284E+02  0.46142317599E+02  0.99999985227E+01 0.  0.
        -12    1    1    2    0    0  0.56609305067E+01 -0.38345828781E+02  0.22949178284E+02  0.45045682401E+02  0.00000000000E+00 0.  1.
         11    1    3    3    0    0  0.24723114401E+00  0.35233783755E+01 -0.42831322587E+01  0.55516250434E+01  0.51100000000E-03 0. -1.
        -11    1    3    3    0    0 -0.41535920046E+01  0.20908878070E+02 -0.15090973858E+02  0.26118403491E+02  0.51100000000E-03 0.  1.
        -12    1    3    3    0    0 -0.17545696461E+01  0.13913572335E+02 -0.35750721666E+01  0.14472289064E+02  0.00000000000E+00 0.  1.
</event>
<event>
 7    1  0.3919732E-008  0.4614232E+02  0.7816164E-02  0.1320468E+00
        -11   -1    0    0    0    0  0.00000000000E+00  0.00000000000E+00  0.45593999997E+02  0.45594000000E+02  0.51100000000E-03 0. -1.
         11   -1    0    0    0    0 -0.00000000000E+00 -0.00000000000E+00 -0.45593999997E+02  0.45594000000E+02  0.51100000000E-03 0.  1.
    9900012    2    1    2    0    0  0.42427801949E+02  0.14019773224E+02  0.56956918550E+01  0.46142319573E+02  0.10000016520E+02 0.  0.
        -12    1    1    2    0    0 -0.42427801949E+02 -0.14019773224E+02 -0.56956918550E+01  0.45045680427E+02  0.00000000000E+00 0.  1.
         11    1    3    3    0    0  0.19375238504E+02  0.97539499321E+01  0.62375193070E+01  0.22570911673E+02  0.51100000000E-03 0. -1.
        -11    1    3    3    0    0  0.43897333307E+01  0.12280181662E+00 -0.73918844025E+00  0.44532279093E+01  0.51100000000E-03 0.  1.
         12    1    3    3    0    0  0.18662830114E+02  0.41430214756E+01  0.19736098833E+00  0.19118179991E+02  0.00000000000E+00 0. -1.
</event>
<event>
 7    1  0.3919732E-008  0.4614232E+02  0.7816164E-02  0.1320468E+00
        -11   -1    0    0    0    0  0.00000000000E+00  0.00000000000E+00  0.45593999997E+02  0.45594000000E+02  0.51100000000E-03 0.  1.
         11   -1    0    0    0    0 -0.00000000000E+00 -0.00000000000E+00 -0.45593999997E+02  0.45594000000E+02  0.51100000000E-03 0. -1.
    9900012    2    1    2    0    0 -0.32462397762E+02 -0.21616270445E+02 -0.22539810175E+02  0.46142318085E+02  0.10000002956E+02 0.  0.
        -12    1    1    2    0    0  0.32462397762E+02  0.21616270445E+02  0.22539810175E+02  0.45045681915E+02  0.00000000000E+00 0.  1.
         11    1    3    3    0    0 -0.22546426816E+02 -0.14713184047E+02 -0.12548690912E+02  0.29703346459E+02  0.51100000000E-03 0. -1.
        -11    1    3    3    0    0 -0.57628051435E+01 -0.26110665839E+01 -0.23691846514E+01  0.67557847806E+01  0.51100000000E-03 0.  1.
        -12    1    3    3    0    0 -0.41531658024E+01 -0.42920198144E+01 -0.76219346116E+01  0.96831868459E+01  0.00000000000E+00 0.  1.
</event>
<event>
 7    1  0.3919732E-008  0.4614232E+02  0.7816164E-02  0.1320468E+00
        -11   -1    0    0    0    0  0.00000000000E+00  0.00000000000E+00  0.45593999997E+02  0.45594000000E+02  0.51100000000E-03 0.  1.
         11   -1    0    0    0    0 -0.00000000000E+00 -0.00000000000E+00 -0.45593999997E+02  0.45594000000E+02  0.51100000000E-03 0. -1.
    9900012    2    1    2    0    0 -0.38506098554E+01  0.42661325041E+02 -0.13939062526E+02  0.46142319690E+02  0.10000017586E+02 0.  0.
        -12    1    1    2    0    0  0.38506098554E+01 -0.42661325041E+02  0.13939062526E+02  0.45045680310E+02  0.00000000000E+00 0.  1.
         11    1    3    3    0    0 -0.19356347899E+00  0.18474880040E+01 -0.21290459132E+01  0.28255115478E+01  0.51100000000E-03 0. -1.
        -11    1    3    3    0    0 -0.10294728224E+01  0.41512955749E+00 -0.78123649363E+00  0.13573789307E+01  0.51100000000E-03 0.  1.
        -12    1    3    3    0    0 -0.26275735540E+01  0.40398707480E+02 -0.11028780119E+02  0.41959429211E+02  0.00000000000E+00 0.  1.
</event>
<event>
 7    1  0.3919732E-008  0.4614232E+02  0.7816164E-02  0.1320468E+00
        -11   -1    0    0    0    0  0.00000000000E+00  0.00000000000E+00  0.45593999997E+02  0.45594000000E+02  0.51100000000E-03 0. -1.
         11   -1    0    0    0    0 -0.00000000000E+00 -0.00000000000E+00 -0.45593999997E+02  0.45594000000E+02  0.51100000000E-03 0.  1.
    9900012    2    1    2    0    0 -0.27858527777E+02 -0.35247694948E+02 -0.32581856007E+01  0.46142319380E+02  0.10000014766E+02 0.  0.
        -12    1    1    2    0    0  0.27858527777E+02  0.35247694948E+02  0.32581856007E+01  0.45045680620E+02  0.00000000000E+00 0.  1.
         11    1    3    3    0    0 -0.94361494419E+01 -0.11515684134E+02  0.10943250391E+01  0.14928142715E+02  0.51100000000E-03 0. -1.
        -11    1    3    3    0    0 -0.18145461308E+02 -0.19420864542E+02 -0.40250162701E+01  0.26881750349E+02  0.51100000000E-03 0.  1.
        -12    1    3    3    0    0 -0.27691702786E+00 -0.43111462722E+01 -0.32749436966E+00  0.43324263159E+01  0.00000000000E+00 0.  1.
</event>
<event>
 7    1  0.3919732E-008  0.4614232E+02  0.7816164E-02  0.1320468E+00
        -11   -1    0    0    0    0  0.00000000000E+00  0.00000000000E+00  0.45593999997E+02  0.45594000000E+02  0.51100000000E-03 0.  1.
         11   -1    0    0    0    0 -0.00000000000E+00 -0.00000000000E+00 -0.45593999997E+02  0.45594000000E+02  0.51100000000E-03 0. -1.
    9900012    2    1    2    0    0  0.99683184426E+01 -0.43424336451E+02 -0.66387582121E+01  0.46142317861E+02  0.10000000907E+02 0.  0.
        -12    1    1    2    0    0 -0.99683184426E+01  0.43424336451E+02  0.66387582121E+01  0.45045682139E+02  0.00000000000E+00 0.  1.
         11    1    3    3    0    0  0.41210131395E+01 -0.26010775306E+02 -0.76429886466E+01  0.27421860933E+02  0.51100000000E-03 0. -1.
        -11    1    3    3    0    0  0.47531554210E+01 -0.95193451900E+01 -0.30261301995E+00  0.10644340947E+02  0.51100000000E-03 0.  1.
        -12    1    3    3    0    0  0.10941498821E+01 -0.78942159550E+01  0.13068434545E+01  0.80761159801E+01  0.00000000000E+00 0.  1.
</event>
<event>
 7    1  0.3919732E-008  0.4614232E+02  0.7816164E-02  0.1320468E+00
        -11   -1    0    0    0    0  0.00000000000E+00  0.00000000000E+00  0.45593999997E+02  0.45594000000E+02  0.51100000000E-03 0.  1.
         11   -1    0    0    0    0 -0.00000000000E+00 -0.00000000000E+00 -0.45593999997E+02  0.45594000000E+02  0.51100000000E-03 0. -1.
    9900012    2    1    2    0    0 -0.30847532233E+02  0.47544093599E+01 -0.32479822657E+02  0.46142317265E+02  0.99999954743E+01 0.  0.
        -12    1    1    2    0    0  0.30847532233E+02 -0.47544093599E+01  0.32479822657E+02  0.45045682735E+02  0.00000000000E+00 0.  1.
         11    1    3    3    0    0 -0.24715025080E+02  0.17001228729E+01 -0.29356665625E+02  0.38412715335E+02  0.51100000000E-03 0.  1.
        -11    1    3    3    0    0 -0.46423218874E+01  0.24745518453E+01 -0.31476402925E+01  0.61304322044E+01  0.51100000000E-03 0. -1.
        -12    1    3    3    0    0 -0.14901852657E+01  0.57973464170E+00  0.24483260776E-01  0.15991697255E+01  0.00000000000E+00 0.  1.
</event>
<event>
 7    1  0.3919732E-008  0.4614232E+02  0.7816164E-02  0.1320468E+00
        -11   -1    0    0    0    0  0.00000000000E+00  0.00000000000E+00  0.45593999997E+02  0.45594000000E+02  0.51100000000E-03 0.  1.
         11   -1    0    0    0    0 -0.00000000000E+00 -0.00000000000E+00 -0.45593999997E+02  0.45594000000E+02  0.51100000000E-03 0. -1.
    9900012    2    1    2    0    0  0.28353998135E+02 -0.29369294859E+01 -0.34878916165E+02  0.46142316989E+02  0.99999929626E+01 0.  0.
        -12    1    1    2    0    0 -0.28353998135E+02  0.29369294859E+01  0.34878916165E+02  0.45045683011E+02  0.00000000000E+00 0.  1.
         11    1    3    3    0    0  0.23178154537E+02 -0.16687799245E+01 -0.27636046927E+02  0.36107655202E+02  0.51100000000E-03 0. -1.
        -11    1    3    3    0    0  0.18329378873E+01  0.16754401000E+00 -0.58604817847E+01  0.61427175830E+01  0.51100000000E-03 0.  1.
        -12    1    3    3    0    0  0.33429057103E+01 -0.14356935714E+01 -0.13823874541E+01  0.38919442047E+01  0.00000000000E+00 0.  1.
</event>
<event>
 7    1  0.3919732E-008  0.4614232E+02  0.7816164E-02  0.1320468E+00
        -11   -1    0    0    0    0  0.00000000000E+00  0.00000000000E+00  0.45593999997E+02  0.45594000000E+02  0.51100000000E-03 0. -1.
         11   -1    0    0    0    0 -0.00000000000E+00 -0.00000000000E+00 -0.45593999997E+02  0.45594000000E+02  0.51100000000E-03 0.  1.
    9900012    2    1    2    0    0 -0.34580643383E+02  0.19688241060E+02  0.21110799234E+02  0.46142316776E+02  0.99999910141E+01 0.  0.
        -12    1    1    2    0    0  0.34580643383E+02 -0.19688241060E+02 -0.21110799234E+02  0.45045683224E+02  0.00000000000E+00 0.  1.
         11    1    3    3    0    0 -0.18248074501E+02  0.67145249756E+01  0.12065038093E+02  0.22883229953E+02  0.51100000000E-03 0. -1.
        -11    1    3    3    0    0 -0.11868156767E+01 -0.36800662624E-01  0.15025001823E+01  0.19150438111E+01  0.51100000000E-03 0.  1.
         12    1    3    3    0    0 -0.15145753206E+02  0.13010516747E+02  0.75432609595E+01  0.21344043012E+02  0.00000000000E+00 0. -1.
</event>
<event>
 7    1  0.3919732E-008  0.4614232E+02  0.7816164E-02  0.1320468E+00
        -11   -1    0    0    0    0  0.00000000000E+00  0.00000000000E+00  0.45593999997E+02  0.45594000000E+02  0.51100000000E-03 0. -1.
         11   -1    0    0    0    0 -0.00000000000E+00 -0.00000000000E+00 -0.45593999997E+02  0.45594000000E+02  0.51100000000E-03 0.  1.
    9900012    2    1    2    0    0  0.37015007094E+02  0.15857885579E+02  0.20187370813E+02  0.46142320678E+02  0.10000026601E+02 0.  0.
        -12    1    1    2    0    0 -0.37015007094E+02 -0.15857885579E+02 -0.20187370813E+02  0.45045679322E+02  0.00000000000E+00 0.  1.
         11    1    3    3    0    0  0.18123689965E+02  0.78738117531E+01  0.12617568099E+02  0.23445001054E+02  0.51100000000E-03 0. -1.
        -11    1    3    3    0    0  0.10147595546E+02  0.21856895514E+01  0.62662163724E+01  0.12125032044E+02  0.51100000000E-03 0.  1.
        -12    1    3    3    0    0  0.87437215830E+01  0.57983842746E+01  0.13035863425E+01  0.10572287580E+02  0.00000000000E+00 0.  1.
</event>
<event>
 7    1  0.3919732E-008  0.4614232E+02  0.7816164E-02  0.1320468E+00
        -11   -1    0    0    0    0  0.00000000000E+00  0.00000000000E+00  0.45593999997E+02  0.45594000000E+02  0.51100000000E-03 0.  1.
         11   -1    0    0    0    0 -0.00000000000E+00 -0.00000000000E+00 -0.45593999997E+02  0.45594000000E+02  0.51100000000E-03 0. -1.
    9900012    2    1    2    0    0 -0.30211502609E+02 -0.32806936366E+01 -0.33250799370E+02  0.46142317639E+02  0.99999988832E+01 0.  0.
        -12    1    1    2    0    0  0.30211502609E+02  0.32806936366E+01  0.33250799370E+02  0.45045682361E+02  0.00000000000E+00 0.  1.
         11    1    3    3    0    0 -0.17694928598E+01 -0.13250833515E+01 -0.47086535825E+00  0.22602356771E+01  0.51100000000E-03 0. -1.
        -11    1    3    3    0    0 -0.61474235896E+00  0.10019220981E+01 -0.16078535332E+01  0.19917201871E+01  0.51100000000E-03 0.  1.
         12    1    3    3    0    0 -0.27827267390E+02 -0.29575323832E+01 -0.31172080479E+02  0.41890361774E+02  0.00000000000E+00 0. -1.
</event>
<event>
 7    1  0.3919732E-008  0.4614232E+02  0.7816164E-02  0.1320468E+00
        -11   -1    0    0    0    0  0.00000000000E+00  0.00000000000E+00  0.45593999997E+02  0.45594000000E+02  0.51100000000E-03 0. -1.
         11   -1    0    0    0    0 -0.00000000000E+00 -0.00000000000E+00 -0.45593999997E+02  0.45594000000E+02  0.51100000000E-03 0.  1.
    9900012    2    1    2    0    0 -0.37744787353E+02 -0.21005227128E+01  0.24495555626E+02  0.46142318593E+02  0.10000007584E+02 0.  0.
        -12    1    1    2    0    0  0.37744787353E+02  0.21005227128E+01 -0.24495555626E+02  0.45045681407E+02  0.00000000000E+00 0.  1.
         11    1    3    3    0    0 -0.16180363327E+02  0.26068290252E+01  0.12884947820E+02  0.20847580088E+02  0.51100000000E-03 0. -1.
        -11    1    3    3    0    0 -0.17975836620E+02 -0.22590775847E+01  0.96765666196E+01  0.20539476028E+02  0.51100000000E-03 0.  1.
        -12    1    3    3    0    0 -0.35885874068E+01 -0.24482741533E+01  0.19340411863E+01  0.47552624761E+01  0.00000000000E+00 0.  1.
</event>
<event>
 7    1  0.3919732E-008  0.4614232E+02  0.7816164E-02  0.1320468E+00
        -11   -1    0    0    0    0  0.00000000000E+00  0.00000000000E+00  0.45593999997E+02  0.45594000000E+02  0.51100000000E-03 0. -1.
         11   -1    0    0    0    0 -0.00000000000E+00 -0.00000000000E+00 -0.45593999997E+02  0.45594000000E+02  0.51100000000E-03 0.  1.
    9900012    2    1    2    0    0  0.57648941187E+01  0.32636202715E+02  0.30508320918E+02  0.46142318996E+02  0.10000011262E+02 0.  0.
        -12    1    1    2    0    0 -0.57648941187E+01 -0.32636202715E+02 -0.30508320918E+02  0.45045681004E+02  0.00000000000E+00 0.  1.
         11    1    3    3    0    0  0.43317388182E+01  0.27765553353E+02  0.20109309701E+02  0.34555379481E+02  0.51100000000E-03 0. -1.
        -11    1    3    3    0    0  0.11293154864E+00  0.12515599138E+01  0.26815159202E+01  0.29613651656E+01  0.51100000000E-03 0.  1.
         12    1    3    3    0    0  0.13202237519E+01  0.36190894475E+01  0.77174952977E+01  0.86255743493E+01  0.00000000000E+00 0. -1.
</event>
<event>
 7    1  0.3919732E-008  0.4614232E+02  0.7816164E-02  0.1320468E+00
        -11   -1    0    0    0    0  0.00000000000E+00  0.00000000000E+00  0.45593999997E+02  0.45594000000E+02  0.51100000000E-03 0.  1.
         11   -1    0    0    0    0 -0.00000000000E+00 -0.00000000000E+00 -0.45593999997E+02  0.45594000000E+02  0.51100000000E-03 0. -1.
    9900012    2    1    2    0    0 -0.36412758477E+01 -0.10699641825E+02 -0.43604727526E+02  0.46142317769E+02  0.10000000076E+02 0.  0.
        -12    1    1    2    0    0  0.36412758477E+01  0.10699641825E+02  0.43604727526E+02  0.45045682231E+02  0.00000000000E+00 0.  1.
         11    1    3    3    0    0  0.24994867111E+01 -0.31184250427E+01 -0.13193356044E+02  0.13785378215E+02  0.51100000000E-03 0. -1.
        -11    1    3    3    0    0 -0.85373671236E+00 -0.51264630056E+01 -0.13260314108E+02  0.14242381115E+02  0.51100000000E-03 0.  1.
        -12    1    3    3    0    0 -0.52870258464E+01 -0.24547537771E+01 -0.17151057375E+02  0.18114558440E+02  0.00000000000E+00 0.  1.
</event>
<event>
 7    1  0.3919732E-008  0.4614232E+02  0.7816164E-02  0.1320468E+00
        -11   -1    0    0    0    0  0.00000000000E+00  0.00000000000E+00  0.45593999997E+02  0.45594000000E+02  0.51100000000E-03 0. -1.
         11   -1    0    0    0    0 -0.00000000000E+00 -0.00000000000E+00 -0.45593999997E+02  0.45594000000E+02  0.51100000000E-03 0.  1.
    9900012    2    1    2    0    0 -0.32066850454E+01  0.44694601150E+02  0.46068858390E+01  0.46142316544E+02  0.99999888986E+01 0.  0.
        -12    1    1    2    0    0  0.32066850454E+01 -0.44694601150E+02 -0.46068858390E+01  0.45045683456E+02  0.00000000000E+00 0.  1.
         11    1    3    3    0    0 -0.31325646698E+01  0.63047823772E+01  0.18736281478E+01  0.72851715788E+01  0.51100000000E-03 0. -1.
        -11    1    3    3    0    0  0.18264500537E+01  0.78650316924E+01 -0.57540721773E+00  0.80947969121E+01  0.51100000000E-03 0.  1.
         12    1    3    3    0    0 -0.19005704293E+01  0.30524787080E+02  0.33086649089E+01  0.30762348053E+02  0.00000000000E+00 0. -1.
</event>
<event>
 7    1  0.3919732E-008  0.4614232E+02  0.7816164E-02  0.1320468E+00
        -11   -1    0    0    0    0  0.00000000000E+00  0.00000000000E+00  0.45593999997E+02  0.45594000000E+02  0.51100000000E-03 0.  1.
         11   -1    0    0    0    0 -0.00000000000E+00 -0.00000000000E+00 -0.45593999997E+02  0.45594000000E+02  0.51100000000E-03 0. -1.
    9900012    2    1    2    0    0 -0.75685899508E+01  0.12131525439E+02 -0.42715992540E+02  0.46142317832E+02  0.10000000647E+02 0.  0.
        -12    1    1    2    0    0  0.75685899508E+01 -0.12131525439E+02  0.42715992540E+02  0.45045682168E+02  0.00000000000E+00 0.  1.
         11    1    3    3    0    0  0.27290117324E+00  0.23305988281E+01 -0.84455726165E+01  0.87654927431E+01  0.51100000000E-03 0.  1.
        -11    1    3    3    0    0  0.11756998631E+01  0.98978314462E+00 -0.90635346583E+01  0.91929103991E+01  0.51100000000E-03 0. -1.
         12    1    3    3    0    0 -0.90171909872E+01  0.88111434662E+01 -0.25206885265E+02  0.28183914690E+02  0.00000000000E+00 0. -1.
</event>
<event>
 7    1  0.3919732E-008  0.4614232E+02  0.7816164E-02  0.1320468E+00
        -11   -1    0    0    0    0  0.00000000000E+00  0.00000000000E+00  0.45593999997E+02  0.45594000000E+02  0.51100000000E-03 0.  1.
         11   -1    0    0    0    0 -0.00000000000E+00 -0.00000000000E+00 -0.45593999997E+02  0.45594000000E+02  0.51100000000E-03 0. -1.
    9900012    2    1    2    0    0  0.31972009749E+02  0.42088429963E+01 -0.31451386739E+02  0.46142317693E+02  0.99999993759E+01 0.  0.
        -12    1    1    2    0    0 -0.31972009749E+02 -0.42088429963E+01  0.31451386739E+02  0.45045682307E+02  0.00000000000E+00 0.  1.
         11    1    3    3    0    0  0.19349914277E+02  0.57164318505E+01 -0.16816229406E+02  0.26265611497E+02  0.51100000000E-03 0. -1.
        -11    1    3    3    0    0  0.62487734258E+00 -0.12859686147E+01 -0.12348146098E+01  0.18891676350E+01  0.51100000000E-03 0.  1.
        -12    1    3    3    0    0  0.11997218129E+02 -0.22162023946E+00 -0.13400342723E+02  0.17987538560E+02  0.00000000000E+00 0.  1.
</event>
<event>
 7    1  0.3919732E-008  0.4614232E+02  0.7816164E-02  0.1320468E+00
        -11   -1    0    0    0    0  0.00000000000E+00  0.00000000000E+00  0.45593999997E+02  0.45594000000E+02  0.51100000000E-03 0. -1.
         11   -1    0    0    0    0 -0.00000000000E+00 -0.00000000000E+00 -0.45593999997E+02  0.45594000000E+02  0.51100000000E-03 0.  1.
    9900012    2    1    2    0    0 -0.33211507091E+02 -0.25659459206E+02  0.16361583681E+02  0.46142317959E+02  0.10000001807E+02 0.  0.
        -12    1    1    2    0    0  0.33211507091E+02  0.25659459206E+02 -0.16361583681E+02  0.45045682041E+02  0.00000000000E+00 0.  1.
         11    1    3    3    0    0 -0.91903342579E+01 -0.94033975103E+01  0.37254395364E+01  0.13666200222E+02  0.51100000000E-03 0. -1.
        -11    1    3    3    0    0 -0.18350813180E+02 -0.11490313341E+02  0.58435934852E+01  0.22426039109E+02  0.51100000000E-03 0.  1.
         12    1    3    3    0    0 -0.56703596524E+01 -0.47657483546E+01  0.67925506596E+01  0.10050078628E+02  0.00000000000E+00 0. -1.
</event>
<event>
 7    1  0.3919732E-008  0.4614232E+02  0.7816164E-02  0.1320468E+00
        -11   -1    0    0    0    0  0.00000000000E+00  0.00000000000E+00  0.45593999997E+02  0.45594000000E+02  0.51100000000E-03 0.  1.
         11   -1    0    0    0    0 -0.00000000000E+00 -0.00000000000E+00 -0.45593999997E+02  0.45594000000E+02  0.51100000000E-03 0. -1.
    9900012    2    1    2    0    0  0.29151702020E+02  0.14955136489E+02 -0.30913358932E+02  0.46142316538E+02  0.99999888503E+01 0.  0.
        -12    1    1    2    0    0 -0.29151702020E+02 -0.14955136489E+02  0.30913358932E+02  0.45045683462E+02  0.00000000000E+00 0.  1.
         11    1    3    3    0    0  0.32268153915E+01 -0.53369788033E+00 -0.15753983944E+01  0.36302963186E+01  0.51100000000E-03 0. -1.
        -11    1    3    3    0    0  0.28032945127E+01  0.28532711872E+01 -0.17599363743E+01  0.43700106287E+01  0.51100000000E-03 0.  1.
         12    1    3    3    0    0  0.23121592116E+02  0.12635563182E+02 -0.27578024163E+02  0.38142009591E+02  0.00000000000E+00 0. -1.
</event>
<event>
 7    1  0.3919732E-008  0.4614232E+02  0.7816164E-02  0.1320468E+00
        -11   -1    0    0    0    0  0.00000000000E+00  0.00000000000E+00  0.45593999997E+02  0.45594000000E+02  0.51100000000E-03 0. -1.
         11   -1    0    0    0    0 -0.00000000000E+00 -0.00000000000E+00 -0.45593999997E+02  0.45594000000E+02  0.51100000000E-03 0.  1.
    9900012    2    1    2    0    0  0.11676590510E+02 -0.25489322638E+02  0.35257129387E+02  0.46142317553E+02  0.99999981014E+01 0.  0.
        -12    1    1    2    0    0 -0.11676590510E+02  0.25489322638E+02 -0.35257129387E+02  0.45045682447E+02  0.00000000000E+00 0.  1.
         11    1    3    3    0    0  0.24426860744E+01 -0.11708583587E+02  0.13517094262E+02  0.18049085363E+02  0.51100000000E-03 0. -1.
        -11    1    3    3    0    0  0.79145681743E+01 -0.12841524342E+02  0.21755677124E+02  0.26473659064E+02  0.51100000000E-03 0.  1.
        -12    1    3    3    0    0  0.13193362614E+01 -0.93921470911E+00 -0.15641999383E-01  0.16195731267E+01  0.00000000000E+00 0.  1.
</event>
<event>
 7    1  0.3919732E-008  0.4614232E+02  0.7816164E-02  0.1320468E+00
        -11   -1    0    0    0    0  0.00000000000E+00  0.00000000000E+00  0.45593999997E+02  0.45594000000E+02  0.51100000000E-03 0.  1.
         11   -1    0    0    0    0 -0.00000000000E+00 -0.00000000000E+00 -0.45593999997E+02  0.45594000000E+02  0.51100000000E-03 0. -1.
    9900012    2    1    2    0    0 -0.28210507150E+02 -0.19188869490E+02 -0.29412040715E+02  0.46142316911E+02  0.99999922452E+01 0.  0.
        -12    1    1    2    0    0  0.28210507150E+02  0.19188869490E+02  0.29412040715E+02  0.45045683089E+02  0.00000000000E+00 0.  1.
         11    1    3    3    0    0 -0.90853906095E-01  0.22272010879E-01 -0.12349503398E+01  0.12384882227E+01  0.51100000000E-03 0. -1.
        -11    1    3    3    0    0 -0.44235266616E+01 -0.23064027078E+00 -0.51864434079E+01  0.68205555891E+01  0.51100000000E-03 0.  1.
         12    1    3    3    0    0 -0.23696126582E+02 -0.18980501230E+02 -0.22990646967E+02  0.38083273099E+02  0.00000000000E+00 0. -1.
</event>
<event>
 7    1  0.3919732E-008  0.4614232E+02  0.7816164E-02  0.1320468E+00
        -11   -1    0    0    0    0  0.00000000000E+00  0.00000000000E+00  0.45593999997E+02  0.45594000000E+02  0.51100000000E-03 0. -1.
         11   -1    0    0    0    0 -0.00000000000E+00 -0.00000000000E+00 -0.45593999997E+02  0.45594000000E+02  0.51100000000E-03 0.  1.
    9900012    2    1    2    0    0 -0.39143613222E+02  0.20751407789E+02 -0.81406482460E+01  0.46142317242E+02  0.99999952657E+01 0.  0.
        -12    1    1    2    0    0  0.39143613222E+02 -0.20751407789E+02  0.81406482460E+01  0.45045682758E+02  0.00000000000E+00 0.  1.
         11    1    3    3    0    0 -0.32380561043E+01 -0.34031557685E+00 -0.13765081889E+01  0.35349111844E+01  0.51100000000E-03 0. -1.
        -11    1    3    3    0    0 -0.10935253259E+02  0.33671725532E+01 -0.15906795618E+01  0.11551964187E+02  0.51100000000E-03 0.  1.
         12    1    3    3    0    0 -0.24970303858E+02  0.17724550813E+02 -0.51734604954E+01  0.31055441871E+02  0.00000000000E+00 0. -1.
</event>
<event>
 7    1  0.3919732E-008  0.4614232E+02  0.7816164E-02  0.1320468E+00
        -11   -1    0    0    0    0  0.00000000000E+00  0.00000000000E+00  0.45593999997E+02  0.45594000000E+02  0.51100000000E-03 0.  1.
         11   -1    0    0    0    0 -0.00000000000E+00 -0.00000000000E+00 -0.45593999997E+02  0.45594000000E+02  0.51100000000E-03 0. -1.
    9900012    2    1    2    0    0  0.42251427175E+02 -0.13401296447E+02 -0.80209503892E+01  0.46142317744E+02  0.99999998413E+01 0.  0.
        -12    1    1    2    0    0 -0.42251427175E+02  0.13401296447E+02  0.80209503892E+01  0.45045682256E+02  0.00000000000E+00 0.  1.
         11    1    3    3    0    0  0.72343587439E+01 -0.46197441992E+01  0.17991858046E+00  0.85854734207E+01  0.51100000000E-03 0. -1.
        -11    1    3    3    0    0  0.81244203159E+01 -0.31194140216E+01  0.53615177977E+00  0.87191976867E+01  0.51100000000E-03 0.  1.
        -12    1    3    3    0    0  0.26892648115E+02 -0.56621382264E+01 -0.87370207494E+01  0.28837646636E+02  0.00000000000E+00 0.  1.
</event>
<event>
 7    1  0.3919732E-008  0.4614232E+02  0.7816164E-02  0.1320468E+00
        -11   -1    0    0    0    0  0.00000000000E+00  0.00000000000E+00  0.45593999997E+02  0.45594000000E+02  0.51100000000E-03 0. -1.
         11   -1    0    0    0    0 -0.00000000000E+00 -0.00000000000E+00 -0.45593999997E+02  0.45594000000E+02  0.51100000000E-03 0.  1.
    9900012    2    1    2    0    0 -0.37703040337E+02  0.22120991605E+02 -0.10874556635E+02  0.46142317608E+02  0.99999986002E+01 0.  0.
        -12    1    1    2    0    0  0.37703040337E+02 -0.22120991605E+02  0.10874556635E+02  0.45045682392E+02  0.00000000000E+00 0.  1.
         11    1    3    3    0    0 -0.35346704882E+02  0.17586375514E+02 -0.86018507664E+01  0.40406212228E+02  0.51100000000E-03 0. -1.
        -11    1    3    3    0    0 -0.11152483739E+01  0.22230460229E+01 -0.41537852262E+00  0.25215574817E+01  0.51100000000E-03 0.  1.
         12    1    3    3    0    0 -0.12410870810E+01  0.23115700678E+01 -0.18573273460E+01  0.32145478984E+01  0.00000000000E+00 0. -1.
</event>
<event>
 7    1  0.3919732E-008  0.4614232E+02  0.7816164E-02  0.1320468E+00
        -11   -1    0    0    0    0  0.00000000000E+00  0.00000000000E+00  0.45593999997E+02  0.45594000000E+02  0.51100000000E-03 0.  1.
         11   -1    0    0    0    0 -0.00000000000E+00 -0.00000000000E+00 -0.45593999997E+02  0.45594000000E+02  0.51100000000E-03 0. -1.
    9900012    2    1    2    0    0 -0.31442275797E+02 -0.70080982971E+01 -0.31486239664E+02  0.46142318329E+02  0.10000005177E+02 0.  0.
        -12    1    1    2    0    0  0.31442275797E+02  0.70080982971E+01  0.31486239664E+02  0.45045681671E+02  0.00000000000E+00 0.  1.
         11    1    3    3    0    0 -0.79085740428E+01 -0.47268658537E+00 -0.72705126017E+01  0.10753107911E+02  0.51100000000E-03 0. -1.
        -11    1    3    3    0    0 -0.24854557371E+01  0.80430577661E-01 -0.69241031089E+01  0.73571165155E+01  0.51100000000E-03 0.  1.
        -12    1    3    3    0    0 -0.21048246017E+02 -0.66158422894E+01 -0.17291623954E+02  0.28032093902E+02  0.00000000000E+00 0.  1.
</event>
<event>
 7    1  0.3919732E-008  0.4614232E+02  0.7816164E-02  0.1320468E+00
        -11   -1    0    0    0    0  0.00000000000E+00  0.00000000000E+00  0.45593999997E+02  0.45594000000E+02  0.51100000000E-03 0. -1.
         11   -1    0    0    0    0 -0.00000000000E+00 -0.00000000000E+00 -0.45593999997E+02  0.45594000000E+02  0.51100000000E-03 0.  1.
    9900012    2    1    2    0    0  0.18639427501E+02 -0.31231700725E+02  0.26575668127E+02  0.46142317364E+02  0.99999963780E+01 0.  0.
        -12    1    1    2    0    0 -0.18639427501E+02  0.31231700725E+02 -0.26575668127E+02  0.45045682636E+02  0.00000000000E+00 0.  1.
         11    1    3    3    0    0  0.48372262196E+01 -0.58352244353E+01  0.76315437414E+01  0.10755884987E+02  0.51100000000E-03 0. -1.
        -11    1    3    3    0    0  0.51613139268E+01 -0.10641577587E+02  0.12239039226E+02  0.17019882973E+02  0.51100000000E-03 0.  1.
        -12    1    3    3    0    0  0.86408873546E+01 -0.14754898703E+02  0.67050851601E+01  0.18366549404E+02  0.00000000000E+00 0.  1.
</event>
<event>
 7    1  0.3919732E-008  0.4614232E+02  0.7816164E-02  0.1320468E+00
        -11   -1    0    0    0    0  0.00000000000E+00  0.00000000000E+00  0.45593999997E+02  0.45594000000E+02  0.51100000000E-03 0.  1.
         11   -1    0    0    0    0 -0.00000000000E+00 -0.00000000000E+00 -0.45593999997E+02  0.45594000000E+02  0.51100000000E-03 0. -1.
    9900012    2    1    2    0    0  0.45001516801E+02  0.19104054878E+01 -0.57208893454E+00  0.46142318195E+02  0.10000003955E+02 0.  0.
        -12    1    1    2    0    0 -0.45001516801E+02 -0.19104054878E+01  0.57208893454E+00  0.45045681805E+02  0.00000000000E+00 0.  1.
         11    1    3    3    0    0  0.25628270430E+02  0.19815890501E+00  0.44753123689E+01  0.26016839417E+02  0.51100000000E-03 0. -1.
        -11    1    3    3    0    0  0.76357254538E+01  0.31622849975E+00 -0.24254407151E+01  0.80179215881E+01  0.51100000000E-03 0.  1.
         12    1    3    3    0    0  0.11737520917E+02  0.13960180831E+01 -0.26219605883E+01  0.12107557190E+02  0.00000000000E+00 0. -1.
</event>
<event>
 7    1  0.3919732E-008  0.4614232E+02  0.7816164E-02  0.1320468E+00
        -11   -1    0    0    0    0  0.00000000000E+00  0.00000000000E+00  0.45593999997E+02  0.45594000000E+02  0.51100000000E-03 0. -1.
         11   -1    0    0    0    0 -0.00000000000E+00 -0.00000000000E+00 -0.45593999997E+02  0.45594000000E+02  0.51100000000E-03 0.  1.
    9900012    2    1    2    0    0 -0.66225113637E+01 -0.44171856790E+02  0.58397665276E+01  0.46142318052E+02  0.10000002655E+02 0.  0.
        -12    1    1    2    0    0  0.66225113637E+01  0.44171856790E+02 -0.58397665276E+01  0.45045681948E+02  0.00000000000E+00 0.  1.
         11    1    3    3    0    0 -0.66055564823E+00 -0.47116545636E+01 -0.11699552099E+00  0.47591712203E+01  0.51100000000E-03 0. -1.
        -11    1    3    3    0    0 -0.47876019262E+01 -0.12076341340E+02 -0.12263878125E+01  0.13048493388E+02  0.51100000000E-03 0.  1.
         12    1    3    3    0    0 -0.11743537892E+01 -0.27383860886E+02  0.71831498611E+01  0.28334653444E+02  0.00000000000E+00 0. -1.
</event>
<event>
 7    1  0.3919732E-008  0.4614232E+02  0.7816164E-02  0.1320468E+00
        -11   -1    0    0    0    0  0.00000000000E+00  0.00000000000E+00  0.45593999997E+02  0.45594000000E+02  0.51100000000E-03 0.  1.
         11   -1    0    0    0    0 -0.00000000000E+00 -0.00000000000E+00 -0.45593999997E+02  0.45594000000E+02  0.51100000000E-03 0. -1.
    9900012    2    1    2    0    0 -0.13817451699E+00 -0.27591616047E+02 -0.35606139226E+02  0.46142317423E+02  0.99999969137E+01 0.  0.
        -12    1    1    2    0    0  0.13817451699E+00  0.27591616047E+02  0.35606139226E+02  0.45045682577E+02  0.00000000000E+00 0.  1.
         11    1    3    3    0    0  0.99990995296E+00 -0.43610949640E+01 -0.69530388344E+01  0.82682355126E+01  0.51100000000E-03 0. -1.
        -11    1    3    3    0    0 -0.64941370994E+00 -0.65873320540E+01 -0.14805781500E+02  0.16218071644E+02  0.51100000000E-03 0.  1.
        -12    1    3    3    0    0 -0.48867076001E+00 -0.16643189029E+02 -0.13847318892E+02  0.21656010267E+02  0.00000000000E+00 0.  1.
</event>
<event>
 7    1  0.3919732E-008  0.4614232E+02  0.7816164E-02  0.1320468E+00
        -11   -1    0    0    0    0  0.00000000000E+00  0.00000000000E+00  0.45593999997E+02  0.45594000000E+02  0.51100000000E-03 0.  1.
         11   -1    0    0    0    0 -0.00000000000E+00 -0.00000000000E+00 -0.45593999997E+02  0.45594000000E+02  0.51100000000E-03 0. -1.
    9900012    2    1    2    0    0  0.40845711757E+01  0.34997597020E+02 -0.28064175286E+02  0.46142318150E+02  0.10000003544E+02 0.  0.
        -12    1    1    2    0    0 -0.40845711757E+01 -0.34997597020E+02  0.28064175286E+02  0.45045681850E+02  0.00000000000E+00 0.  1.
         11    1    3    3    0    0  0.23126998303E+01  0.31992595021E+01 -0.41084447075E+01  0.56976451313E+01  0.51100000000E-03 0. -1.
        -11    1    3    3    0    0  0.52778925204E-01  0.32795839048E+00 -0.20154540234E+01  0.20426447323E+01  0.51100000000E-03 0.  1.
         12    1    3    3    0    0  0.17190924202E+01  0.31470379128E+02 -0.21940276555E+02  0.38402028286E+02  0.00000000000E+00 0. -1.
</event>
<event>
 7    1  0.3919732E-008  0.4614232E+02  0.7816164E-02  0.1320468E+00
        -11   -1    0    0    0    0  0.00000000000E+00  0.00000000000E+00  0.45593999997E+02  0.45594000000E+02  0.51100000000E-03 0. -1.
         11   -1    0    0    0    0 -0.00000000000E+00 -0.00000000000E+00 -0.45593999997E+02  0.45594000000E+02  0.51100000000E-03 0.  1.
    9900012    2    1    2    0    0 -0.43874044011E+02  0.21863065538E+01  0.99700445271E+01  0.46142318053E+02  0.10000002662E+02 0.  0.
        -12    1    1    2    0    0  0.43874044011E+02 -0.21863065538E+01 -0.99700445271E+01  0.45045681947E+02  0.00000000000E+00 0.  1.
         11    1    3    3    0    0 -0.84516946479E+00  0.57316133798E+00  0.16934814640E+00  0.10351349667E+01  0.51100000000E-03 0. -1.
        -11    1    3    3    0    0 -0.27513703603E+02 -0.30225005338E+01  0.43343996915E+01  0.28016538265E+02  0.51100000000E-03 0.  1.
        -12    1    3    3    0    0 -0.15515170943E+02  0.46356457496E+01  0.54662966892E+01  0.17090644821E+02  0.00000000000E+00 0.  1.
</event>
<event>
 7    1  0.3919732E-008  0.4614232E+02  0.7816164E-02  0.1320468E+00
        -11   -1    0    0    0    0  0.00000000000E+00  0.00000000000E+00  0.45593999997E+02  0.45594000000E+02  0.51100000000E-03 0. -1.
         11   -1    0    0    0    0 -0.00000000000E+00 -0.00000000000E+00 -0.45593999997E+02  0.45594000000E+02  0.51100000000E-03 0.  1.
    9900012    2    1    2    0    0  0.14325156170E+02  0.12341057559E+02  0.40885227474E+02  0.46142316227E+02  0.99999860118E+01 0.  0.
        -12    1    1    2    0    0 -0.14325156170E+02 -0.12341057559E+02 -0.40885227474E+02  0.45045683773E+02  0.00000000000E+00 0.  1.
         11    1    3    3    0    0  0.10334670059E+02  0.88622396368E+01  0.31685607502E+02  0.34486554186E+02  0.51100000000E-03 0. -1.
        -11    1    3    3    0    0  0.30924042257E+01  0.31721696778E+00  0.71130861036E+01  0.77627047270E+01  0.51100000000E-03 0.  1.
         12    1    3    3    0    0  0.89808188578E+00  0.31616009540E+01  0.20865338684E+01  0.38930573139E+01  0.00000000000E+00 0. -1.
</event>
<event>
 7    1  0.3919732E-008  0.4614232E+02  0.7816164E-02  0.1320468E+00
        -11   -1    0    0    0    0  0.00000000000E+00  0.00000000000E+00  0.45593999997E+02  0.45594000000E+02  0.51100000000E-03 0.  1.
         11   -1    0    0    0    0 -0.00000000000E+00 -0.00000000000E+00 -0.45593999997E+02  0.45594000000E+02  0.51100000000E-03 0. -1.
    9900012    2    1    2    0    0  0.93993806523E+00 -0.91958316395E+01 -0.44087034920E+02  0.46142318175E+02  0.10000003772E+02 0.  0.
        -12    1    1    2    0    0 -0.93993806523E+00  0.91958316395E+01  0.44087034920E+02  0.45045681825E+02  0.00000000000E+00 0.  1.
         11    1    3    3    0    0  0.21145949210E+00 -0.31480648121E+01 -0.11556470830E+02  0.11979442620E+02  0.51100000000E-03 0. -1.
        -11    1    3    3    0    0  0.26242214108E+01 -0.59527786397E+01 -0.31133807163E+02  0.31806226753E+02  0.51100000000E-03 0.  1.
         12    1    3    3    0    0 -0.18957428377E+01 -0.94988187610E-01 -0.13967569263E+01  0.23566488015E+01  0.00000000000E+00 0. -1.
</event>
<event>
 7    1  0.3919732E-008  0.4614232E+02  0.7816164E-02  0.1320468E+00
        -11   -1    0    0    0    0  0.00000000000E+00  0.00000000000E+00  0.45593999997E+02  0.45594000000E+02  0.51100000000E-03 0. -1.
         11   -1    0    0    0    0 -0.00000000000E+00 -0.00000000000E+00 -0.45593999997E+02  0.45594000000E+02  0.51100000000E-03 0.  1.
    9900012    2    1    2    0    0  0.44114186849E+02 -0.89709883118E+01 -0.16040518107E+01  0.46142322129E+02  0.10000039834E+02 0.  0.
        -12    1    1    2    0    0 -0.44114186849E+02  0.89709883118E+01  0.16040518107E+01  0.45045677871E+02  0.00000000000E+00 0.  1.
         11    1    3    3    0    0  0.16010040687E+02 -0.25968694067E+01 -0.30234560651E+01  0.16498679352E+02  0.51100000000E-03 0. -1.
        -11    1    3    3    0    0  0.46201949343E+01 -0.25303518844E+01 -0.19351490194E+01  0.56119233671E+01  0.51100000000E-03 0.  1.
        -12    1    3    3    0    0  0.23483951227E+02 -0.38437670207E+01  0.33545532738E+01  0.24031719410E+02  0.00000000000E+00 0.  1.
</event>
<event>
 7    1  0.3919732E-008  0.4614232E+02  0.7816164E-02  0.1320468E+00
        -11   -1    0    0    0    0  0.00000000000E+00  0.00000000000E+00  0.45593999997E+02  0.45594000000E+02  0.51100000000E-03 0.  1.
         11   -1    0    0    0    0 -0.00000000000E+00 -0.00000000000E+00 -0.45593999997E+02  0.45594000000E+02  0.51100000000E-03 0. -1.
    9900012    2    1    2    0    0 -0.32777727545E+02  0.98732408942E+01 -0.29278886404E+02  0.46142317656E+02  0.99999990434E+01 0.  0.
        -12    1    1    2    0    0  0.32777727545E+02 -0.98732408942E+01  0.29278886404E+02  0.45045682344E+02  0.00000000000E+00 0.  1.
         11    1    3    3    0    0 -0.89792210290E+00  0.11159675571E+00 -0.24207757947E+01  0.25843516882E+01  0.51100000000E-03 0.  1.
        -11    1    3    3    0    0 -0.16440962513E+02  0.45362055070E+01 -0.86605631912E+01  0.19128192905E+02  0.51100000000E-03 0. -1.
         12    1    3    3    0    0 -0.15438842928E+02  0.52254386315E+01 -0.18197547418E+02  0.24429773063E+02  0.00000000000E+00 0. -1.
</event>
<event>
 7    1  0.3919732E-008  0.4614232E+02  0.7816164E-02  0.1320468E+00
        -11   -1    0    0    0    0  0.00000000000E+00  0.00000000000E+00  0.45593999997E+02  0.45594000000E+02  0.51100000000E-03 0.  1.
         11   -1    0    0    0    0 -0.00000000000E+00 -0.00000000000E+00 -0.45593999997E+02  0.45594000000E+02  0.51100000000E-03 0. -1.
    9900012    2    1    2    0    0 -0.38827226382E+02  0.65747334107E+01 -0.21870821165E+02  0.46142318227E+02  0.10000004250E+02 0.  0.
        -12    1    1    2    0    0  0.38827226382E+02 -0.65747334107E+01  0.21870821165E+02  0.45045681773E+02  0.00000000000E+00 0.  1.
         11    1    3    3    0    0 -0.18284130370E+02  0.46837973799E+01 -0.87074249305E+01  0.20786212509E+02  0.51100000000E-03 0.  1.
        -11    1    3    3    0    0 -0.19361274754E+02  0.16146146431E-01 -0.12487903503E+02  0.23039248143E+02  0.51100000000E-03 0. -1.
        -12    1    3    3    0    0 -0.11818212572E+01  0.18747898843E+01 -0.67549273214E+00  0.23168575756E+01  0.00000000000E+00 0.  1.
</event>
<event>
 7    1  0.3919732E-008  0.4614232E+02  0.7816164E-02  0.1320468E+00
        -11   -1    0    0    0    0  0.00000000000E+00  0.00000000000E+00  0.45593999997E+02  0.45594000000E+02  0.51100000000E-03 0. -1.
         11   -1    0    0    0    0 -0.00000000000E+00 -0.00000000000E+00 -0.45593999997E+02  0.45594000000E+02  0.51100000000E-03 0.  1.
    9900012    2    1    2    0    0  0.13775927514E+02 -0.37450993426E+02  0.20898816931E+02  0.46142316116E+02  0.99999850000E+01 0.  0.
        -12    1    1    2    0    0 -0.13775927514E+02  0.37450993426E+02 -0.20898816931E+02  0.45045683884E+02  0.00000000000E+00 0.  1.
         11    1    3    3    0    0  0.78511615464E+01 -0.25403258462E+02  0.14829477747E+02  0.30444698859E+02  0.51100000000E-03 0. -1.
        -11    1    3    3    0    0  0.50975576722E+00 -0.71662840399E+01  0.28832188563E+01  0.77413454333E+01  0.51100000000E-03 0.  1.
        -12    1    3    3    0    0  0.54150102002E+01 -0.48814509241E+01  0.31861203278E+01  0.79562718239E+01  0.00000000000E+00 0.  1.
</event>
<event>
 7    1  0.3919732E-008  0.4614232E+02  0.7816164E-02  0.1320468E+00
        -11   -1    0    0    0    0  0.00000000000E+00  0.00000000000E+00  0.45593999997E+02  0.45594000000E+02  0.51100000000E-03 0. -1.
         11   -1    0    0    0    0 -0.00000000000E+00 -0.00000000000E+00 -0.45593999997E+02  0.45594000000E+02  0.51100000000E-03 0.  1.
    9900012    2    1    2    0    0 -0.30945217008E+02 -0.22338613140E+02  0.23926837419E+02  0.46142316061E+02  0.99999844927E+01 0.  0.
        -12    1    1    2    0    0  0.30945217008E+02  0.22338613140E+02 -0.23926837419E+02  0.45045683939E+02  0.00000000000E+00 0.  1.
         11    1    3    3    0    0 -0.94015602917E+01 -0.36444215233E+01  0.42541407483E+01  0.10943895921E+02  0.51100000000E-03 0. -1.
        -11    1    3    3    0    0 -0.75482529871E+01 -0.68927785080E+01  0.10745577099E+02  0.14830844418E+02  0.51100000000E-03 0.  1.
        -12    1    3    3    0    0 -0.13995403729E+02 -0.11801413109E+02  0.89271195720E+01  0.20367575721E+02  0.00000000000E+00 0.  1.
</event>
<event>
 7    1  0.3919732E-008  0.4614232E+02  0.7816164E-02  0.1320468E+00
        -11   -1    0    0    0    0  0.00000000000E+00  0.00000000000E+00  0.45593999997E+02  0.45594000000E+02  0.51100000000E-03 0.  1.
         11   -1    0    0    0    0 -0.00000000000E+00 -0.00000000000E+00 -0.45593999997E+02  0.45594000000E+02  0.51100000000E-03 0. -1.
    9900012    2    1    2    0    0 -0.11319740254E+02  0.27153283062E+02 -0.34112697140E+02  0.46142318668E+02  0.10000008271E+02 0.  0.
        -12    1    1    2    0    0  0.11319740254E+02 -0.27153283062E+02  0.34112697140E+02  0.45045681332E+02  0.00000000000E+00 0.  1.
         11    1    3    3    0    0 -0.54778828880E+01  0.11741038329E+02 -0.18401657198E+02  0.22505114305E+02  0.51100000000E-03 0. -1.
        -11    1    3    3    0    0  0.33763802240E+00  0.26928176942E+01 -0.56941003843E+01  0.63077766301E+01  0.51100000000E-03 0.  1.
        -12    1    3    3    0    0 -0.61794953887E+01  0.12719427039E+02 -0.10016939558E+02  0.17329427733E+02  0.00000000000E+00 0.  1.
</event>
<event>
 7    1  0.3919732E-008  0.4614232E+02  0.7816164E-02  0.1320468E+00
        -11   -1    0    0    0    0  0.00000000000E+00  0.00000000000E+00  0.45593999997E+02  0.45594000000E+02  0.51100000000E-03 0.  1.
         11   -1    0    0    0    0 -0.00000000000E+00 -0.00000000000E+00 -0.45593999997E+02  0.45594000000E+02  0.51100000000E-03 0. -1.
    9900012    2    1    2    0    0  0.26319908395E+02  0.87218218540E+01 -0.35500784557E+02  0.46142318092E+02  0.10000003020E+02 0.  0.
        -12    1    1    2    0    0 -0.26319908395E+02 -0.87218218540E+01  0.35500784557E+02  0.45045681908E+02  0.00000000000E+00 0.  1.
         11    1    3    3    0    0  0.11431557958E+02  0.60672790390E+00 -0.14122719405E+02  0.18179654555E+02  0.51100000000E-03 0. -1.
        -11    1    3    3    0    0  0.62833580100E+01  0.62108688867E+01 -0.78585585902E+01  0.11824230359E+02  0.51100000000E-03 0.  1.
        -12    1    3    3    0    0  0.86049924267E+01  0.19042250634E+01 -0.13519506562E+02  0.16138433178E+02  0.00000000000E+00 0.  1.
</event>
<event>
 7    1  0.3919732E-008  0.4614232E+02  0.7816164E-02  0.1320468E+00
        -11   -1    0    0    0    0  0.00000000000E+00  0.00000000000E+00  0.45593999997E+02  0.45594000000E+02  0.51100000000E-03 0.  1.
         11   -1    0    0    0    0 -0.00000000000E+00 -0.00000000000E+00 -0.45593999997E+02  0.45594000000E+02  0.51100000000E-03 0. -1.
    9900012    2    1    2    0    0 -0.35205591798E+02 -0.25420578735E+02  0.11978060681E+02  0.46142318134E+02  0.10000003399E+02 0.  0.
        -12    1    1    2    0    0  0.35205591798E+02  0.25420578735E+02 -0.11978060681E+02  0.45045681866E+02  0.00000000000E+00 0.  1.
         11    1    3    3    0    0 -0.15798408346E+02 -0.75454844985E+01  0.43492359602E+01  0.18039952780E+02  0.51100000000E-03 0. -1.
        -11    1    3    3    0    0 -0.65182743846E+01 -0.29396010758E+01  0.66477303832E+00  0.71813006406E+01  0.51100000000E-03 0.  1.
        -12    1    3    3    0    0 -0.12888909067E+02 -0.14935493161E+02  0.69640516822E+01  0.20921064713E+02  0.00000000000E+00 0.  1.
</event>
<event>
 7    1  0.3919732E-008  0.4614232E+02  0.7816164E-02  0.1320468E+00
        -11   -1    0    0    0    0  0.00000000000E+00  0.00000000000E+00  0.45593999997E+02  0.45594000000E+02  0.51100000000E-03 0. -1.
         11   -1    0    0    0    0 -0.00000000000E+00 -0.00000000000E+00 -0.45593999997E+02  0.45594000000E+02  0.51100000000E-03 0.  1.
    9900012    2    1    2    0    0 -0.33183942154E+02 -0.16205785680E+02  0.25793635415E+02  0.46142321691E+02  0.10000035833E+02 0.  0.
        -12    1    1    2    0    0  0.33183942154E+02  0.16205785680E+02 -0.25793635415E+02  0.45045678309E+02  0.00000000000E+00 0.  1.
         11    1    3    3    0    0 -0.19263558350E+01  0.81201491568E+00  0.28374843770E+01  0.35244195092E+01  0.51100000000E-03 0. -1.
        -11    1    3    3    0    0 -0.60779400119E+01 -0.27898766675E+01  0.65800826143E+01  0.93820175911E+01  0.51100000000E-03 0.  1.
         12    1    3    3    0    0 -0.25179646307E+02 -0.14227923928E+02  0.16376068424E+02  0.33235884590E+02  0.00000000000E+00 0. -1.
</event>
<event>
 7    1  0.3919732E-008  0.4614232E+02  0.7816164E-02  0.1320468E+00
        -11   -1    0    0    0    0  0.00000000000E+00  0.00000000000E+00  0.45593999997E+02  0.45594000000E+02  0.51100000000E-03 0.  1.
         11   -1    0    0    0    0 -0.00000000000E+00 -0.00000000000E+00 -0.45593999997E+02  0.45594000000E+02  0.51100000000E-03 0. -1.
    9900012    2    1    2    0    0  0.27778815597E+02  0.28775455915E+02 -0.20722549256E+02  0.46142317557E+02  0.99999981404E+01 0.  0.
        -12    1    1    2    0    0 -0.27778815597E+02 -0.28775455915E+02  0.20722549256E+02  0.45045682443E+02  0.00000000000E+00 0.  1.
         11    1    3    3    0    0  0.12679753202E+02  0.90125216692E+01 -0.10280669873E+02  0.18646550925E+02  0.51100000000E-03 0. -1.
        -11    1    3    3    0    0  0.18637837006E+01  0.76781086654E+00 -0.20374290216E+01  0.28660670768E+01  0.51100000000E-03 0.  1.
         12    1    3    3    0    0  0.13235278694E+02  0.18995123380E+02 -0.84044503612E+01  0.24629699555E+02  0.00000000000E+00 0. -1.
</event>
<event>
 7    1  0.3919732E-008  0.4614232E+02  0.7816164E-02  0.1320468E+00
        -11   -1    0    0    0    0  0.00000000000E+00  0.00000000000E+00  0.45593999997E+02  0.45594000000E+02  0.51100000000E-03 0. -1.
         11   -1    0    0    0    0 -0.00000000000E+00 -0.00000000000E+00 -0.45593999997E+02  0.45594000000E+02  0.51100000000E-03 0.  1.
    9900012    2    1    2    0    0 -0.33688675860E+01  0.43224857749E+02  0.12221944921E+02  0.46142317256E+02  0.99999953913E+01 0.  0.
        -12    1    1    2    0    0  0.33688675860E+01 -0.43224857749E+02 -0.12221944921E+02  0.45045682744E+02  0.00000000000E+00 0.  1.
         11    1    3    3    0    0  0.10518602025E+01  0.24969951912E+02  0.91833945506E+01  0.26625920531E+02  0.51100000000E-03 0. -1.
        -11    1    3    3    0    0 -0.11853751966E+01  0.36492471679E+01 -0.11060412963E+01  0.39931750349E+01  0.51100000000E-03 0.  1.
         12    1    3    3    0    0 -0.32353525919E+01  0.14605658669E+02  0.41445916665E+01  0.15523221690E+02  0.00000000000E+00 0. -1.
</event>
<event>
 7    1  0.3919732E-008  0.4614232E+02  0.7816164E-02  0.1320468E+00
        -11   -1    0    0    0    0  0.00000000000E+00  0.00000000000E+00  0.45593999997E+02  0.45594000000E+02  0.51100000000E-03 0.  1.
         11   -1    0    0    0    0 -0.00000000000E+00 -0.00000000000E+00 -0.45593999997E+02  0.45594000000E+02  0.51100000000E-03 0. -1.
    9900012    2    1    2    0    0  0.14149206454E+02  0.40672923779E+02 -0.13214639492E+02  0.46142317977E+02  0.10000001966E+02 0.  0.
        -12    1    1    2    0    0 -0.14149206454E+02 -0.40672923779E+02  0.13214639492E+02  0.45045682023E+02  0.00000000000E+00 0.  1.
         11    1    3    3    0    0  0.21155252445E+01  0.11795737060E+02 -0.23844900754E+01  0.12218864637E+02  0.51100000000E-03 0. -1.
        -11    1    3    3    0    0  0.10132228128E+02  0.28404913309E+02 -0.10518298198E+02  0.31939563933E+02  0.51100000000E-03 0.  1.
        -12    1    3    3    0    0  0.19014530817E+01  0.47227340997E+00 -0.31185121868E+00  0.19838894068E+01  0.00000000000E+00 0.  1.
</event>
<event>
 7    1  0.3919732E-008  0.4614232E+02  0.7816164E-02  0.1320468E+00
        -11   -1    0    0    0    0  0.00000000000E+00  0.00000000000E+00  0.45593999997E+02  0.45594000000E+02  0.51100000000E-03 0.  1.
         11   -1    0    0    0    0 -0.00000000000E+00 -0.00000000000E+00 -0.45593999997E+02  0.45594000000E+02  0.51100000000E-03 0. -1.
    9900012    2    1    2    0    0 -0.22193778876E+02 -0.39018144859E+02 -0.37595097190E+01  0.46142319160E+02  0.10000012756E+02 0.  0.
        -12    1    1    2    0    0  0.22193778876E+02  0.39018144859E+02  0.37595097190E+01  0.45045680840E+02  0.00000000000E+00 0.  1.
         11    1    3    3    0    0 -0.28971436548E+01 -0.63392716879E+01 -0.14161267308E+01  0.71123288779E+01  0.51100000000E-03 0. -1.
        -11    1    3    3    0    0 -0.68274511200E+01 -0.45966501940E+01 -0.30180182848E+00  0.82361621164E+01  0.51100000000E-03 0.  1.
        -12    1    3    3    0    0 -0.12469184101E+02 -0.28082222977E+02 -0.20415811597E+01  0.30793828166E+02  0.00000000000E+00 0.  1.
</event>
<event>
 7    1  0.3919732E-008  0.4614232E+02  0.7816164E-02  0.1320468E+00
        -11   -1    0    0    0    0  0.00000000000E+00  0.00000000000E+00  0.45593999997E+02  0.45594000000E+02  0.51100000000E-03 0.  1.
         11   -1    0    0    0    0 -0.00000000000E+00 -0.00000000000E+00 -0.45593999997E+02  0.45594000000E+02  0.51100000000E-03 0. -1.
    9900012    2    1    2    0    0  0.78583212185E+01 -0.27986934226E+02 -0.34410637644E+02  0.46142315603E+02  0.99999803215E+01 0.  0.
        -12    1    1    2    0    0 -0.78583212185E+01  0.27986934226E+02  0.34410637644E+02  0.45045684397E+02  0.00000000000E+00 0.  1.
         11    1    3    3    0    0  0.50497166406E+01 -0.88577685497E+01 -0.83737530639E+01  0.13193916874E+02  0.51100000000E-03 0. -1.
        -11    1    3    3    0    0  0.47553619782E+00  0.20000969930E-01 -0.23613448524E+01  0.24088346742E+01  0.51100000000E-03 0.  1.
        -12    1    3    3    0    0  0.23330683800E+01 -0.19149166646E+02 -0.23675539727E+02  0.30539564055E+02  0.00000000000E+00 0.  1.
</event>
<event>
 7    1  0.3919732E-008  0.4614232E+02  0.7816164E-02  0.1320468E+00
        -11   -1    0    0    0    0  0.00000000000E+00  0.00000000000E+00  0.45593999997E+02  0.45594000000E+02  0.51100000000E-03 0.  1.
         11   -1    0    0    0    0 -0.00000000000E+00 -0.00000000000E+00 -0.45593999997E+02  0.45594000000E+02  0.51100000000E-03 0. -1.
    9900012    2    1    2    0    0 -0.18113770704E+02 -0.41048972626E+02 -0.39983357610E+01  0.46142317280E+02  0.99999956168E+01 0.  0.
        -12    1    1    2    0    0  0.18113770704E+02  0.41048972626E+02  0.39983357610E+01  0.45045682720E+02  0.00000000000E+00 0.  1.
         11    1    3    3    0    0 -0.10223937980E+02 -0.19309108755E+02  0.69458020629E+00  0.21859849740E+02  0.51100000000E-03 0. -1.
        -11    1    3    3    0    0  0.26909687118E+00 -0.14244846799E+01  0.87462209226E+00  0.16930841074E+01  0.51100000000E-03 0.  1.
         12    1    3    3    0    0 -0.81589295956E+01 -0.20315379191E+02 -0.55675380596E+01  0.22589383433E+02  0.00000000000E+00 0. -1.
</event>
<event>
 7    1  0.3919732E-008  0.4614232E+02  0.7816164E-02  0.1320468E+00
        -11   -1    0    0    0    0  0.00000000000E+00  0.00000000000E+00  0.45593999997E+02  0.45594000000E+02  0.51100000000E-03 0.  1.
         11   -1    0    0    0    0 -0.00000000000E+00 -0.00000000000E+00 -0.45593999997E+02  0.45594000000E+02  0.51100000000E-03 0. -1.
    9900012    2    1    2    0    0  0.22978829562E+02 -0.38281987909E+02 -0.59645907194E+01  0.46142317091E+02  0.99999938894E+01 0.  0.
        -12    1    1    2    0    0 -0.22978829562E+02  0.38281987909E+02  0.59645907194E+01  0.45045682909E+02  0.00000000000E+00 0.  1.
         11    1    3    3    0    0  0.32126626594E+01 -0.54960227158E+01 -0.63337541675E+00  0.63975488850E+01  0.51100000000E-03 0. -1.
        -11    1    3    3    0    0  0.14463111618E+02 -0.24349066590E+02 -0.79992327427E+01  0.29428665723E+02  0.51100000000E-03 0.  1.
        -12    1    3    3    0    0  0.53030552853E+01 -0.84368986023E+01  0.26680174400E+01  0.10316102483E+02  0.00000000000E+00 0.  1.
</event>
<event>
 7    1  0.3919732E-008  0.4614232E+02  0.7816164E-02  0.1320468E+00
        -11   -1    0    0    0    0  0.00000000000E+00  0.00000000000E+00  0.45593999997E+02  0.45594000000E+02  0.51100000000E-03 0.  1.
         11   -1    0    0    0    0 -0.00000000000E+00 -0.00000000000E+00 -0.45593999997E+02  0.45594000000E+02  0.51100000000E-03 0. -1.
    9900012    2    1    2    0    0  0.42519817263E+02 -0.14671683804E+02 -0.24332031275E+01  0.46142316043E+02  0.99999843352E+01 0.  0.
        -12    1    1    2    0    0 -0.42519817263E+02  0.14671683804E+02  0.24332031275E+01  0.45045683957E+02  0.00000000000E+00 0.  1.
         11    1    3    3    0    0  0.15164105339E+01 -0.19578143682E+01 -0.10644202597E+01  0.26954644791E+01  0.51100000000E-03 0. -1.
        -11    1    3    3    0    0  0.40319943104E+02 -0.12975364267E+02 -0.56532660320E+00  0.42360093062E+02  0.51100000000E-03 0.  1.
        -12    1    3    3    0    0  0.68346362439E+00  0.26149483168E+00 -0.80345626464E+00  0.10867585022E+01  0.00000000000E+00 0.  1.
</event>
<event>
 7    1  0.3919732E-008  0.4614232E+02  0.7816164E-02  0.1320468E+00
        -11   -1    0    0    0    0  0.00000000000E+00  0.00000000000E+00  0.45593999997E+02  0.45594000000E+02  0.51100000000E-03 0.  1.
         11   -1    0    0    0    0 -0.00000000000E+00 -0.00000000000E+00 -0.45593999997E+02  0.45594000000E+02  0.51100000000E-03 0. -1.
    9900012    2    1    2    0    0 -0.10635453907E+02  0.11139305609E+02 -0.42331034078E+02  0.46142318128E+02  0.10000003341E+02 0.  0.
        -12    1    1    2    0    0  0.10635453907E+02 -0.11139305609E+02  0.42331034078E+02  0.45045681872E+02  0.00000000000E+00 0.  1.
         11    1    3    3    0    0 -0.30881224928E+01  0.18014103289E+01 -0.79441599893E+01  0.87115588674E+01  0.51100000000E-03 0. -1.
        -11    1    3    3    0    0 -0.11716452546E+01 -0.68347478398E+00 -0.37901765320E+00  0.14083838346E+01  0.51100000000E-03 0.  1.
        -12    1    3    3    0    0 -0.63756861591E+01  0.10021370064E+02 -0.34007856435E+02  0.36022375426E+02  0.00000000000E+00 0.  1.
</event>
<event>
 7    1  0.3919732E-008  0.4614232E+02  0.7816164E-02  0.1320468E+00
        -11   -1    0    0    0    0  0.00000000000E+00  0.00000000000E+00  0.45593999997E+02  0.45594000000E+02  0.51100000000E-03 0.  1.
         11   -1    0    0    0    0 -0.00000000000E+00 -0.00000000000E+00 -0.45593999997E+02  0.45594000000E+02  0.51100000000E-03 0. -1.
    9900012    2    1    2    0    0  0.22818364504E+01  0.38041072529E+02 -0.24016317849E+02  0.46142317635E+02  0.99999988474E+01 0.  0.
        -12    1    1    2    0    0 -0.22818364504E+01 -0.38041072529E+02  0.24016317849E+02  0.45045682365E+02  0.00000000000E+00 0.  1.
         11    1    3    3    0    0 -0.13229654116E+01  0.15126785045E+02 -0.93693862205E+01  0.17842512762E+02  0.51100000000E-03 0. -1.
        -11    1    3    3    0    0  0.43080934748E+01  0.21670579264E+02 -0.11645883701E+02  0.24975994123E+02  0.51100000000E-03 0.  1.
        -12    1    3    3    0    0 -0.70329161285E+00  0.12437082206E+01 -0.30010479280E+01  0.33238107493E+01  0.00000000000E+00 0.  1.
</event>
<event>
 7    1  0.3919732E-008  0.4614232E+02  0.7816164E-02  0.1320468E+00
        -11   -1    0    0    0    0  0.00000000000E+00  0.00000000000E+00  0.45593999997E+02  0.45594000000E+02  0.51100000000E-03 0. -1.
         11   -1    0    0    0    0 -0.00000000000E+00 -0.00000000000E+00 -0.45593999997E+02  0.45594000000E+02  0.51100000000E-03 0.  1.
    9900012    2    1    2    0    0  0.73480667584E+01  0.19664093213E+02  0.39855272323E+02  0.46142318976E+02  0.10000011077E+02 0.  0.
        -12    1    1    2    0    0 -0.73480667584E+01 -0.19664093213E+02 -0.39855272323E+02  0.45045681024E+02  0.00000000000E+00 0.  1.
         11    1    3    3    0    0  0.85950994147E+01  0.11372327616E+02  0.22145129344E+02  0.26336520714E+02  0.51100000000E-03 0. -1.
        -11    1    3    3    0    0 -0.48690107063E+00  0.40687751573E-01  0.47080290513E+00  0.67851586740E+00  0.51100000000E-03 0.  1.
         12    1    3    3    0    0 -0.76013158560E+00  0.82510778454E+01  0.17239340074E+02  0.19127282395E+02  0.00000000000E+00 0. -1.
</event>
<event>
 7    1  0.3919732E-008  0.4614232E+02  0.7816164E-02  0.1320468E+00
        -11   -1    0    0    0    0  0.00000000000E+00  0.00000000000E+00  0.45593999997E+02  0.45594000000E+02  0.51100000000E-03 0. -1.
         11   -1    0    0    0    0 -0.00000000000E+00 -0.00000000000E+00 -0.45593999997E+02  0.45594000000E+02  0.51100000000E-03 0.  1.
    9900012    2    1    2    0    0  0.17457948913E+02  0.69223369919E+01  0.40944045580E+02  0.46142316543E+02  0.99999888898E+01 0.  0.
        -12    1    1    2    0    0 -0.17457948913E+02 -0.69223369919E+01 -0.40944045580E+02  0.45045683457E+02  0.00000000000E+00 0.  1.
         11    1    3    3    0    0  0.82529348529E+00  0.22935439503E+01  0.91975860292E+01  0.95150954917E+01  0.51100000000E-03 0. -1.
        -11    1    3    3    0    0  0.24036498790E+01  0.16034008054E+01  0.19993681512E+01  0.35136733127E+01  0.51100000000E-03 0.  1.
         12    1    3    3    0    0  0.14229005549E+02  0.30253922362E+01  0.29747091400E+02  0.33113547738E+02  0.00000000000E+00 0. -1.
</event>
<event>
 7    1  0.3919732E-008  0.4614232E+02  0.7816164E-02  0.1320468E+00
        -11   -1    0    0    0    0  0.00000000000E+00  0.00000000000E+00  0.45593999997E+02  0.45594000000E+02  0.51100000000E-03 0. -1.
         11   -1    0    0    0    0 -0.00000000000E+00 -0.00000000000E+00 -0.45593999997E+02  0.45594000000E+02  0.51100000000E-03 0.  1.
    9900012    2    1    2    0    0  0.43183334029E+02  0.10775557470E+02 -0.69426565238E+01  0.46142318117E+02  0.10000003248E+02 0.  0.
        -12    1    1    2    0    0 -0.43183334029E+02 -0.10775557470E+02  0.69426565238E+01  0.45045681883E+02  0.00000000000E+00 0.  1.
         11    1    3    3    0    0  0.57853155864E+01  0.25643368558E+01  0.28866363678E+00  0.63347475799E+01  0.51100000000E-03 0. -1.
        -11    1    3    3    0    0  0.14787766652E+02  0.66567541785E+01 -0.74526614121E+00  0.16234095005E+02  0.51100000000E-03 0.  1.
         12    1    3    3    0    0  0.22610251790E+02  0.15544664358E+01 -0.64860540194E+01  0.23573475532E+02  0.00000000000E+00 0. -1.
</event>
<event>
 7    1  0.3919732E-008  0.4614232E+02  0.7816164E-02  0.1320468E+00
        -11   -1    0    0    0    0  0.00000000000E+00  0.00000000000E+00  0.45593999997E+02  0.45594000000E+02  0.51100000000E-03 0. -1.
         11   -1    0    0    0    0 -0.00000000000E+00 -0.00000000000E+00 -0.45593999997E+02  0.45594000000E+02  0.51100000000E-03 0.  1.
    9900012    2    1    2    0    0 -0.27181947304E+02 -0.22827617322E+02  0.27733644528E+02  0.46142318624E+02  0.10000007870E+02 0.  0.
        -12    1    1    2    0    0  0.27181947304E+02  0.22827617322E+02 -0.27733644528E+02  0.45045681376E+02  0.00000000000E+00 0.  1.
         11    1    3    3    0    0 -0.25170400000E+01 -0.10249228395E+00  0.88197308665E+00  0.26690582266E+01  0.51100000000E-03 0. -1.
        -11    1    3    3    0    0 -0.14512296493E+02 -0.90326402211E+01  0.12271554476E+02  0.21042490071E+02  0.51100000000E-03 0.  1.
         12    1    3    3    0    0 -0.10152610811E+02 -0.13692484817E+02  0.14580116965E+02  0.22430770327E+02  0.00000000000E+00 0. -1.
</event>
<event>
 7    1  0.3919732E-008  0.4614232E+02  0.7816164E-02  0.1320468E+00
        -11   -1    0    0    0    0  0.00000000000E+00  0.00000000000E+00  0.45593999997E+02  0.45594000000E+02  0.51100000000E-03 0. -1.
         11   -1    0    0    0    0 -0.00000000000E+00 -0.00000000000E+00 -0.45593999997E+02  0.45594000000E+02  0.51100000000E-03 0.  1.
    9900012    2    1    2    0    0  0.11007645239E+02 -0.17581944472E+01  0.43644630562E+02  0.46142320093E+02  0.10000021264E+02 0.  0.
        -12    1    1    2    0    0 -0.11007645239E+02  0.17581944472E+01 -0.43644630562E+02  0.45045679907E+02  0.00000000000E+00 0.  1.
         11    1    3    3    0    0 -0.49367412386E+00  0.16916415188E+01  0.54340900301E+01  0.57126788712E+01  0.51100000000E-03 0. -1.
        -11    1    3    3    0    0  0.48244994169E+01 -0.42206670587E+01  0.20864118097E+02  0.21826617907E+02  0.51100000000E-03 0.  1.
         12    1    3    3    0    0  0.66768199459E+01  0.77083109277E+00  0.17346422435E+02  0.18603023315E+02  0.00000000000E+00 0. -1.
</event>
<event>
 7    1  0.3919732E-008  0.4614232E+02  0.7816164E-02  0.1320468E+00
        -11   -1    0    0    0    0  0.00000000000E+00  0.00000000000E+00  0.45593999997E+02  0.45594000000E+02  0.51100000000E-03 0. -1.
         11   -1    0    0    0    0 -0.00000000000E+00 -0.00000000000E+00 -0.45593999997E+02  0.45594000000E+02  0.51100000000E-03 0.  1.
    9900012    2    1    2    0    0  0.24481190231E+02 -0.19211843155E+02  0.32568234031E+02  0.46142318071E+02  0.10000002830E+02 0.  0.
        -12    1    1    2    0    0 -0.24481190231E+02  0.19211843155E+02 -0.32568234031E+02  0.45045681929E+02  0.00000000000E+00 0.  1.
         11    1    3    3    0    0  0.18822098781E+01 -0.62903354631E+00  0.23793562740E+01  0.30983437136E+01  0.51100000000E-03 0. -1.
        -11    1    3    3    0    0  0.73723195207E+01 -0.50885099291E+01  0.38201403567E+01  0.97384547553E+01  0.51100000000E-03 0.  1.
        -12    1    3    3    0    0  0.15226660832E+02 -0.13494299680E+02  0.26368737400E+02  0.33305519603E+02  0.00000000000E+00 0.  1.
</event>
<event>
 7    1  0.3919732E-008  0.4614232E+02  0.7816164E-02  0.1320468E+00
        -11   -1    0    0    0    0  0.00000000000E+00  0.00000000000E+00  0.45593999997E+02  0.45594000000E+02  0.51100000000E-03 0.  1.
         11   -1    0    0    0    0 -0.00000000000E+00 -0.00000000000E+00 -0.45593999997E+02  0.45594000000E+02  0.51100000000E-03 0. -1.
    9900012    2    1    2    0    0 -0.41807767434E+01 -0.10588669020E+02 -0.43583421856E+02  0.46142318004E+02  0.10000002218E+02 0.  0.
        -12    1    1    2    0    0  0.41807767434E+01  0.10588669020E+02  0.43583421856E+02  0.45045681996E+02  0.00000000000E+00 0.  1.
         11    1    3    3    0    0 -0.17242400820E+01 -0.62777187732E+01 -0.26577853415E+02  0.27363571574E+02  0.51100000000E-03 0. -1.
        -11    1    3    3    0    0  0.19683184494E+01 -0.41014070235E+00 -0.53542915519E+01  0.57193470955E+01  0.51100000000E-03 0.  1.
        -12    1    3    3    0    0 -0.44248551108E+01 -0.39008095443E+01 -0.11651276889E+02  0.13059399335E+02  0.00000000000E+00 0.  1.
</event>
<event>
 7    1  0.3919732E-008  0.4614232E+02  0.7816164E-02  0.1320468E+00
        -11   -1    0    0    0    0  0.00000000000E+00  0.00000000000E+00  0.45593999997E+02  0.45594000000E+02  0.51100000000E-03 0. -1.
         11   -1    0    0    0    0 -0.00000000000E+00 -0.00000000000E+00 -0.45593999997E+02  0.45594000000E+02  0.51100000000E-03 0.  1.
    9900012    2    1    2    0    0 -0.11824006964E+02  0.38175863845E+02  0.20782439306E+02  0.46142317582E+02  0.99999983663E+01 0.  0.
        -12    1    1    2    0    0  0.11824006964E+02 -0.38175863845E+02 -0.20782439306E+02  0.45045682418E+02  0.00000000000E+00 0.  1.
         11    1    3    3    0    0 -0.52465714822E+01  0.15067638801E+02  0.56638485494E+01  0.16930429174E+02  0.51100000000E-03 0. -1.
        -11    1    3    3    0    0 -0.26140476262E+01  0.11304618351E+02  0.33445544873E+01  0.12075333786E+02  0.51100000000E-03 0.  1.
        -12    1    3    3    0    0 -0.39633878553E+01  0.11803606693E+02  0.11774036270E+02  0.17136554623E+02  0.00000000000E+00 0.  1.
</event>
<event>
 7    1  0.3919732E-008  0.4614232E+02  0.7816164E-02  0.1320468E+00
        -11   -1    0    0    0    0  0.00000000000E+00  0.00000000000E+00  0.45593999997E+02  0.45594000000E+02  0.51100000000E-03 0.  1.
         11   -1    0    0    0    0 -0.00000000000E+00 -0.00000000000E+00 -0.45593999997E+02  0.45594000000E+02  0.51100000000E-03 0. -1.
    9900012    2    1    2    0    0 -0.23307481034E+02 -0.34487049818E+02 -0.17219702353E+02  0.46142318448E+02  0.10000006267E+02 0.  0.
        -12    1    1    2    0    0  0.23307481034E+02  0.34487049818E+02  0.17219702353E+02  0.45045681552E+02  0.00000000000E+00 0.  1.
         11    1    3    3    0    0 -0.11735871027E+02 -0.14358741914E+02 -0.66600937828E+01  0.19704339308E+02  0.51100000000E-03 0. -1.
        -11    1    3    3    0    0 -0.18745634554E+01 -0.68489068564E+01 -0.62003162344E+01  0.94268465005E+01  0.51100000000E-03 0.  1.
        -12    1    3    3    0    0 -0.96970465514E+01 -0.13279401048E+02 -0.43592923363E+01  0.17011132640E+02  0.00000000000E+00 0.  1.
</event>
<event>
 7    1  0.3919732E-008  0.4614232E+02  0.7816164E-02  0.1320468E+00
        -11   -1    0    0    0    0  0.00000000000E+00  0.00000000000E+00  0.45593999997E+02  0.45594000000E+02  0.51100000000E-03 0. -1.
         11   -1    0    0    0    0 -0.00000000000E+00 -0.00000000000E+00 -0.45593999997E+02  0.45594000000E+02  0.51100000000E-03 0.  1.
    9900012    2    1    2    0    0 -0.40397781896E+02  0.19704287176E+02 -0.29788872008E+01  0.46142317807E+02  0.10000000420E+02 0.  0.
        -12    1    1    2    0    0  0.40397781896E+02 -0.19704287176E+02  0.29788872008E+01  0.45045682193E+02  0.00000000000E+00 0.  1.
         11    1    3    3    0    0 -0.14970561856E+02  0.73410513062E+01 -0.95794412798E+00  0.16701090197E+02  0.51100000000E-03 0. -1.
        -11    1    3    3    0    0 -0.13002935970E+02  0.67799178935E+01  0.29187795916E+01  0.14952020099E+02  0.51100000000E-03 0.  1.
        -12    1    3    3    0    0 -0.12424284071E+02  0.55833179767E+01 -0.49397226644E+01  0.14489207511E+02  0.00000000000E+00 0.  1.
</event>
<event>
 7    1  0.3919732E-008  0.4614232E+02  0.7816164E-02  0.1320468E+00
        -11   -1    0    0    0    0  0.00000000000E+00  0.00000000000E+00  0.45593999997E+02  0.45594000000E+02  0.51100000000E-03 0.  1.
         11   -1    0    0    0    0 -0.00000000000E+00 -0.00000000000E+00 -0.45593999997E+02  0.45594000000E+02  0.51100000000E-03 0. -1.
    9900012    2    1    2    0    0  0.18237280701E+02  0.34395165203E+02 -0.22660267180E+02  0.46142317573E+02  0.99999982813E+01 0.  0.
        -12    1    1    2    0    0 -0.18237280701E+02 -0.34395165203E+02  0.22660267180E+02  0.45045682427E+02  0.00000000000E+00 0.  1.
         11    1    3    3    0    0  0.13341690203E+02  0.22655045640E+02 -0.18024837520E+02  0.31877053789E+02  0.51100000000E-03 0. -1.
        -11    1    3    3    0    0  0.22543137663E+01  0.57701943433E+01 -0.46353340032E+01  0.77371438463E+01  0.51100000000E-03 0.  1.
        -12    1    3    3    0    0  0.26412767321E+01  0.59699252196E+01 -0.95656611904E-04  0.65281199370E+01  0.00000000000E+00 0.  1.
</event>
<event>
 7    1  0.3919732E-008  0.4614232E+02  0.7816164E-02  0.1320468E+00
        -11   -1    0    0    0    0  0.00000000000E+00  0.00000000000E+00  0.45593999997E+02  0.45594000000E+02  0.51100000000E-03 0.  1.
         11   -1    0    0    0    0 -0.00000000000E+00 -0.00000000000E+00 -0.45593999997E+02  0.45594000000E+02  0.51100000000E-03 0. -1.
    9900012    2    1    2    0    0  0.43832320214E+02 -0.57309542107E+01 -0.86601055786E+01  0.46142316964E+02  0.99999927334E+01 0.  0.
        -12    1    1    2    0    0 -0.43832320214E+02  0.57309542107E+01  0.86601055786E+01  0.45045683036E+02  0.00000000000E+00 0.  1.
         11    1    3    3    0    0  0.34354153426E+02 -0.74526694536E+01 -0.91703393246E+01  0.36329674691E+02  0.51100000000E-03 0. -1.
        -11    1    3    3    0    0  0.18158238639E+01  0.10740606793E+01  0.11391413757E+00  0.21127705363E+01  0.51100000000E-03 0.  1.
         12    1    3    3    0    0  0.76623429247E+01  0.64765456357E+00  0.39631960846E+00  0.76998717367E+01  0.00000000000E+00 0. -1.
</event>
<event>
 7    1  0.3919732E-008  0.4614232E+02  0.7816164E-02  0.1320468E+00
        -11   -1    0    0    0    0  0.00000000000E+00  0.00000000000E+00  0.45593999997E+02  0.45594000000E+02  0.51100000000E-03 0.  1.
         11   -1    0    0    0    0 -0.00000000000E+00 -0.00000000000E+00 -0.45593999997E+02  0.45594000000E+02  0.51100000000E-03 0. -1.
    9900012    2    1    2    0    0 -0.11591789138E+02  0.21644988545E+02 -0.37765569344E+02  0.46142319492E+02  0.10000015788E+02 0.  0.
        -12    1    1    2    0    0  0.11591789138E+02 -0.21644988545E+02  0.37765569344E+02  0.45045680508E+02  0.00000000000E+00 0.  1.
         11    1    3    3    0    0 -0.34801201696E+01  0.30706483621E+01 -0.83670366954E+01  0.95680416534E+01  0.51100000000E-03 0. -1.
        -11    1    3    3    0    0 -0.74232790163E+01  0.18329140179E+02 -0.29781595084E+02  0.35749207782E+02  0.51100000000E-03 0.  1.
        -12    1    3    3    0    0 -0.68838995251E+00  0.24520000406E+00  0.38306243590E+00  0.82507005673E+00  0.00000000000E+00 0.  1.
</event>
<event>
 7    1  0.3919732E-008  0.4614232E+02  0.7816164E-02  0.1320468E+00
        -11   -1    0    0    0    0  0.00000000000E+00  0.00000000000E+00  0.45593999997E+02  0.45594000000E+02  0.51100000000E-03 0.  1.
         11   -1    0    0    0    0 -0.00000000000E+00 -0.00000000000E+00 -0.45593999997E+02  0.45594000000E+02  0.51100000000E-03 0. -1.
    9900012    2    1    2    0    0  0.25011580469E+02 -0.37241383086E+02 -0.40759936696E+01  0.46142317675E+02  0.99999992186E+01 0.  0.
        -12    1    1    2    0    0 -0.25011580469E+02  0.37241383086E+02  0.40759936696E+01  0.45045682325E+02  0.00000000000E+00 0.  1.
         11    1    3    3    0    0  0.44723248556E+01 -0.75365449090E+01 -0.31444557380E+01  0.93106820872E+01  0.51100000000E-03 0.  1.
        -11    1    3    3    0    0  0.91247942531E+01 -0.19403578396E+02 -0.74666014400E+00  0.21455027997E+02  0.51100000000E-03 0. -1.
         12    1    3    3    0    0  0.11414461360E+02 -0.10301259781E+02 -0.18487778765E+00  0.15376607591E+02  0.00000000000E+00 0. -1.
</event>
<event>
 7    1  0.3919732E-008  0.4614232E+02  0.7816164E-02  0.1320468E+00
        -11   -1    0    0    0    0  0.00000000000E+00  0.00000000000E+00  0.45593999997E+02  0.45594000000E+02  0.51100000000E-03 0.  1.
         11   -1    0    0    0    0 -0.00000000000E+00 -0.00000000000E+00 -0.45593999997E+02  0.45594000000E+02  0.51100000000E-03 0. -1.
    9900012    2    1    2    0    0 -0.28085891027E+02 -0.19142180658E+02 -0.29561344209E+02  0.46142318447E+02  0.10000006257E+02 0.  0.
        -12    1    1    2    0    0  0.28085891027E+02  0.19142180658E+02  0.29561344209E+02  0.45045681553E+02  0.00000000000E+00 0.  1.
         11    1    3    3    0    0 -0.51511747275E+01 -0.29515636292E+01 -0.56144468000E+01  0.81711897580E+01  0.51100000000E-03 0. -1.
        -11    1    3    3    0    0 -0.15740262822E+02 -0.58967225893E+01 -0.12144480829E+02  0.20736818123E+02  0.51100000000E-03 0.  1.
        -12    1    3    3    0    0 -0.71944534774E+01 -0.10293894439E+02 -0.11802416580E+02  0.17234310566E+02  0.00000000000E+00 0.  1.
</event>
<event>
 7    1  0.3919732E-008  0.4614232E+02  0.7816164E-02  0.1320468E+00
        -11   -1    0    0    0    0  0.00000000000E+00  0.00000000000E+00  0.45593999997E+02  0.45594000000E+02  0.51100000000E-03 0.  1.
         11   -1    0    0    0    0 -0.00000000000E+00 -0.00000000000E+00 -0.45593999997E+02  0.45594000000E+02  0.51100000000E-03 0. -1.
    9900012    2    1    2    0    0  0.20018846078E+02  0.21128913518E+02 -0.34379185715E+02  0.46142316575E+02  0.99999891882E+01 0.  0.
        -12    1    1    2    0    0 -0.20018846078E+02 -0.21128913518E+02  0.34379185715E+02  0.45045683425E+02  0.00000000000E+00 0.  1.
         11    1    3    3    0    0  0.55104179448E+01  0.88844296362E+01 -0.11442423504E+02  0.15499253265E+02  0.51100000000E-03 0. -1.
        -11    1    3    3    0    0  0.31667234148E+01  0.24570982369E+01 -0.10271441157E+02  0.11025786713E+02  0.51100000000E-03 0.  1.
        -12    1    3    3    0    0  0.11341704718E+02  0.97873856454E+01 -0.12665321054E+02  0.19617276597E+02  0.00000000000E+00 0.  1.
</event>
<event>
 7    1  0.3919732E-008  0.4614232E+02  0.7816164E-02  0.1320468E+00
        -11   -1    0    0    0    0  0.00000000000E+00  0.00000000000E+00  0.45593999997E+02  0.45594000000E+02  0.51100000000E-03 0.  1.
         11   -1    0    0    0    0 -0.00000000000E+00 -0.00000000000E+00 -0.45593999997E+02  0.45594000000E+02  0.51100000000E-03 0. -1.
    9900012    2    1    2    0    0 -0.20848583731E+02 -0.18315293911E+01 -0.39888538111E+02  0.46142318564E+02  0.10000007317E+02 0.  0.
        -12    1    1    2    0    0  0.20848583731E+02  0.18315293911E+01  0.39888538111E+02  0.45045681436E+02  0.00000000000E+00 0.  1.
         11    1    3    3    0    0 -0.93875594109E+01 -0.29511665446E+01 -0.10212611052E+02  0.14182139487E+02  0.51100000000E-03 0. -1.
        -11    1    3    3    0    0 -0.93494260477E+00  0.88894159404E+00 -0.42215105983E+01  0.44142368337E+01  0.51100000000E-03 0.  1.
         12    1    3    3    0    0 -0.10526081715E+02  0.23069555940E+00 -0.25454416461E+02  0.27545942243E+02  0.00000000000E+00 0. -1.
</event>
<event>
 7    1  0.3919732E-008  0.4614232E+02  0.7816164E-02  0.1320468E+00
        -11   -1    0    0    0    0  0.00000000000E+00  0.00000000000E+00  0.45593999997E+02  0.45594000000E+02  0.51100000000E-03 0.  1.
         11   -1    0    0    0    0 -0.00000000000E+00 -0.00000000000E+00 -0.45593999997E+02  0.45594000000E+02  0.51100000000E-03 0. -1.
    9900012    2    1    2    0    0 -0.26721273712E+02 -0.10567964858E+02 -0.34690124333E+02  0.46142322335E+02  0.10000041713E+02 0.  0.
        -12    1    1    2    0    0  0.26721273712E+02  0.10567964858E+02  0.34690124333E+02  0.45045677665E+02  0.00000000000E+00 0.  1.
         11    1    3    3    0    0 -0.62851427742E+01 -0.21633514911E+01 -0.82341800391E+01  0.10582288531E+02  0.51100000000E-03 0. -1.
        -11    1    3    3    0    0 -0.16370977369E+02 -0.27518711261E+01 -0.20642171470E+02  0.26489260805E+02  0.51100000000E-03 0.  1.
        -12    1    3    3    0    0 -0.40651535684E+01 -0.56527422409E+01 -0.58137728238E+01  0.90707730003E+01  0.00000000000E+00 0.  1.
</event>
<event>
 7    1  0.3919732E-008  0.4614232E+02  0.7816164E-02  0.1320468E+00
        -11   -1    0    0    0    0  0.00000000000E+00  0.00000000000E+00  0.45593999997E+02  0.45594000000E+02  0.51100000000E-03 0.  1.
         11   -1    0    0    0    0 -0.00000000000E+00 -0.00000000000E+00 -0.45593999997E+02  0.45594000000E+02  0.51100000000E-03 0. -1.
    9900012    2    1    2    0    0 -0.21344115082E+02  0.21794805801E+02 -0.33144059741E+02  0.46142317580E+02  0.99999983522E+01 0.  0.
        -12    1    1    2    0    0  0.21344115082E+02 -0.21794805801E+02  0.33144059741E+02  0.45045682420E+02  0.00000000000E+00 0.  1.
         11    1    3    3    0    0 -0.13954678097E+02  0.17328872416E+02 -0.25817564629E+02  0.34081806050E+02  0.51100000000E-03 0. -1.
        -11    1    3    3    0    0 -0.18858644891E+01  0.23967810470E+01 -0.56767577855E+00  0.31021444694E+01  0.51100000000E-03 0.  1.
        -12    1    3    3    0    0 -0.55035724963E+01  0.20691523380E+01 -0.67588193331E+01  0.89583670609E+01  0.00000000000E+00 0.  1.
</event>
<event>
 7    1  0.3919732E-008  0.4614232E+02  0.7816164E-02  0.1320468E+00
        -11   -1    0    0    0    0  0.00000000000E+00  0.00000000000E+00  0.45593999997E+02  0.45594000000E+02  0.51100000000E-03 0.  1.
         11   -1    0    0    0    0 -0.00000000000E+00 -0.00000000000E+00 -0.45593999997E+02  0.45594000000E+02  0.51100000000E-03 0. -1.
    9900012    2    1    2    0    0  0.37323719969E+02  0.11169977514E+02 -0.22611612272E+02  0.46142317859E+02  0.10000000897E+02 0.  0.
        -12    1    1    2    0    0 -0.37323719969E+02 -0.11169977514E+02  0.22611612272E+02  0.45045682141E+02  0.00000000000E+00 0.  1.
         11    1    3    3    0    0  0.17384130731E+02  0.50471018113E+01 -0.93500034354E+01  0.20374096360E+02  0.51100000000E-03 0. -1.
        -11    1    3    3    0    0  0.20189917074E+02  0.66627423886E+01 -0.13432985250E+02  0.25148955855E+02  0.51100000000E-03 0.  1.
        -12    1    3    3    0    0 -0.25032783664E+00 -0.53986668556E+00  0.17137641347E+00  0.61926564499E+00  0.00000000000E+00 0.  1.
</event>
<event>
 7    1  0.3919732E-008  0.4614232E+02  0.7816164E-02  0.1320468E+00
        -11   -1    0    0    0    0  0.00000000000E+00  0.00000000000E+00  0.45593999997E+02  0.45594000000E+02  0.51100000000E-03 0.  1.
         11   -1    0    0    0    0 -0.00000000000E+00 -0.00000000000E+00 -0.45593999997E+02  0.45594000000E+02  0.51100000000E-03 0. -1.
    9900012    2    1    2    0    0  0.21867534672E+02  0.20339281399E+02 -0.33722960238E+02  0.46142317769E+02  0.10000000074E+02 0.  0.
        -12    1    1    2    0    0 -0.21867534672E+02 -0.20339281399E+02  0.33722960238E+02  0.45045682231E+02  0.00000000000E+00 0.  1.
         11    1    3    3    0    0  0.45558307715E+01  0.46361324190E+01 -0.77031049929E+01  0.10079044827E+02  0.51100000000E-03 0. -1.
        -11    1    3    3    0    0  0.12898097578E+02  0.71707520553E+01 -0.19494436403E+02  0.24450228161E+02  0.51100000000E-03 0.  1.
        -12    1    3    3    0    0  0.44136063223E+01  0.85323969249E+01 -0.65254188414E+01  0.11613044782E+02  0.00000000000E+00 0.  1.
</event>
<event>
 7    1  0.3919732E-008  0.4614231E+02  0.7816164E-02  0.1320468E+00
        -11   -1    0    0    0    0  0.00000000000E+00  0.00000000000E+00  0.45593999997E+02  0.45594000000E+02  0.51100000000E-03 0.  1.
         11   -1    0    0    0    0 -0.00000000000E+00 -0.00000000000E+00 -0.45593999997E+02  0.45594000000E+02  0.51100000000E-03 0. -1.
    9900012    2    1    2    0    0 -0.59562691225E+01 -0.11272336809E+02 -0.43203831957E+02  0.46142314138E+02  0.99999669606E+01 0.  0.
        -12    1    1    2    0    0  0.59562691225E+01  0.11272336809E+02  0.43203831957E+02  0.45045685862E+02  0.00000000000E+00 0.  1.
         11    1    3    3    0    0  0.21114082694E+01 -0.17094339988E+01 -0.48867877653E+01  0.55911451779E+01  0.51100000000E-03 0. -1.
        -11    1    3    3    0    0 -0.75793890651E+00 -0.24698566651E+01 -0.13145583408E+02  0.13397052912E+02  0.51100000000E-03 0.  1.
         12    1    3    3    0    0 -0.73097384853E+01 -0.70930461453E+01 -0.25171460784E+02  0.27154116048E+02  0.00000000000E+00 0. -1.
</event>
<event>
 7    1  0.3919732E-008  0.4614232E+02  0.7816164E-02  0.1320468E+00
        -11   -1    0    0    0    0  0.00000000000E+00  0.00000000000E+00  0.45593999997E+02  0.45594000000E+02  0.51100000000E-03 0.  1.
         11   -1    0    0    0    0 -0.00000000000E+00 -0.00000000000E+00 -0.45593999997E+02  0.45594000000E+02  0.51100000000E-03 0. -1.
    9900012    2    1    2    0    0  0.22293357824E+00  0.28864956260E+02 -0.34581470770E+02  0.46142317411E+02  0.99999968056E+01 0.  0.
        -12    1    1    2    0    0 -0.22293357824E+00 -0.28864956260E+02  0.34581470770E+02  0.45045682589E+02  0.00000000000E+00 0.  1.
         11    1    3    3    0    0 -0.17572475956E+01  0.41648087924E+01 -0.57153735924E+01  0.72869092866E+01  0.51100000000E-03 0. -1.
        -11    1    3    3    0    0 -0.30804971228E+01  0.93134414165E+01 -0.11133834253E+02  0.14838865151E+02  0.51100000000E-03 0.  1.
        -12    1    3    3    0    0  0.50606782966E+01  0.15386706051E+02 -0.17732262925E+02  0.24016542973E+02  0.00000000000E+00 0.  1.
</event>
<event>
 7    1  0.3919732E-008  0.4614232E+02  0.7816164E-02  0.1320468E+00
        -11   -1    0    0    0    0  0.00000000000E+00  0.00000000000E+00  0.45593999997E+02  0.45594000000E+02  0.51100000000E-03 0.  1.
         11   -1    0    0    0    0 -0.00000000000E+00 -0.00000000000E+00 -0.45593999997E+02  0.45594000000E+02  0.51100000000E-03 0. -1.
    9900012    2    1    2    0    0 -0.28830152839E+02  0.26408398938E+02 -0.22372577956E+02  0.46142317725E+02  0.99999996743E+01 0.  0.
        -12    1    1    2    0    0  0.28830152839E+02 -0.26408398938E+02  0.22372577956E+02  0.45045682275E+02  0.00000000000E+00 0.  1.
         11    1    3    3    0    0 -0.84261005442E+01  0.96359186763E+01 -0.33135145079E+01  0.13222309850E+02  0.51100000000E-03 0. -1.
        -11    1    3    3    0    0 -0.39275337636E+01  0.36176679593E+01 -0.16829404249E+01  0.55986901739E+01  0.51100000000E-03 0.  1.
         12    1    3    3    0    0 -0.16476518531E+02  0.13154812302E+02 -0.17376123024E+02  0.27321317701E+02  0.00000000000E+00 0. -1.
</event>
<event>
 7    1  0.3919732E-008  0.4614232E+02  0.7816164E-02  0.1320468E+00
        -11   -1    0    0    0    0  0.00000000000E+00  0.00000000000E+00  0.45593999997E+02  0.45594000000E+02  0.51100000000E-03 0. -1.
         11   -1    0    0    0    0 -0.00000000000E+00 -0.00000000000E+00 -0.45593999997E+02  0.45594000000E+02  0.51100000000E-03 0.  1.
    9900012    2    1    2    0    0 -0.78307651663E+01 -0.42865062692E+02  0.11418363298E+02  0.46142317597E+02  0.99999985072E+01 0.  0.
        -12    1    1    2    0    0  0.78307651663E+01  0.42865062692E+02 -0.11418363298E+02  0.45045682403E+02  0.00000000000E+00 0.  1.
         11    1    3    3    0    0 -0.18671571144E+01 -0.64403845455E+01  0.30342277826E+01  0.73601200589E+01  0.51100000000E-03 0. -1.
        -11    1    3    3    0    0 -0.22266804768E+01 -0.10545489979E+02  0.64558835939E+01  0.12563594155E+02  0.51100000000E-03 0.  1.
         12    1    3    3    0    0 -0.37369275750E+01 -0.25879188168E+02  0.19282519215E+01  0.26218603384E+02  0.00000000000E+00 0. -1.
</event>
<event>
 7    1  0.3919732E-008  0.4614232E+02  0.7816164E-02  0.1320468E+00
        -11   -1    0    0    0    0  0.00000000000E+00  0.00000000000E+00  0.45593999997E+02  0.45594000000E+02  0.51100000000E-03 0.  1.
         11   -1    0    0    0    0 -0.00000000000E+00 -0.00000000000E+00 -0.45593999997E+02  0.45594000000E+02  0.51100000000E-03 0. -1.
    9900012    2    1    2    0    0 -0.77783941962E+01  0.72579814829E+01 -0.43771357812E+02  0.46142317896E+02  0.10000001233E+02 0.  0.
        -12    1    1    2    0    0  0.77783941962E+01 -0.72579814829E+01  0.43771357812E+02  0.45045682104E+02  0.00000000000E+00 0.  1.
         11    1    3    3    0    0 -0.15493292596E+01  0.13011687155E+01 -0.72875506965E+01  0.75631909004E+01  0.51100000000E-03 0. -1.
        -11    1    3    3    0    0  0.13673750625E+01  0.22419288872E+00 -0.70188581574E+00  0.15532613986E+01  0.51100000000E-03 0.  1.
        -12    1    3    3    0    0 -0.75964399991E+01  0.57326198787E+01 -0.35781921300E+02  0.37025865597E+02  0.00000000000E+00 0.  1.
</event>
<event>
 7    1  0.3919732E-008  0.4614232E+02  0.7816164E-02  0.1320468E+00
        -11   -1    0    0    0    0  0.00000000000E+00  0.00000000000E+00  0.45593999997E+02  0.45594000000E+02  0.51100000000E-03 0.  1.
         11   -1    0    0    0    0 -0.00000000000E+00 -0.00000000000E+00 -0.45593999997E+02  0.45594000000E+02  0.51100000000E-03 0. -1.
    9900012    2    1    2    0    0  0.15411510161E+02 -0.88471544052E+00 -0.42318035795E+02  0.46142317405E+02  0.99999967541E+01 0.  0.
        -12    1    1    2    0    0 -0.15411510161E+02  0.88471544052E+00  0.42318035795E+02  0.45045682595E+02  0.00000000000E+00 0.  1.
         11    1    3    3    0    0  0.38045720854E+01 -0.40578728155E+01 -0.87045010686E+01  0.10330026121E+02  0.51100000000E-03 0. -1.
        -11    1    3    3    0    0  0.15121421369E+01 -0.52426527400E+00 -0.46743960141E+01  0.49407900459E+01  0.51100000000E-03 0.  1.
         12    1    3    3    0    0  0.10094795939E+02  0.36974226490E+01 -0.28939138713E+02  0.30871501239E+02  0.00000000000E+00 0. -1.
</event>
<event>
 7    1  0.3919732E-008  0.4614232E+02  0.7816164E-02  0.1320468E+00
        -11   -1    0    0    0    0  0.00000000000E+00  0.00000000000E+00  0.45593999997E+02  0.45594000000E+02  0.51100000000E-03 0. -1.
         11   -1    0    0    0    0 -0.00000000000E+00 -0.00000000000E+00 -0.45593999997E+02  0.45594000000E+02  0.51100000000E-03 0.  1.
    9900012    2    1    2    0    0  0.25456486471E+01 -0.64755365249E+01  0.44505063463E+02  0.46142316809E+02  0.99999913180E+01 0.  0.
        -12    1    1    2    0    0 -0.25456486471E+01  0.64755365249E+01 -0.44505063463E+02  0.45045683191E+02  0.00000000000E+00 0.  1.
         11    1    3    3    0    0  0.14968223902E+01  0.22784676981E+01  0.72528376203E+01  0.77482608453E+01  0.51100000000E-03 0.  1.
        -11    1    3    3    0    0 -0.10263347014E+01 -0.24281319325E+01  0.10663856646E+02  0.10984854411E+02  0.51100000000E-03 0. -1.
        -12    1    3    3    0    0  0.20751609583E+01 -0.63258722905E+01  0.26588369196E+02  0.27409201553E+02  0.00000000000E+00 0.  1.
</event>
<event>
 7    1  0.3919732E-008  0.4614232E+02  0.7816164E-02  0.1320468E+00
        -11   -1    0    0    0    0  0.00000000000E+00  0.00000000000E+00  0.45593999997E+02  0.45594000000E+02  0.51100000000E-03 0.  1.
         11   -1    0    0    0    0 -0.00000000000E+00 -0.00000000000E+00 -0.45593999997E+02  0.45594000000E+02  0.51100000000E-03 0. -1.
    9900012    2    1    2    0    0  0.13743924784E+02 -0.64813012592E+01 -0.42405313223E+02  0.46142319585E+02  0.10000016632E+02 0.  0.
        -12    1    1    2    0    0 -0.13743924784E+02  0.64813012592E+01  0.42405313223E+02  0.45045680415E+02  0.00000000000E+00 0.  1.
         11    1    3    3    0    0  0.22585182511E+00  0.47550280787E+00 -0.61250918803E+01  0.61476713290E+01  0.51100000000E-03 0. -1.
        -11    1    3    3    0    0  0.33595307539E+01  0.12458595576E+01 -0.10537165676E+02  0.11129711303E+02  0.51100000000E-03 0.  1.
         12    1    3    3    0    0  0.10158542205E+02 -0.82026636246E+01 -0.25743055667E+02  0.28864936953E+02  0.00000000000E+00 0. -1.
</event>
<event>
 7    1  0.3919732E-008  0.4614232E+02  0.7816164E-02  0.1320468E+00
        -11   -1    0    0    0    0  0.00000000000E+00  0.00000000000E+00  0.45593999997E+02  0.45594000000E+02  0.51100000000E-03 0.  1.
         11   -1    0    0    0    0 -0.00000000000E+00 -0.00000000000E+00 -0.45593999997E+02  0.45594000000E+02  0.51100000000E-03 0. -1.
    9900012    2    1    2    0    0 -0.27740034789E+02  0.12586532877E+02 -0.33184079937E+02  0.46142317618E+02  0.99999986951E+01 0.  0.
        -12    1    1    2    0    0  0.27740034789E+02 -0.12586532877E+02  0.33184079937E+02  0.45045682382E+02  0.00000000000E+00 0.  1.
         11    1    3    3    0    0 -0.62672718766E+01  0.77039130733E+00 -0.50496780838E+01  0.80852611926E+01  0.51100000000E-03 0. -1.
        -11    1    3    3    0    0 -0.31307623709E+01  0.76921992968E+00 -0.81648815577E+01  0.87783064104E+01  0.51100000000E-03 0.  1.
         12    1    3    3    0    0 -0.18342000542E+02  0.11046921640E+02 -0.19969520296E+02  0.29278750015E+02  0.00000000000E+00 0. -1.
</event>
<event>
 7    1  0.3919732E-008  0.4614232E+02  0.7816164E-02  0.1320468E+00
        -11   -1    0    0    0    0  0.00000000000E+00  0.00000000000E+00  0.45593999997E+02  0.45594000000E+02  0.51100000000E-03 0.  1.
         11   -1    0    0    0    0 -0.00000000000E+00 -0.00000000000E+00 -0.45593999997E+02  0.45594000000E+02  0.51100000000E-03 0. -1.
    9900012    2    1    2    0    0 -0.39937981551E+02 -0.84088494329E+01 -0.19062066033E+02  0.46142317847E+02  0.10000000787E+02 0.  0.
        -12    1    1    2    0    0  0.39937981551E+02  0.84088494329E+01  0.19062066033E+02  0.45045682153E+02  0.00000000000E+00 0.  1.
         11    1    3    3    0    0 -0.16667267674E+02 -0.33923803641E+01 -0.12414998135E+02  0.21057973198E+02  0.51100000000E-03 0. -1.
        -11    1    3    3    0    0 -0.16911370099E+01  0.45614508031E-01 -0.16490204429E+01  0.23624761907E+01  0.51100000000E-03 0.  1.
         12    1    3    3    0    0 -0.21579576867E+02 -0.50620835768E+01 -0.49980474556E+01  0.22721868459E+02  0.00000000000E+00 0. -1.
</event>
<event>
 7    1  0.3919732E-008  0.4614232E+02  0.7816164E-02  0.1320468E+00
        -11   -1    0    0    0    0  0.00000000000E+00  0.00000000000E+00  0.45593999997E+02  0.45594000000E+02  0.51100000000E-03 0.  1.
         11   -1    0    0    0    0 -0.00000000000E+00 -0.00000000000E+00 -0.45593999997E+02  0.45594000000E+02  0.51100000000E-03 0. -1.
    9900012    2    1    2    0    0 -0.41773157463E+02  0.16620848280E+02  0.28043276556E+01  0.46142317237E+02  0.99999952200E+01 0.  0.
        -12    1    1    2    0    0  0.41773157463E+02 -0.16620848280E+02 -0.28043276556E+01  0.45045682763E+02  0.00000000000E+00 0.  1.
         11    1    3    3    0    0 -0.10475601701E+02  0.84970440497E+01 -0.12158305781E+01  0.13543124929E+02  0.51100000000E-03 0. -1.
        -11    1    3    3    0    0 -0.10260128320E+02  0.22006394247E+01  0.14516350494E+01  0.10593407931E+02  0.51100000000E-03 0.  1.
         12    1    3    3    0    0 -0.21037427442E+02  0.59231648060E+01  0.25685231842E+01  0.22005784377E+02  0.00000000000E+00 0. -1.
</event>
<event>
 7    1  0.3919732E-008  0.4614232E+02  0.7816164E-02  0.1320468E+00
        -11   -1    0    0    0    0  0.00000000000E+00  0.00000000000E+00  0.45593999997E+02  0.45594000000E+02  0.51100000000E-03 0.  1.
         11   -1    0    0    0    0 -0.00000000000E+00 -0.00000000000E+00 -0.45593999997E+02  0.45594000000E+02  0.51100000000E-03 0. -1.
    9900012    2    1    2    0    0  0.25070742442E+02  0.19055671607E+02 -0.32209512354E+02  0.46142318375E+02  0.10000005596E+02 0.  0.
        -12    1    1    2    0    0 -0.25070742442E+02 -0.19055671607E+02  0.32209512354E+02  0.45045681625E+02  0.00000000000E+00 0.  1.
         11    1    3    3    0    0  0.12748084974E+02  0.14976908603E+02 -0.22370781047E+02  0.29787133241E+02  0.51100000000E-03 0. -1.
        -11    1    3    3    0    0  0.58107976896E+01  0.11633283401E+01 -0.42609284115E+01  0.72989186737E+01  0.51100000000E-03 0.  1.
         12    1    3    3    0    0  0.65118597784E+01  0.29154346634E+01 -0.55778028956E+01  0.90562664598E+01  0.00000000000E+00 0. -1.
</event>
<event>
 7    1  0.3919732E-008  0.4614232E+02  0.7816164E-02  0.1320468E+00
        -11   -1    0    0    0    0  0.00000000000E+00  0.00000000000E+00  0.45593999997E+02  0.45594000000E+02  0.51100000000E-03 0. -1.
         11   -1    0    0    0    0 -0.00000000000E+00 -0.00000000000E+00 -0.45593999997E+02  0.45594000000E+02  0.51100000000E-03 0.  1.
    9900012    2    1    2    0    0 -0.11466385300E+02  0.19797989327E+02  0.38803027754E+02  0.46142319451E+02  0.10000015414E+02 0.  0.
        -12    1    1    2    0    0  0.11466385300E+02 -0.19797989327E+02 -0.38803027754E+02  0.45045680549E+02  0.00000000000E+00 0.  1.
         11    1    3    3    0    0 -0.93118567962E+01  0.92599259817E+01  0.22382284988E+02  0.25950406311E+02  0.51100000000E-03 0. -1.
        -11    1    3    3    0    0 -0.30367382009E+01  0.36030239841E+01  0.75135353947E+01  0.88688654922E+01  0.51100000000E-03 0.  1.
         12    1    3    3    0    0  0.88220969702E+00  0.69350393611E+01  0.89072073710E+01  0.11323047648E+02  0.00000000000E+00 0. -1.
</event>
<event>
 7    1  0.3919732E-008  0.4614232E+02  0.7816164E-02  0.1320468E+00
        -11   -1    0    0    0    0  0.00000000000E+00  0.00000000000E+00  0.45593999997E+02  0.45594000000E+02  0.51100000000E-03 0.  1.
         11   -1    0    0    0    0 -0.00000000000E+00 -0.00000000000E+00 -0.45593999997E+02  0.45594000000E+02  0.51100000000E-03 0. -1.
    9900012    2    1    2    0    0 -0.94124864283E+01 -0.21576852266E+02 -0.38405182240E+02  0.46142317883E+02  0.10000001109E+02 0.  0.
        -12    1    1    2    0    0  0.94124864283E+01  0.21576852266E+02  0.38405182240E+02  0.45045682117E+02  0.00000000000E+00 0.  1.
         11    1    3    3    0    0  0.84571797264E+00 -0.30577513977E+01 -0.50011708236E+01  0.59225663666E+01  0.51100000000E-03 0. -1.
        -11    1    3    3    0    0  0.83771424971E-01 -0.66016979999E+01 -0.90996039942E+01  0.11242429775E+02  0.51100000000E-03 0.  1.
         12    1    3    3    0    0 -0.10341975826E+02 -0.11917402869E+02 -0.24304407423E+02  0.28977321741E+02  0.00000000000E+00 0. -1.
</event>
<event>
 7    1  0.3919732E-008  0.4614232E+02  0.7816164E-02  0.1320468E+00
        -11   -1    0    0    0    0  0.00000000000E+00  0.00000000000E+00  0.45593999997E+02  0.45594000000E+02  0.51100000000E-03 0.  1.
         11   -1    0    0    0    0 -0.00000000000E+00 -0.00000000000E+00 -0.45593999997E+02  0.45594000000E+02  0.51100000000E-03 0. -1.
    9900012    2    1    2    0    0 -0.15404150983E+02 -0.37816438148E+02 -0.19019536885E+02  0.46142316022E+02  0.99999841435E+01 0.  0.
        -12    1    1    2    0    0  0.15404150983E+02  0.37816438148E+02  0.19019536885E+02  0.45045683978E+02  0.00000000000E+00 0.  1.
         11    1    3    3    0    0 -0.50909272568E+01 -0.97853176051E+01 -0.71581846349E+01  0.13149509059E+02  0.51100000000E-03 0. -1.
        -11    1    3    3    0    0 -0.51400420907E+01 -0.22169216416E+02 -0.10476367551E+02  0.25052913334E+02  0.51100000000E-03 0.  1.
        -12    1    3    3    0    0 -0.51731816356E+01 -0.58619041274E+01 -0.13849846989E+01  0.79398936296E+01  0.00000000000E+00 0.  1.
</event>
<event>
 7    1  0.3919732E-008  0.4614232E+02  0.7816164E-02  0.1320468E+00
        -11   -1    0    0    0    0  0.00000000000E+00  0.00000000000E+00  0.45593999997E+02  0.45594000000E+02  0.51100000000E-03 0.  1.
         11   -1    0    0    0    0 -0.00000000000E+00 -0.00000000000E+00 -0.45593999997E+02  0.45594000000E+02  0.51100000000E-03 0. -1.
    9900012    2    1    2    0    0 -0.17692105335E+02 -0.18313083181E+02 -0.37158227808E+02  0.46142317625E+02  0.99999987587E+01 0.  0.
        -12    1    1    2    0    0  0.17692105335E+02  0.18313083181E+02  0.37158227808E+02  0.45045682375E+02  0.00000000000E+00 0.  1.
         11    1    3    3    0    0 -0.30098024843E+01 -0.34610590996E+01 -0.49726966188E+01  0.67650242431E+01  0.51100000000E-03 0.  1.
        -11    1    3    3    0    0 -0.10991347032E+02 -0.79013918170E+01 -0.26198266715E+02  0.29488826382E+02  0.51100000000E-03 0. -1.
         12    1    3    3    0    0 -0.36909558184E+01 -0.69506322644E+01 -0.59872644742E+01  0.98884670001E+01  0.00000000000E+00 0. -1.
</event>
<event>
 7    1  0.3919732E-008  0.4614232E+02  0.7816164E-02  0.1320468E+00
        -11   -1    0    0    0    0  0.00000000000E+00  0.00000000000E+00  0.45593999997E+02  0.45594000000E+02  0.51100000000E-03 0.  1.
         11   -1    0    0    0    0 -0.00000000000E+00 -0.00000000000E+00 -0.45593999997E+02  0.45594000000E+02  0.51100000000E-03 0. -1.
    9900012    2    1    2    0    0 -0.15796824790E+02 -0.44463428702E+01 -0.41950016114E+02  0.46142317739E+02  0.99999998019E+01 0.  0.
        -12    1    1    2    0    0  0.15796824790E+02  0.44463428702E+01  0.41950016114E+02  0.45045682261E+02  0.00000000000E+00 0.  1.
         11    1    3    3    0    0 -0.12817942960E+01  0.14066509696E+01 -0.10743898107E+02  0.10911141570E+02  0.51100000000E-03 0. -1.
        -11    1    3    3    0    0 -0.54196086811E+01 -0.40977121573E+01 -0.16583629113E+02  0.17921499882E+02  0.51100000000E-03 0.  1.
         12    1    3    3    0    0 -0.90954218127E+01 -0.17552816824E+01 -0.14622488894E+02  0.17309676288E+02  0.00000000000E+00 0. -1.
</event>
<event>
 7    1  0.3919732E-008  0.4614232E+02  0.7816164E-02  0.1320468E+00
        -11   -1    0    0    0    0  0.00000000000E+00  0.00000000000E+00  0.45593999997E+02  0.45594000000E+02  0.51100000000E-03 0. -1.
         11   -1    0    0    0    0 -0.00000000000E+00 -0.00000000000E+00 -0.45593999997E+02  0.45594000000E+02  0.51100000000E-03 0.  1.
    9900012    2    1    2    0    0  0.19068081521E+02  0.16885560106E+02  0.37153730203E+02  0.46142317177E+02  0.99999946748E+01 0.  0.
        -12    1    1    2    0    0 -0.19068081521E+02 -0.16885560106E+02 -0.37153730203E+02  0.45045682823E+02  0.00000000000E+00 0.  1.
         11    1    3    3    0    0  0.25210877905E+01  0.32230849548E+00  0.16635568799E+01  0.30376287080E+01  0.51100000000E-03 0. -1.
        -11    1    3    3    0    0  0.49597681421E+01  0.20037290184E+01  0.46599128602E+01  0.70942947591E+01  0.51100000000E-03 0.  1.
         12    1    3    3    0    0  0.11587225588E+02  0.14559522592E+02  0.30830260463E+02  0.36010393710E+02  0.00000000000E+00 0. -1.
</event>
<event>
 7    1  0.5682083E-008  0.4614232E+02  0.7816164E-02  0.1320468E+00
        -11   -1    0    0    0    0  0.00000000000E+00  0.00000000000E+00  0.45593999997E+02  0.45594000000E+02  0.51100000000E-03 0.  1.
         11   -1    0    0    0    0 -0.00000000000E+00 -0.00000000000E+00 -0.45593999997E+02  0.45594000000E+02  0.51100000000E-03 0. -1.
    9900012    2    1    2    0    0  0.44007985601E+02 -0.91887397734E+01  0.28243972807E+01  0.46142323678E+02  0.10000053958E+02 0.  0.
        -12    1    1    2    0    0 -0.44007985601E+02  0.91887397734E+01 -0.28243972807E+01  0.45045676322E+02  0.00000000000E+00 0.  1.
         11    1    3    3    0    0  0.18967059852E+02 -0.25272037467E+01  0.12529535775E+01  0.19175661948E+02  0.51100000000E-03 0. -1.
        -11    1    3    3    0    0  0.18427017424E+02 -0.22635340420E+01  0.32518697056E+01  0.18848162095E+02  0.51100000000E-03 0.  1.
        -12    1    3    3    0    0  0.66139083244E+01 -0.43980019847E+01 -0.16804260024E+01  0.81184996354E+01  0.00000000000E+00 0.  1.
</event>
<event>
 7    1  0.3919732E-008  0.4614232E+02  0.7816164E-02  0.1320468E+00
        -11   -1    0    0    0    0  0.00000000000E+00  0.00000000000E+00  0.45593999997E+02  0.45594000000E+02  0.51100000000E-03 0.  1.
         11   -1    0    0    0    0 -0.00000000000E+00 -0.00000000000E+00 -0.45593999997E+02  0.45594000000E+02  0.51100000000E-03 0. -1.
    9900012    2    1    2    0    0  0.23768661986E+02  0.38096405860E+02 -0.35816225104E+01  0.46142318166E+02  0.10000003694E+02 0.  0.
        -12    1    1    2    0    0 -0.23768661986E+02 -0.38096405860E+02  0.35816225104E+01  0.45045681834E+02  0.00000000000E+00 0.  1.
         11    1    3    3    0    0  0.80687720452E+01  0.10998261337E+02  0.12512341822E+01  0.13697898452E+02  0.51100000000E-03 0. -1.
        -11    1    3    3    0    0  0.43917563207E+01  0.34458127156E+01  0.77228497645E+00  0.56353858073E+01  0.51100000000E-03 0.  1.
         12    1    3    3    0    0  0.11308133620E+02  0.23652331807E+02 -0.56051416690E+01  0.26809033907E+02  0.00000000000E+00 0. -1.
</event>
<event>
 7    1  0.3919732E-008  0.4614232E+02  0.7816164E-02  0.1320468E+00
        -11   -1    0    0    0    0  0.00000000000E+00  0.00000000000E+00  0.45593999997E+02  0.45594000000E+02  0.51100000000E-03 0.  1.
         11   -1    0    0    0    0 -0.00000000000E+00 -0.00000000000E+00 -0.45593999997E+02  0.45594000000E+02  0.51100000000E-03 0. -1.
    9900012    2    1    2    0    0  0.43904258466E+02  0.81232973162E+01 -0.59616942683E+01  0.46142315753E+02  0.99999816845E+01 0.  0.
        -12    1    1    2    0    0 -0.43904258466E+02 -0.81232973162E+01  0.59616942683E+01  0.45045684247E+02  0.00000000000E+00 0.  1.
         11    1    3    3    0    0  0.11621823123E+02  0.48449417720E+01 -0.39667955901E+01  0.13201352241E+02  0.51100000000E-03 0. -1.
        -11    1    3    3    0    0  0.44430970390E+01  0.18522786579E+01  0.96139531143E+00  0.49088011500E+01  0.51100000000E-03 0.  1.
         12    1    3    3    0    0  0.27839338304E+02  0.14260768864E+01 -0.29562939897E+01  0.28032162362E+02  0.00000000000E+00 0. -1.
</event>
<event>
 7    1  0.3919732E-008  0.4614232E+02  0.7816164E-02  0.1320468E+00
        -11   -1    0    0    0    0  0.00000000000E+00  0.00000000000E+00  0.45593999997E+02  0.45594000000E+02  0.51100000000E-03 0.  1.
         11   -1    0    0    0    0 -0.00000000000E+00 -0.00000000000E+00 -0.45593999997E+02  0.45594000000E+02  0.51100000000E-03 0. -1.
    9900012    2    1    2    0    0 -0.37077376929E+02  0.10984596407E+02 -0.23102387101E+02  0.46142317322E+02  0.99999959967E+01 0.  0.
        -12    1    1    2    0    0  0.37077376929E+02 -0.10984596407E+02  0.23102387101E+02  0.45045682678E+02  0.00000000000E+00 0.  1.
         11    1    3    3    0    0 -0.24389568858E+01  0.46133453255E+00  0.44965377880E-01  0.24826120091E+01  0.51100000000E-03 0. -1.
        -11    1    3    3    0    0 -0.17268607648E+01 -0.39115944876E+00  0.30833772735E+00  0.17972551935E+01  0.51100000000E-03 0.  1.
         12    1    3    3    0    0 -0.32911559278E+02  0.10914421324E+02 -0.23455690206E+02  0.41862450119E+02  0.00000000000E+00 0. -1.
</event>
<event>
 7    1  0.3919732E-008  0.4614232E+02  0.7816164E-02  0.1320468E+00
        -11   -1    0    0    0    0  0.00000000000E+00  0.00000000000E+00  0.45593999997E+02  0.45594000000E+02  0.51100000000E-03 0. -1.
         11   -1    0    0    0    0 -0.00000000000E+00 -0.00000000000E+00 -0.45593999997E+02  0.45594000000E+02  0.51100000000E-03 0.  1.
    9900012    2    1    2    0    0  0.72800788786E+01 -0.34197684886E+01  0.44321768880E+02  0.46142316947E+02  0.99999925792E+01 0.  0.
        -12    1    1    2    0    0 -0.72800788786E+01  0.34197684886E+01 -0.44321768880E+02  0.45045683053E+02  0.00000000000E+00 0.  1.
         11    1    3    3    0    0 -0.18078932044E+01 -0.11438161240E+01  0.94963176292E+01  0.97343126075E+01  0.51100000000E-03 0. -1.
        -11    1    3    3    0    0  0.26775657312E+01  0.15572644509E+00  0.39103379623E+01  0.47417667816E+01  0.51100000000E-03 0.  1.
        -12    1    3    3    0    0  0.64104063518E+01 -0.24316788097E+01  0.30915113289E+02  0.31666237558E+02  0.00000000000E+00 0.  1.
</event>
<event>
 7    1  0.3919732E-008  0.4614232E+02  0.7816164E-02  0.1320468E+00
        -11   -1    0    0    0    0  0.00000000000E+00  0.00000000000E+00  0.45593999997E+02  0.45594000000E+02  0.51100000000E-03 0.  1.
         11   -1    0    0    0    0 -0.00000000000E+00 -0.00000000000E+00 -0.45593999997E+02  0.45594000000E+02  0.51100000000E-03 0. -1.
    9900012    2    1    2    0    0 -0.37549868869E+02 -0.21087094636E+02 -0.13208153609E+02  0.46142317254E+02  0.99999953788E+01 0.  0.
        -12    1    1    2    0    0  0.37549868869E+02  0.21087094636E+02  0.13208153609E+02  0.45045682746E+02  0.00000000000E+00 0.  1.
         11    1    3    3    0    0 -0.19434558435E+02 -0.11092504625E+02 -0.72075598478E+01  0.23509458514E+02  0.51100000000E-03 0. -1.
        -11    1    3    3    0    0 -0.63280018736E+01 -0.62985127990E+01 -0.67139965428E-01  0.89285709511E+01  0.51100000000E-03 0.  1.
         12    1    3    3    0    0 -0.11787308561E+02 -0.36960772120E+01 -0.59334537957E+01  0.13704287789E+02  0.00000000000E+00 0. -1.
</event>
<event>
 7    1  0.3919732E-008  0.4614232E+02  0.7816164E-02  0.1320468E+00
        -11   -1    0    0    0    0  0.00000000000E+00  0.00000000000E+00  0.45593999997E+02  0.45594000000E+02  0.51100000000E-03 0.  1.
         11   -1    0    0    0    0 -0.00000000000E+00 -0.00000000000E+00 -0.45593999997E+02  0.45594000000E+02  0.51100000000E-03 0. -1.
    9900012    2    1    2    0    0 -0.14678250435E+02 -0.19630976368E+02 -0.37792687743E+02  0.46142317456E+02  0.99999972201E+01 0.  0.
        -12    1    1    2    0    0  0.14678250435E+02  0.19630976368E+02  0.37792687743E+02  0.45045682544E+02  0.00000000000E+00 0.  1.
         11    1    3    3    0    0 -0.12810207040E+02 -0.15066537310E+02 -0.31117517587E+02  0.36870067154E+02  0.51100000000E-03 0. -1.
        -11    1    3    3    0    0 -0.22707032006E+01 -0.20655193663E+01 -0.58561636261E+01  0.66118920102E+01  0.51100000000E-03 0.  1.
        -12    1    3    3    0    0  0.40265980518E+00 -0.24989196919E+01 -0.81900652965E+00  0.26603582918E+01  0.00000000000E+00 0.  1.
</event>
<event>
 7    1  0.3919732E-008  0.4614232E+02  0.7816164E-02  0.1320468E+00
        -11   -1    0    0    0    0  0.00000000000E+00  0.00000000000E+00  0.45593999997E+02  0.45594000000E+02  0.51100000000E-03 0.  1.
         11   -1    0    0    0    0 -0.00000000000E+00 -0.00000000000E+00 -0.45593999997E+02  0.45594000000E+02  0.51100000000E-03 0. -1.
    9900012    2    1    2    0    0 -0.35071672674E+02 -0.18280894760E+02 -0.21561543063E+02  0.46142317891E+02  0.10000001188E+02 0.  0.
        -12    1    1    2    0    0  0.35071672674E+02  0.18280894760E+02  0.21561543063E+02  0.45045682109E+02  0.00000000000E+00 0.  1.
         11    1    3    3    0    0 -0.65631222237E+01 -0.19444412575E+01 -0.65777641901E+01  0.94932822105E+01  0.51100000000E-03 0. -1.
        -11    1    3    3    0    0 -0.71120906218E+01 -0.43163604271E+01 -0.69057467812E+01  0.10812129264E+02  0.51100000000E-03 0.  1.
        -12    1    3    3    0    0 -0.21396459828E+02 -0.12020093075E+02 -0.80780320918E+01  0.25836906417E+02  0.00000000000E+00 0.  1.
</event>
<event>
 7    1  0.3919732E-008  0.4614232E+02  0.7816164E-02  0.1320468E+00
        -11   -1    0    0    0    0  0.00000000000E+00  0.00000000000E+00  0.45593999997E+02  0.45594000000E+02  0.51100000000E-03 0.  1.
         11   -1    0    0    0    0 -0.00000000000E+00 -0.00000000000E+00 -0.45593999997E+02  0.45594000000E+02  0.51100000000E-03 0. -1.
    9900012    2    1    2    0    0 -0.15156870509E+02 -0.41281327137E+02 -0.97588251194E+01  0.46142319169E+02  0.10000012839E+02 0.  0.
        -12    1    1    2    0    0  0.15156870509E+02  0.41281327137E+02  0.97588251194E+01  0.45045680831E+02  0.00000000000E+00 0.  1.
         11    1    3    3    0    0 -0.26336773529E+01 -0.52467870819E+01 -0.42206811738E+01  0.72304343517E+01  0.51100000000E-03 0. -1.
        -11    1    3    3    0    0  0.44764092676E+00 -0.44371333411E+00 -0.16892227339E+00  0.65253269477E+00  0.51100000000E-03 0.  1.
         12    1    3    3    0    0 -0.12970834083E+02 -0.35590826721E+02 -0.53692216722E+01  0.38259352123E+02  0.00000000000E+00 0. -1.
</event>
<event>
 7    1  0.3919732E-008  0.4614232E+02  0.7816164E-02  0.1320468E+00
        -11   -1    0    0    0    0  0.00000000000E+00  0.00000000000E+00  0.45593999997E+02  0.45594000000E+02  0.51100000000E-03 0. -1.
         11   -1    0    0    0    0 -0.00000000000E+00 -0.00000000000E+00 -0.45593999997E+02  0.45594000000E+02  0.51100000000E-03 0.  1.
    9900012    2    1    2    0    0 -0.10665478081E+02  0.30074865386E+02  0.31794079192E+02  0.46142318493E+02  0.10000006678E+02 0.  0.
        -12    1    1    2    0    0  0.10665478081E+02 -0.30074865386E+02 -0.31794079192E+02  0.45045681507E+02  0.00000000000E+00 0.  1.
         11    1    3    3    0    0 -0.25433979236E+01  0.83505815656E+01  0.53762547915E+01  0.10252082780E+02  0.51100000000E-03 0.  1.
        -11    1    3    3    0    0 -0.52818847228E+01  0.69677099372E+01  0.62871964061E+01  0.10769221277E+02  0.51100000000E-03 0. -1.
         12    1    3    3    0    0 -0.28401954350E+01  0.14756573883E+02  0.20130627995E+02  0.25121014437E+02  0.00000000000E+00 0. -1.
</event>
<event>
 7    1  0.3919732E-008  0.4614232E+02  0.7816164E-02  0.1320468E+00
        -11   -1    0    0    0    0  0.00000000000E+00  0.00000000000E+00  0.45593999997E+02  0.45594000000E+02  0.51100000000E-03 0.  1.
         11   -1    0    0    0    0 -0.00000000000E+00 -0.00000000000E+00 -0.45593999997E+02  0.45594000000E+02  0.51100000000E-03 0. -1.
    9900012    2    1    2    0    0  0.17087669420E+02 -0.12601345908E+02 -0.39728215669E+02  0.46142317797E+02  0.10000000327E+02 0.  0.
        -12    1    1    2    0    0 -0.17087669420E+02  0.12601345908E+02  0.39728215669E+02  0.45045682203E+02  0.00000000000E+00 0.  1.
         11    1    3    3    0    0  0.42768051331E+01 -0.35295422769E+01 -0.94222601628E+01  0.10932873258E+02  0.51100000000E-03 0. -1.
        -11    1    3    3    0    0  0.50559113376E+01 -0.79584811382E+01 -0.11734961701E+02  0.15053537387E+02  0.51100000000E-03 0.  1.
         12    1    3    3    0    0  0.77549529496E+01 -0.11133224930E+01 -0.18570993805E+02  0.20155907152E+02  0.00000000000E+00 0. -1.
</event>
<event>
 7    1  0.3919732E-008  0.4614232E+02  0.7816164E-02  0.1320468E+00
        -11   -1    0    0    0    0  0.00000000000E+00  0.00000000000E+00  0.45593999997E+02  0.45594000000E+02  0.51100000000E-03 0.  1.
         11   -1    0    0    0    0 -0.00000000000E+00 -0.00000000000E+00 -0.45593999997E+02  0.45594000000E+02  0.51100000000E-03 0. -1.
    9900012    2    1    2    0    0 -0.24684215352E+02 -0.34851853778E+02 -0.14323106489E+02  0.46142316757E+02  0.99999908422E+01 0.  0.
        -12    1    1    2    0    0  0.24684215352E+02  0.34851853778E+02  0.14323106489E+02  0.45045683243E+02  0.00000000000E+00 0.  1.
         11    1    3    3    0    0 -0.10633940152E+02 -0.20296135659E+02 -0.11012030110E+02  0.25422010409E+02  0.51100000000E-03 0. -1.
        -11    1    3    3    0    0 -0.20159604974E+01 -0.28824444777E+01 -0.16102185015E+01  0.38685122176E+01  0.51100000000E-03 0.  1.
        -12    1    3    3    0    0 -0.12034314703E+02 -0.11673273642E+02 -0.17008578774E+01  0.16851794130E+02  0.00000000000E+00 0.  1.
</event>
<event>
 7    1  0.3919732E-008  0.4614232E+02  0.7816164E-02  0.1320468E+00
        -11   -1    0    0    0    0  0.00000000000E+00  0.00000000000E+00  0.45593999997E+02  0.45594000000E+02  0.51100000000E-03 0.  1.
         11   -1    0    0    0    0 -0.00000000000E+00 -0.00000000000E+00 -0.45593999997E+02  0.45594000000E+02  0.51100000000E-03 0. -1.
    9900012    2    1    2    0    0  0.37689375269E+02 -0.53604126402E+01 -0.24080914081E+02  0.46142318134E+02  0.10000003397E+02 0.  0.
        -12    1    1    2    0    0 -0.37689375269E+02  0.53604126402E+01  0.24080914081E+02  0.45045681866E+02  0.00000000000E+00 0.  1.
         11    1    3    3    0    0 -0.16557323653E+00  0.24635132698E+00 -0.29781259315E-01  0.29831301931E+00  0.51100000000E-03 0.  1.
        -11    1    3    3    0    0  0.30901604888E+02 -0.26277641095E+01 -0.21943696447E+02  0.37991316678E+02  0.51100000000E-03 0. -1.
         12    1    3    3    0    0  0.69533436171E+01 -0.29789998577E+01 -0.21074363749E+01  0.78526884367E+01  0.00000000000E+00 0. -1.
</event>
<event>
 7    1  0.3919732E-008  0.4614232E+02  0.7816164E-02  0.1320468E+00
        -11   -1    0    0    0    0  0.00000000000E+00  0.00000000000E+00  0.45593999997E+02  0.45594000000E+02  0.51100000000E-03 0. -1.
         11   -1    0    0    0    0 -0.00000000000E+00 -0.00000000000E+00 -0.45593999997E+02  0.45594000000E+02  0.51100000000E-03 0.  1.
    9900012    2    1    2    0    0 -0.54021064418E+01  0.18751277072E+02  0.40599512812E+02  0.46142316673E+02  0.99999900753E+01 0.  0.
        -12    1    1    2    0    0  0.54021064418E+01 -0.18751277072E+02 -0.40599512812E+02  0.45045683327E+02  0.00000000000E+00 0.  1.
         11    1    3    3    0    0  0.24117223974E+01  0.35806306105E+01  0.59813427667E+01  0.73765698020E+01  0.51100000000E-03 0. -1.
        -11    1    3    3    0    0 -0.22953482286E+01  0.73406122748E+01  0.12727106341E+02  0.14870522793E+02  0.51100000000E-03 0.  1.
         12    1    3    3    0    0 -0.55184806106E+01  0.78300341864E+01  0.21891063704E+02  0.23895224077E+02  0.00000000000E+00 0. -1.
</event>
<event>
 7    1  0.3919732E-008  0.4614232E+02  0.7816164E-02  0.1320468E+00
        -11   -1    0    0    0    0  0.00000000000E+00  0.00000000000E+00  0.45593999997E+02  0.45594000000E+02  0.51100000000E-03 0.  1.
         11   -1    0    0    0    0 -0.00000000000E+00 -0.00000000000E+00 -0.45593999997E+02  0.45594000000E+02  0.51100000000E-03 0. -1.
    9900012    2    1    2    0    0  0.20991290380E+02  0.84022790620E+01 -0.38959992245E+02  0.46142316955E+02  0.99999926535E+01 0.  0.
        -12    1    1    2    0    0 -0.20991290380E+02 -0.84022790620E+01  0.38959992245E+02  0.45045683045E+02  0.00000000000E+00 0.  1.
         11    1    3    3    0    0  0.28725545303E+01  0.36018788658E+01 -0.58272211742E+01  0.74284323897E+01  0.51100000000E-03 0.  1.
        -11    1    3    3    0    0  0.41304619794E+01 -0.39845412770E+00 -0.13047834580E+02  0.13691802999E+02  0.51100000000E-03 0. -1.
         12    1    3    3    0    0  0.13988273870E+02  0.51988543239E+01 -0.20084936490E+02  0.25022081567E+02  0.00000000000E+00 0. -1.
</event>
<event>
 7    1  0.3919732E-008  0.4614232E+02  0.7816164E-02  0.1320468E+00
        -11   -1    0    0    0    0  0.00000000000E+00  0.00000000000E+00  0.45593999997E+02  0.45594000000E+02  0.51100000000E-03 0.  1.
         11   -1    0    0    0    0 -0.00000000000E+00 -0.00000000000E+00 -0.45593999997E+02  0.45594000000E+02  0.51100000000E-03 0. -1.
    9900012    2    1    2    0    0 -0.15399935104E+02  0.11960552974E+02 -0.40606658713E+02  0.46142316961E+02  0.99999927018E+01 0.  0.
        -12    1    1    2    0    0  0.15399935104E+02 -0.11960552974E+02  0.40606658713E+02  0.45045683039E+02  0.00000000000E+00 0.  1.
         11    1    3    3    0    0 -0.22996525638E+01 -0.42695225747E+00 -0.52170528562E+01  0.57173709789E+01  0.51100000000E-03 0. -1.
        -11    1    3    3    0    0 -0.13686503950E+02  0.11723321349E+02 -0.35160812864E+02  0.39509991336E+02  0.51100000000E-03 0.  1.
        -12    1    3    3    0    0  0.58622140982E+00  0.66418388269E+00 -0.22879299263E+00  0.91495464632E+00  0.00000000000E+00 0.  1.
</event>
<event>
 7    1  0.3919732E-008  0.4614232E+02  0.7816164E-02  0.1320468E+00
        -11   -1    0    0    0    0  0.00000000000E+00  0.00000000000E+00  0.45593999997E+02  0.45594000000E+02  0.51100000000E-03 0. -1.
         11   -1    0    0    0    0 -0.00000000000E+00 -0.00000000000E+00 -0.45593999997E+02  0.45594000000E+02  0.51100000000E-03 0.  1.
    9900012    2    1    2    0    0  0.35643255070E+02  0.19963749335E+02  0.18976844099E+02  0.46142317283E+02  0.99999956425E+01 0.  0.
        -12    1    1    2    0    0 -0.35643255070E+02 -0.19963749335E+02 -0.18976844099E+02  0.45045682717E+02  0.00000000000E+00 0.  1.
         11    1    3    3    0    0  0.95296152367E+01  0.30876149158E+01  0.65830819845E+01  0.11986821977E+02  0.51100000000E-03 0. -1.
        -11    1    3    3    0    0  0.39153049827E+01  0.62563575534E+00  0.33667339526E+01  0.52015315989E+01  0.51100000000E-03 0.  1.
        -12    1    3    3    0    0  0.22198334850E+02  0.16250498664E+02  0.90270281617E+01  0.28953963707E+02  0.00000000000E+00 0.  1.
</event>
<event>
 7    1  0.3919732E-008  0.4614232E+02  0.7816164E-02  0.1320468E+00
        -11   -1    0    0    0    0  0.00000000000E+00  0.00000000000E+00  0.45593999997E+02  0.45594000000E+02  0.51100000000E-03 0.  1.
         11   -1    0    0    0    0 -0.00000000000E+00 -0.00000000000E+00 -0.45593999997E+02  0.45594000000E+02  0.51100000000E-03 0. -1.
    9900012    2    1    2    0    0  0.81666379141E+01  0.27747439914E+02 -0.34532580135E+02  0.46142317772E+02  0.10000000097E+02 0.  0.
        -12    1    1    2    0    0 -0.81666379141E+01 -0.27747439914E+02  0.34532580135E+02  0.45045682228E+02  0.00000000000E+00 0.  1.
         11    1    3    3    0    0  0.38949228708E+01  0.13058417336E+02 -0.13010785017E+02  0.18840732855E+02  0.51100000000E-03 0. -1.
        -11    1    3    3    0    0  0.16861406797E+01  0.47950295794E+01 -0.24086604472E+01  0.56246799438E+01  0.51100000000E-03 0.  1.
        -12    1    3    3    0    0  0.25855743637E+01  0.98939929985E+01 -0.19113134671E+02  0.21676904973E+02  0.00000000000E+00 0.  1.
</event>
<event>
 7    1  0.3919732E-008  0.4614231E+02  0.7816164E-02  0.1320468E+00
        -11   -1    0    0    0    0  0.00000000000E+00  0.00000000000E+00  0.45593999997E+02  0.45594000000E+02  0.51100000000E-03 0.  1.
         11   -1    0    0    0    0 -0.00000000000E+00 -0.00000000000E+00 -0.45593999997E+02  0.45594000000E+02  0.51100000000E-03 0. -1.
    9900012    2    1    2    0    0 -0.11759815006E+02  0.12517337178E+02 -0.41642969584E+02  0.46142313250E+02  0.99999588596E+01 0.  0.
        -12    1    1    2    0    0  0.11759815006E+02 -0.12517337178E+02  0.41642969584E+02  0.45045686750E+02  0.00000000000E+00 0.  1.
         11    1    3    3    0    0 -0.10528131074E+02  0.11447576729E+02 -0.33986738534E+02  0.37376288651E+02  0.51100000000E-03 0. -1.
        -11    1    3    3    0    0 -0.15130252244E+01 -0.11349113442E+01 -0.23744241310E+01  0.30356480863E+01  0.51100000000E-03 0.  1.
         12    1    3    3    0    0  0.28134129213E+00  0.22046717932E+01 -0.52818069194E+01  0.57303765122E+01  0.00000000000E+00 0. -1.
</event>
<event>
 7    1  0.3919732E-008  0.4614232E+02  0.7816164E-02  0.1320468E+00
        -11   -1    0    0    0    0  0.00000000000E+00  0.00000000000E+00  0.45593999997E+02  0.45594000000E+02  0.51100000000E-03 0.  1.
         11   -1    0    0    0    0 -0.00000000000E+00 -0.00000000000E+00 -0.45593999997E+02  0.45594000000E+02  0.51100000000E-03 0. -1.
    9900012    2    1    2    0    0 -0.16196331094E+02 -0.17771555106E+02 -0.38091521150E+02  0.46142319904E+02  0.10000019543E+02 0.  0.
        -12    1    1    2    0    0  0.16196331094E+02  0.17771555106E+02  0.38091521150E+02  0.45045680096E+02  0.00000000000E+00 0.  1.
         11    1    3    3    0    0 -0.79311514766E+01 -0.42856133242E+01 -0.10032698583E+02  0.13487945968E+02  0.51100000000E-03 0. -1.
        -11    1    3    3    0    0 -0.39342629430E-02 -0.43266793669E+01 -0.63002281155E+01  0.76428426904E+01  0.51100000000E-03 0.  1.
         12    1    3    3    0    0 -0.82612453541E+01 -0.91592624151E+01 -0.21758594451E+02  0.25011531246E+02  0.00000000000E+00 0. -1.
</event>
<event>
 7    1  0.3919732E-008  0.4614232E+02  0.7816164E-02  0.1320468E+00
        -11   -1    0    0    0    0  0.00000000000E+00  0.00000000000E+00  0.45593999997E+02  0.45594000000E+02  0.51100000000E-03 0. -1.
         11   -1    0    0    0    0 -0.00000000000E+00 -0.00000000000E+00 -0.45593999997E+02  0.45594000000E+02  0.51100000000E-03 0.  1.
    9900012    2    1    2    0    0  0.76280406559E+01 -0.44360230475E+02 -0.17596138918E+01  0.46142319929E+02  0.10000019766E+02 0.  0.
        -12    1    1    2    0    0 -0.76280406559E+01  0.44360230475E+02  0.17596138918E+01  0.45045680071E+02  0.00000000000E+00 0.  1.
         11    1    3    3    0    0  0.79128863770E+01 -0.42073301140E+02 -0.18857313637E+01  0.42852449436E+02  0.51100000000E-03 0. -1.
        -11    1    3    3    0    0  0.10060167354E+01 -0.13658664256E+01 -0.28227089343E-01  0.16966018372E+01  0.51100000000E-03 0.  1.
         12    1    3    3    0    0 -0.12908624564E+01 -0.92106290914E+00  0.15434456120E+00  0.15932686552E+01  0.00000000000E+00 0. -1.
</event>
<event>
 7    1  0.3919732E-008  0.4614232E+02  0.7816164E-02  0.1320468E+00
        -11   -1    0    0    0    0  0.00000000000E+00  0.00000000000E+00  0.45593999997E+02  0.45594000000E+02  0.51100000000E-03 0. -1.
         11   -1    0    0    0    0 -0.00000000000E+00 -0.00000000000E+00 -0.45593999997E+02  0.45594000000E+02  0.51100000000E-03 0.  1.
    9900012    2    1    2    0    0  0.25016628516E+02 -0.26486548981E+02 -0.26490460993E+02  0.46142317600E+02  0.99999985323E+01 0.  0.
        -12    1    1    2    0    0 -0.25016628516E+02  0.26486548981E+02  0.26490460993E+02  0.45045682400E+02  0.00000000000E+00 0.  1.
         11    1    3    3    0    0  0.51816296501E+00  0.32106915585E-01  0.64466288715E+00  0.82771626269E+00  0.51100000000E-03 0. -1.
        -11    1    3    3    0    0  0.23823738610E+01 -0.17545493745E+01 -0.12389826346E+01  0.32076824891E+01  0.51100000000E-03 0.  1.
         12    1    3    3    0    0  0.22116091690E+02 -0.24764106522E+02 -0.25896141245E+02  0.42106918848E+02  0.00000000000E+00 0. -1.
</event>
<event>
 7    1  0.3919732E-008  0.4614232E+02  0.7816164E-02  0.1320468E+00
        -11   -1    0    0    0    0  0.00000000000E+00  0.00000000000E+00  0.45593999997E+02  0.45594000000E+02  0.51100000000E-03 0.  1.
         11   -1    0    0    0    0 -0.00000000000E+00 -0.00000000000E+00 -0.45593999997E+02  0.45594000000E+02  0.51100000000E-03 0. -1.
    9900012    2    1    2    0    0  0.24075514990E+02  0.34725779998E+02 -0.15607784367E+02  0.46142321502E+02  0.10000034113E+02 0.  0.
        -12    1    1    2    0    0 -0.24075514990E+02 -0.34725779998E+02  0.15607784367E+02  0.45045678498E+02  0.00000000000E+00 0.  1.
         11    1    3    3    0    0  0.24560086795E+01  0.30048058043E+01 -0.30002648138E+01  0.49053466512E+01  0.51100000000E-03 0. -1.
        -11    1    3    3    0    0  0.10579646543E+02  0.16969472903E+02 -0.10789557462E+02  0.22722378442E+02  0.51100000000E-03 0.  1.
         12    1    3    3    0    0  0.11039859768E+02  0.14751501291E+02 -0.18179620917E+01  0.18514596409E+02  0.00000000000E+00 0. -1.
</event>
<event>
 7    1  0.3919732E-008  0.4614232E+02  0.7816164E-02  0.1320468E+00
        -11   -1    0    0    0    0  0.00000000000E+00  0.00000000000E+00  0.45593999997E+02  0.45594000000E+02  0.51100000000E-03 0. -1.
         11   -1    0    0    0    0 -0.00000000000E+00 -0.00000000000E+00 -0.45593999997E+02  0.45594000000E+02  0.51100000000E-03 0.  1.
    9900012    2    1    2    0    0 -0.21257131979E+01  0.35126172611E+02  0.28120218795E+02  0.46142319142E+02  0.10000012588E+02 0.  0.
        -12    1    1    2    0    0  0.21257131979E+01 -0.35126172611E+02 -0.28120218795E+02  0.45045680858E+02  0.00000000000E+00 0.  1.
         11    1    3    3    0    0 -0.32022844001E+01  0.29222874813E+02  0.21479171734E+02  0.36408595913E+02  0.51100000000E-03 0. -1.
        -11    1    3    3    0    0  0.16880970528E+01  0.62034861505E+01  0.61181468872E+01  0.88749441505E+01  0.51100000000E-03 0.  1.
         12    1    3    3    0    0 -0.61152585051E+00 -0.30018835246E+00  0.52290017418E+00  0.85877907808E+00  0.00000000000E+00 0. -1.
</event>
<event>
 7    1  0.3919732E-008  0.4614231E+02  0.7816164E-02  0.1320468E+00
        -11   -1    0    0    0    0  0.00000000000E+00  0.00000000000E+00  0.45593999997E+02  0.45594000000E+02  0.51100000000E-03 0. -1.
         11   -1    0    0    0    0 -0.00000000000E+00 -0.00000000000E+00 -0.45593999997E+02  0.45594000000E+02  0.51100000000E-03 0.  1.
    9900012    2    1    2    0    0  0.21268690799E+02  0.39692873700E+02  0.11101696744E+01  0.46142313108E+02  0.99999575654E+01 0.  0.
        -12    1    1    2    0    0 -0.21268690799E+02 -0.39692873700E+02 -0.11101696744E+01  0.45045686892E+02  0.00000000000E+00 0.  1.
         11    1    3    3    0    0  0.13513724014E+02  0.26717004047E+02  0.20950552513E+01  0.30013468623E+02  0.51100000000E-03 0. -1.
        -11    1    3    3    0    0  0.12656503538E+01  0.69220872682E+01 -0.16552664548E+01  0.72289051913E+01  0.51100000000E-03 0.  1.
        -12    1    3    3    0    0  0.64893164316E+01  0.60537823847E+01  0.67038087795E+00  0.88999392937E+01  0.00000000000E+00 0.  1.
</event>
<event>
 7    1  0.3919732E-008  0.4614232E+02  0.7816164E-02  0.1320468E+00
        -11   -1    0    0    0    0  0.00000000000E+00  0.00000000000E+00  0.45593999997E+02  0.45594000000E+02  0.51100000000E-03 0. -1.
         11   -1    0    0    0    0 -0.00000000000E+00 -0.00000000000E+00 -0.45593999997E+02  0.45594000000E+02  0.51100000000E-03 0.  1.
    9900012    2    1    2    0    0  0.38681555665E+02 -0.11331003909E+02  0.20111168667E+02  0.46142317594E+02  0.99999984780E+01 0.  0.
        -12    1    1    2    0    0 -0.38681555665E+02  0.11331003909E+02 -0.20111168667E+02  0.45045682406E+02  0.00000000000E+00 0.  1.
         11    1    3    3    0    0  0.60338049920E+01 -0.50996546452E+00  0.53389882122E+01  0.80728968065E+01  0.51100000000E-03 0. -1.
        -11    1    3    3    0    0  0.80553933211E+01 -0.59098258458E+01  0.47588460902E+01  0.11066255892E+02  0.51100000000E-03 0.  1.
         12    1    3    3    0    0  0.24592357352E+02 -0.49112125984E+01  0.10013334364E+02  0.27003164896E+02  0.00000000000E+00 0. -1.
</event>
<event>
 7    1  0.3919732E-008  0.4614232E+02  0.7816164E-02  0.1320468E+00
        -11   -1    0    0    0    0  0.00000000000E+00  0.00000000000E+00  0.45593999997E+02  0.45594000000E+02  0.51100000000E-03 0.  1.
         11   -1    0    0    0    0 -0.00000000000E+00 -0.00000000000E+00 -0.45593999997E+02  0.45594000000E+02  0.51100000000E-03 0. -1.
    9900012    2    1    2    0    0  0.15095003515E+02 -0.86144865429E+01 -0.41557731316E+02  0.46142317170E+02  0.99999946096E+01 0.  0.
        -12    1    1    2    0    0 -0.15095003515E+02  0.86144865429E+01  0.41557731316E+02  0.45045682830E+02  0.00000000000E+00 0.  1.
         11    1    3    3    0    0  0.71965892746E+01 -0.68313612863E+01 -0.19577369965E+02  0.21948389673E+02  0.51100000000E-03 0. -1.
        -11    1    3    3    0    0  0.68482336432E+01  0.62941314945E+00 -0.11600569933E+02  0.13485832861E+02  0.51100000000E-03 0.  1.
        -12    1    3    3    0    0  0.10501805968E+01 -0.24125384061E+01 -0.10379791418E+02  0.10708094636E+02  0.00000000000E+00 0.  1.
</event>
<event>
 7    1  0.3919732E-008  0.4614232E+02  0.7816164E-02  0.1320468E+00
        -11   -1    0    0    0    0  0.00000000000E+00  0.00000000000E+00  0.45593999997E+02  0.45594000000E+02  0.51100000000E-03 0.  1.
         11   -1    0    0    0    0 -0.00000000000E+00 -0.00000000000E+00 -0.45593999997E+02  0.45594000000E+02  0.51100000000E-03 0. -1.
    9900012    2    1    2    0    0 -0.18747723085E+02 -0.19194961157E+02 -0.36182729004E+02  0.46142317267E+02  0.99999954957E+01 0.  0.
        -12    1    1    2    0    0  0.18747723085E+02  0.19194961157E+02  0.36182729004E+02  0.45045682733E+02  0.00000000000E+00 0.  1.
         11    1    3    3    0    0 -0.21931259454E+00 -0.23013081618E+01 -0.20659553198E+01  0.31003691577E+01  0.51100000000E-03 0. -1.
        -11    1    3    3    0    0 -0.55252880894E+01 -0.99053997494E+01 -0.12661569494E+02  0.16998855696E+02  0.51100000000E-03 0.  1.
         12    1    3    3    0    0 -0.13003122401E+02 -0.69882532463E+01 -0.21455204190E+02  0.26043092414E+02  0.00000000000E+00 0. -1.
</event>
<event>
 7    1  0.3919732E-008  0.4614232E+02  0.7816164E-02  0.1320468E+00
        -11   -1    0    0    0    0  0.00000000000E+00  0.00000000000E+00  0.45593999997E+02  0.45594000000E+02  0.51100000000E-03 0. -1.
         11   -1    0    0    0    0 -0.00000000000E+00 -0.00000000000E+00 -0.45593999997E+02  0.45594000000E+02  0.51100000000E-03 0.  1.
    9900012    2    1    2    0    0  0.14528177949E+02 -0.35034210447E+02  0.24303283168E+02  0.46142318421E+02  0.10000006016E+02 0.  0.
        -12    1    1    2    0    0 -0.14528177949E+02  0.35034210447E+02 -0.24303283168E+02  0.45045681579E+02  0.00000000000E+00 0.  1.
         11    1    3    3    0    0  0.12013447752E+02 -0.22878847152E+02  0.18058111586E+02  0.31525544694E+02  0.51100000000E-03 0. -1.
        -11    1    3    3    0    0  0.33722690271E+01 -0.62139707047E+01  0.44386111961E+01  0.83478679866E+01  0.51100000000E-03 0.  1.
        -12    1    3    3    0    0 -0.85753883004E+00 -0.59413925905E+01  0.18065603855E+01  0.62689057407E+01  0.00000000000E+00 0.  1.
</event>
<event>
 7    1  0.3919732E-008  0.4614232E+02  0.7816164E-02  0.1320468E+00
        -11   -1    0    0    0    0  0.00000000000E+00  0.00000000000E+00  0.45593999997E+02  0.45594000000E+02  0.51100000000E-03 0.  1.
         11   -1    0    0    0    0 -0.00000000000E+00 -0.00000000000E+00 -0.45593999997E+02  0.45594000000E+02  0.51100000000E-03 0. -1.
    9900012    2    1    2    0    0 -0.42950202385E+02  0.68266898633E+01  0.11738401327E+02  0.46142316022E+02  0.99999841383E+01 0.  0.
        -12    1    1    2    0    0  0.42950202385E+02 -0.68266898633E+01 -0.11738401327E+02  0.45045683978E+02  0.00000000000E+00 0.  1.
         11    1    3    3    0    0 -0.77626813186E+01  0.34828934977E+00  0.96521861499E+00  0.78302090625E+01  0.51100000000E-03 0. -1.
        -11    1    3    3    0    0 -0.20979754087E+02  0.27263923715E+01  0.21281835366E+01  0.21262936353E+02  0.51100000000E-03 0.  1.
        -12    1    3    3    0    0 -0.14207766979E+02  0.37520081421E+01  0.86449991755E+01  0.17049170607E+02  0.00000000000E+00 0.  1.
</event>
<event>
 7    1  0.3919732E-008  0.4614231E+02  0.7816164E-02  0.1320468E+00
        -11   -1    0    0    0    0  0.00000000000E+00  0.00000000000E+00  0.45593999997E+02  0.45594000000E+02  0.51100000000E-03 0.  1.
         11   -1    0    0    0    0 -0.00000000000E+00 -0.00000000000E+00 -0.45593999997E+02  0.45594000000E+02  0.51100000000E-03 0. -1.
    9900012    2    1    2    0    0 -0.90321101424E+01 -0.31799883570E+02 -0.30599068572E+02  0.46142305353E+02  0.99998868564E+01 0.  0.
        -12    1    1    2    0    0  0.90321101424E+01  0.31799883570E+02  0.30599068572E+02  0.45045694647E+02  0.00000000000E+00 0.  1.
         11    1    3    3    0    0 -0.39730332912E+01 -0.14540878060E+02 -0.11341409396E+02  0.18863978786E+02  0.51100000000E-03 0.  1.
        -11    1    3    3    0    0 -0.19005866058E+01 -0.13919374731E+02 -0.17290856572E+02  0.22278575888E+02  0.51100000000E-03 0. -1.
         12    1    3    3    0    0 -0.31584902453E+01 -0.33396307784E+01 -0.19668026044E+01  0.49997506789E+01  0.00000000000E+00 0. -1.
</event>
<event>
 7    1  0.3919732E-008  0.4614232E+02  0.7816164E-02  0.1320468E+00
        -11   -1    0    0    0    0  0.00000000000E+00  0.00000000000E+00  0.45593999997E+02  0.45594000000E+02  0.51100000000E-03 0.  1.
         11   -1    0    0    0    0 -0.00000000000E+00 -0.00000000000E+00 -0.45593999997E+02  0.45594000000E+02  0.51100000000E-03 0. -1.
    9900012    2    1    2    0    0 -0.87289978368E+01  0.43826792458E+02 -0.56683800783E+01  0.46142315711E+02  0.99999813042E+01 0.  0.
        -12    1    1    2    0    0  0.87289978368E+01 -0.43826792458E+02  0.56683800783E+01  0.45045684289E+02  0.00000000000E+00 0.  1.
         11    1    3    3    0    0 -0.40736629452E+01  0.28695441150E+02 -0.52654567347E+00  0.28987934097E+02  0.51100000000E-03 0. -1.
        -11    1    3    3    0    0 -0.53252159304E-01  0.69281286011E+01 -0.27070179195E+01  0.74383968692E+01  0.51100000000E-03 0.  1.
        -12    1    3    3    0    0 -0.46020827323E+01  0.82032227067E+01 -0.24348164853E+01  0.97159847451E+01  0.00000000000E+00 0.  1.
</event>
<event>
 7    1  0.3919732E-008  0.4614232E+02  0.7816164E-02  0.1320468E+00
        -11   -1    0    0    0    0  0.00000000000E+00  0.00000000000E+00  0.45593999997E+02  0.45594000000E+02  0.51100000000E-03 0.  1.
         11   -1    0    0    0    0 -0.00000000000E+00 -0.00000000000E+00 -0.45593999997E+02  0.45594000000E+02  0.51100000000E-03 0. -1.
    9900012    2    1    2    0    0 -0.44789464058E+02 -0.38561012111E+01 -0.28544487677E+01  0.46142317799E+02  0.10000000345E+02 0.  0.
        -12    1    1    2    0    0  0.44789464058E+02  0.38561012111E+01  0.28544487677E+01  0.45045682201E+02  0.00000000000E+00 0.  1.
         11    1    3    3    0    0 -0.21182183348E+02  0.18710179622E+01 -0.31022355899E+01  0.21489752570E+02  0.51100000000E-03 0. -1.
        -11    1    3    3    0    0 -0.77870417921E+01 -0.29509840956E+01  0.17869625433E+01  0.85170160501E+01  0.51100000000E-03 0.  1.
         12    1    3    3    0    0 -0.15820238918E+02 -0.27761350777E+01 -0.15391757211E+01  0.16135549179E+02  0.00000000000E+00 0. -1.
</event>
<event>
 7    1  0.3919732E-008  0.4614232E+02  0.7816164E-02  0.1320468E+00
        -11   -1    0    0    0    0  0.00000000000E+00  0.00000000000E+00  0.45593999997E+02  0.45594000000E+02  0.51100000000E-03 0.  1.
         11   -1    0    0    0    0 -0.00000000000E+00 -0.00000000000E+00 -0.45593999997E+02  0.45594000000E+02  0.51100000000E-03 0. -1.
    9900012    2    1    2    0    0  0.28112633285E+02  0.10096573206E+02 -0.33717239577E+02  0.46142321123E+02  0.10000030660E+02 0.  0.
        -12    1    1    2    0    0 -0.28112633285E+02 -0.10096573206E+02  0.33717239577E+02  0.45045678877E+02  0.00000000000E+00 0.  1.
         11    1    3    3    0    0  0.88131765795E+01  0.77282407608E+01 -0.12276194835E+02  0.16973589678E+02  0.51100000000E-03 0. -1.
        -11    1    3    3    0    0  0.14832410638E+02  0.18812646941E+01 -0.18551191406E+02  0.23826167653E+02  0.51100000000E-03 0.  1.
         12    1    3    3    0    0  0.44670460683E+01  0.48706775106E+00 -0.28898533364E+01  0.53425637924E+01  0.00000000000E+00 0. -1.
</event>
<event>
 7    1  0.3919732E-008  0.4614233E+02  0.7816164E-02  0.1320468E+00
        -11   -1    0    0    0    0  0.00000000000E+00  0.00000000000E+00  0.45593999997E+02  0.45594000000E+02  0.51100000000E-03 0. -1.
         11   -1    0    0    0    0 -0.00000000000E+00 -0.00000000000E+00 -0.45593999997E+02  0.45594000000E+02  0.51100000000E-03 0.  1.
    9900012    2    1    2    0    0  0.38211368233E+02  0.20363690323E+02 -0.12422726005E+02  0.46142326876E+02  0.10000083115E+02 0.  0.
        -12    1    1    2    0    0 -0.38211368233E+02 -0.20363690323E+02  0.12422726005E+02  0.45045673124E+02  0.00000000000E+00 0.  1.
         11    1    3    3    0    0  0.71438254229E+01  0.11723853806E+01 -0.33075005602E+00  0.72469390100E+01  0.51100000000E-03 0. -1.
        -11    1    3    3    0    0  0.22689914307E+01 -0.15006344881E+00 -0.87117426393E+00  0.24351151945E+01  0.51100000000E-03 0.  1.
        -12    1    3    3    0    0  0.28798551379E+02  0.19341368392E+02 -0.11220801686E+02  0.36460272671E+02  0.00000000000E+00 0.  1.
</event>
<event>
 7    1  0.3919732E-008  0.4614233E+02  0.7816164E-02  0.1320468E+00
        -11   -1    0    0    0    0  0.00000000000E+00  0.00000000000E+00  0.45593999997E+02  0.45594000000E+02  0.51100000000E-03 0.  1.
         11   -1    0    0    0    0 -0.00000000000E+00 -0.00000000000E+00 -0.45593999997E+02  0.45594000000E+02  0.51100000000E-03 0. -1.
    9900012    2    1    2    0    0 -0.28054368827E+01  0.42527593258E+02 -0.14582386283E+02  0.46142327021E+02  0.10000084442E+02 0.  0.
        -12    1    1    2    0    0  0.28054368827E+01 -0.42527593258E+02  0.14582386283E+02  0.45045672979E+02  0.00000000000E+00 0.  1.
         11    1    3    3    0    0 -0.10025630781E+01  0.92663041803E+01 -0.23214029475E+01  0.96051256001E+01  0.51100000000E-03 0. -1.
        -11    1    3    3    0    0 -0.21876837112E+01  0.33307837560E+01 -0.36155015463E+01  0.53806999677E+01  0.51100000000E-03 0.  1.
        -12    1    3    3    0    0  0.38480990663E+00  0.29930505321E+02 -0.86454817890E+01  0.31156501454E+02  0.00000000000E+00 0.  1.
</event>
<event>
 7    1  0.3919732E-008  0.4614232E+02  0.7816164E-02  0.1320468E+00
        -11   -1    0    0    0    0  0.00000000000E+00  0.00000000000E+00  0.45593999997E+02  0.45594000000E+02  0.51100000000E-03 0.  1.
         11   -1    0    0    0    0 -0.00000000000E+00 -0.00000000000E+00 -0.45593999997E+02  0.45594000000E+02  0.51100000000E-03 0. -1.
    9900012    2    1    2    0    0  0.44001638972E+02  0.12064015595E+01 -0.95662730635E+01  0.46142320770E+02  0.10000027442E+02 0.  0.
        -12    1    1    2    0    0 -0.44001638972E+02 -0.12064015595E+01  0.95662730635E+01  0.45045679230E+02  0.00000000000E+00 0.  1.
         11    1    3    3    0    0  0.29855912369E+02 -0.16624534732E+01 -0.89066295933E+01  0.31200437592E+02  0.51100000000E-03 0. -1.
        -11    1    3    3    0    0  0.78093236094E+01  0.75768487581E+00  0.13629458329E+01  0.79634944096E+01  0.51100000000E-03 0.  1.
        -12    1    3    3    0    0  0.63364029935E+01  0.21111701570E+01 -0.20225893031E+01  0.69783887694E+01  0.00000000000E+00 0.  1.
</event>
<event>
 7    1  0.3919732E-008  0.4614232E+02  0.7816164E-02  0.1320468E+00
        -11   -1    0    0    0    0  0.00000000000E+00  0.00000000000E+00  0.45593999997E+02  0.45594000000E+02  0.51100000000E-03 0.  1.
         11   -1    0    0    0    0 -0.00000000000E+00 -0.00000000000E+00 -0.45593999997E+02  0.45594000000E+02  0.51100000000E-03 0. -1.
    9900012    2    1    2    0    0 -0.36387173349E+01  0.22524208091E+02 -0.38839841693E+02  0.46142317447E+02  0.99999971317E+01 0.  0.
        -12    1    1    2    0    0  0.36387173349E+01 -0.22524208091E+02  0.38839841693E+02  0.45045682553E+02  0.00000000000E+00 0.  1.
         11    1    3    3    0    0 -0.14689126810E+01  0.62755809758E+01 -0.55255007222E+01  0.84895099706E+01  0.51100000000E-03 0.  1.
        -11    1    3    3    0    0  0.85619705778E+00  0.98347524396E+01 -0.14457047416E+02  0.17506046075E+02  0.51100000000E-03 0. -1.
        -12    1    3    3    0    0 -0.30260017117E+01  0.64138746754E+01 -0.18857293555E+02  0.20146761401E+02  0.00000000000E+00 0.  1.
</event>
<event>
 7    1  0.3919732E-008  0.4614232E+02  0.7816164E-02  0.1320468E+00
        -11   -1    0    0    0    0  0.00000000000E+00  0.00000000000E+00  0.45593999997E+02  0.45594000000E+02  0.51100000000E-03 0. -1.
         11   -1    0    0    0    0 -0.00000000000E+00 -0.00000000000E+00 -0.45593999997E+02  0.45594000000E+02  0.51100000000E-03 0.  1.
    9900012    2    1    2    0    0  0.30508176350E+02 -0.33041163471E+02  0.25780271194E+01  0.46142317281E+02  0.99999956243E+01 0.  0.
        -12    1    1    2    0    0 -0.30508176350E+02  0.33041163471E+02 -0.25780271194E+01  0.45045682719E+02  0.00000000000E+00 0.  1.
         11    1    3    3    0    0  0.43432941733E+01 -0.49325052777E+01  0.49566878099E+00  0.65908649198E+01  0.51100000000E-03 0.  1.
        -11    1    3    3    0    0  0.12394801418E+02 -0.95724786560E+01  0.46022844248E+01  0.16323126906E+02  0.51100000000E-03 0. -1.
        -12    1    3    3    0    0  0.13770080759E+02 -0.18536179538E+02 -0.25199260865E+01  0.23228325455E+02  0.00000000000E+00 0.  1.
</event>
<event>
 7    1  0.3919732E-008  0.4614232E+02  0.7816164E-02  0.1320468E+00
        -11   -1    0    0    0    0  0.00000000000E+00  0.00000000000E+00  0.45593999997E+02  0.45594000000E+02  0.51100000000E-03 0.  1.
         11   -1    0    0    0    0 -0.00000000000E+00 -0.00000000000E+00 -0.45593999997E+02  0.45594000000E+02  0.51100000000E-03 0. -1.
    9900012    2    1    2    0    0 -0.44041206827E+02 -0.19863505872E+01 -0.92487842509E+01  0.46142317659E+02  0.99999990734E+01 0.  0.
        -12    1    1    2    0    0  0.44041206827E+02  0.19863505872E+01  0.92487842509E+01  0.45045682341E+02  0.00000000000E+00 0.  1.
         11    1    3    3    0    0 -0.50109907156E+00 -0.10617993821E+01 -0.60112982756E+00  0.13190434178E+01  0.51100000000E-03 0. -1.
        -11    1    3    3    0    0 -0.26944952758E+02 -0.40142955757E+00 -0.22928858785E+01  0.27045312916E+02  0.51100000000E-03 0.  1.
         12    1    3    3    0    0 -0.16595154997E+02 -0.52312164751E+00 -0.63547685449E+01  0.17777961326E+02  0.00000000000E+00 0. -1.
</event>
<event>
 7    1  0.3919732E-008  0.4614232E+02  0.7816164E-02  0.1320468E+00
        -11   -1    0    0    0    0  0.00000000000E+00  0.00000000000E+00  0.45593999997E+02  0.45594000000E+02  0.51100000000E-03 0.  1.
         11   -1    0    0    0    0 -0.00000000000E+00 -0.00000000000E+00 -0.45593999997E+02  0.45594000000E+02  0.51100000000E-03 0. -1.
    9900012    2    1    2    0    0  0.20605352427E+02  0.30436752501E+02 -0.26041065443E+02  0.46142317179E+02  0.99999946925E+01 0.  0.
        -12    1    1    2    0    0 -0.20605352427E+02 -0.30436752501E+02  0.26041065443E+02  0.45045682821E+02  0.00000000000E+00 0.  1.
         11    1    3    3    0    0  0.58611535455E+01  0.62613375249E+01 -0.64042666900E+01  0.10703835788E+02  0.51100000000E-03 0. -1.
        -11    1    3    3    0    0 -0.10204173653E+01  0.23553089003E+01 -0.20315205404E+01  0.32735008145E+01  0.51100000000E-03 0.  1.
         12    1    3    3    0    0  0.15764616246E+02  0.21820106076E+02 -0.17605278212E+02  0.32164980576E+02  0.00000000000E+00 0. -1.
</event>
<event>
 7    1  0.3919732E-008  0.4614232E+02  0.7816164E-02  0.1320468E+00
        -11   -1    0    0    0    0  0.00000000000E+00  0.00000000000E+00  0.45593999997E+02  0.45594000000E+02  0.51100000000E-03 0.  1.
         11   -1    0    0    0    0 -0.00000000000E+00 -0.00000000000E+00 -0.45593999997E+02  0.45594000000E+02  0.51100000000E-03 0. -1.
    9900012    2    1    2    0    0 -0.17033379810E+02  0.22804007614E+02 -0.34913532464E+02  0.46142317187E+02  0.99999947607E+01 0.  0.
        -12    1    1    2    0    0  0.17033379810E+02 -0.22804007614E+02  0.34913532464E+02  0.45045682813E+02  0.00000000000E+00 0.  1.
         11    1    3    3    0    0 -0.35980378883E+01  0.13362229498E+01 -0.29390890564E+01  0.48342127756E+01  0.51100000000E-03 0. -1.
        -11    1    3    3    0    0 -0.11424766794E+01  0.40808989842E+01 -0.24149614908E+01  0.48776048165E+01  0.51100000000E-03 0.  1.
         12    1    3    3    0    0 -0.12292865243E+02  0.17386885680E+02 -0.29559481917E+02  0.36430499594E+02  0.00000000000E+00 0. -1.
</event>
<event>
 7    1  0.3919732E-008  0.4614232E+02  0.7816164E-02  0.1320468E+00
        -11   -1    0    0    0    0  0.00000000000E+00  0.00000000000E+00  0.45593999997E+02  0.45594000000E+02  0.51100000000E-03 0.  1.
         11   -1    0    0    0    0 -0.00000000000E+00 -0.00000000000E+00 -0.45593999997E+02  0.45594000000E+02  0.51100000000E-03 0. -1.
    9900012    2    1    2    0    0 -0.83390064306E+01 -0.39849408567E+02 -0.19276905672E+02  0.46142317813E+02  0.10000000469E+02 0.  0.
        -12    1    1    2    0    0  0.83390064306E+01  0.39849408567E+02  0.19276905672E+02  0.45045682187E+02  0.00000000000E+00 0.  1.
         11    1    3    3    0    0 -0.12736244476E+01 -0.93972362773E+01 -0.26156300027E+01  0.98372602617E+01  0.51100000000E-03 0.  1.
        -11    1    3    3    0    0 -0.16048115025E+01 -0.36152005104E+01  0.49800247229E+00  0.39866152828E+01  0.51100000000E-03 0. -1.
         12    1    3    3    0    0 -0.54605704805E+01 -0.26836971780E+02 -0.17159278142E+02  0.32318442268E+02  0.00000000000E+00 0. -1.
</event>
<event>
 7    1  0.3919732E-008  0.4614232E+02  0.7816164E-02  0.1320468E+00
        -11   -1    0    0    0    0  0.00000000000E+00  0.00000000000E+00  0.45593999997E+02  0.45594000000E+02  0.51100000000E-03 0.  1.
         11   -1    0    0    0    0 -0.00000000000E+00 -0.00000000000E+00 -0.45593999997E+02  0.45594000000E+02  0.51100000000E-03 0. -1.
    9900012    2    1    2    0    0  0.38999839104E+01  0.24261334451E+02 -0.37753029602E+02  0.46142317987E+02  0.10000002063E+02 0.  0.
        -12    1    1    2    0    0 -0.38999839104E+01 -0.24261334451E+02  0.37753029602E+02  0.45045682013E+02  0.00000000000E+00 0.  1.
         11    1    3    3    0    0  0.73464663736E+00  0.39213491974E+01 -0.92967871793E+01  0.10116666315E+02  0.51100000000E-03 0.  1.
        -11    1    3    3    0    0  0.18296812405E+01  0.13112941020E+02 -0.24058241640E+02  0.27460807466E+02  0.51100000000E-03 0. -1.
        -12    1    3    3    0    0  0.13356560325E+01  0.72270442336E+01 -0.43980007833E+01  0.85648442065E+01  0.00000000000E+00 0.  1.
</event>
<event>
 7    1  0.3919732E-008  0.4614231E+02  0.7816164E-02  0.1320468E+00
        -11   -1    0    0    0    0  0.00000000000E+00  0.00000000000E+00  0.45593999997E+02  0.45594000000E+02  0.51100000000E-03 0. -1.
         11   -1    0    0    0    0 -0.00000000000E+00 -0.00000000000E+00 -0.45593999997E+02  0.45594000000E+02  0.51100000000E-03 0.  1.
    9900012    2    1    2    0    0 -0.12620525116E+02  0.28398377630E+02  0.32609334811E+02  0.46142309606E+02  0.99999256376E+01 0.  0.
        -12    1    1    2    0    0  0.12620525116E+02 -0.28398377630E+02 -0.32609334811E+02  0.45045690394E+02  0.00000000000E+00 0.  1.
         11    1    3    3    0    0 -0.11084132274E+01  0.86160397596E+01  0.86461129733E+01  0.12256426511E+02  0.51100000000E-03 0. -1.
        -11    1    3    3    0    0  0.94415226776E-01  0.56818688831E+01  0.52175251737E+01  0.77146041660E+01  0.51100000000E-03 0.  1.
         12    1    3    3    0    0 -0.11606527116E+02  0.14100468988E+02  0.18745696664E+02  0.26171278929E+02  0.00000000000E+00 0. -1.
</event>
<event>
 7    1  0.3919732E-008  0.4614232E+02  0.7816164E-02  0.1320468E+00
        -11   -1    0    0    0    0  0.00000000000E+00  0.00000000000E+00  0.45593999997E+02  0.45594000000E+02  0.51100000000E-03 0.  1.
         11   -1    0    0    0    0 -0.00000000000E+00 -0.00000000000E+00 -0.45593999997E+02  0.45594000000E+02  0.51100000000E-03 0. -1.
    9900012    2    1    2    0    0  0.13009297724E+02  0.13371142341E+02 -0.41001026991E+02  0.46142317753E+02  0.99999999284E+01 0.  0.
        -12    1    1    2    0    0 -0.13009297724E+02 -0.13371142341E+02  0.41001026991E+02  0.45045682247E+02  0.00000000000E+00 0.  1.
         11    1    3    3    0    0  0.45126898196E+01  0.31505898005E+01 -0.10417761503E+02  0.11782204398E+02  0.51100000000E-03 0.  1.
        -11    1    3    3    0    0  0.77486927442E+01  0.43416370127E+01 -0.23512533489E+02  0.25134265108E+02  0.51100000000E-03 0. -1.
        -12    1    3    3    0    0  0.74791515988E+00  0.58789155275E+01 -0.70707319998E+01  0.92258482471E+01  0.00000000000E+00 0.  1.
</event>
<event>
 7    1  0.3919732E-008  0.4614232E+02  0.7816164E-02  0.1320468E+00
        -11   -1    0    0    0    0  0.00000000000E+00  0.00000000000E+00  0.45593999997E+02  0.45594000000E+02  0.51100000000E-03 0.  1.
         11   -1    0    0    0    0 -0.00000000000E+00 -0.00000000000E+00 -0.45593999997E+02  0.45594000000E+02  0.51100000000E-03 0. -1.
    9900012    2    1    2    0    0  0.60248287470E+01 -0.44412275146E+02  0.45127169191E+01  0.46142319196E+02  0.10000013083E+02 0.  0.
        -12    1    1    2    0    0 -0.60248287470E+01  0.44412275146E+02 -0.45127169191E+01  0.45045680804E+02  0.00000000000E+00 0.  1.
         11    1    3    3    0    0  0.80363035033E+00 -0.13571624370E+02  0.19701139928E+01  0.13737400015E+02  0.51100000000E-03 0. -1.
        -11    1    3    3    0    0  0.11729088554E+01 -0.18877853086E+01  0.22590428168E+01  0.31690256016E+01  0.51100000000E-03 0.  1.
         12    1    3    3    0    0  0.40482895413E+01 -0.28952865468E+02  0.28356010956E+00  0.29235893579E+02  0.00000000000E+00 0. -1.
</event>
<event>
 7    1  0.3919732E-008  0.4614232E+02  0.7816164E-02  0.1320468E+00
        -11   -1    0    0    0    0  0.00000000000E+00  0.00000000000E+00  0.45593999997E+02  0.45594000000E+02  0.51100000000E-03 0.  1.
         11   -1    0    0    0    0 -0.00000000000E+00 -0.00000000000E+00 -0.45593999997E+02  0.45594000000E+02  0.51100000000E-03 0. -1.
    9900012    2    1    2    0    0 -0.86806587815E+01  0.26819861864E+02 -0.35134805275E+02  0.46142319086E+02  0.10000012081E+02 0.  0.
        -12    1    1    2    0    0  0.86806587815E+01 -0.26819861864E+02  0.35134805275E+02  0.45045680914E+02  0.00000000000E+00 0.  1.
         11    1    3    3    0    0 -0.29870986926E+01  0.13922045884E+02 -0.16467901609E+02  0.21770114925E+02  0.51100000000E-03 0. -1.
        -11    1    3    3    0    0 -0.11100704153E+01 -0.53535873707E+00 -0.29376744145E+01  0.31857175850E+01  0.51100000000E-03 0.  1.
        -12    1    3    3    0    0 -0.45834896736E+01  0.13433174717E+02 -0.15729229252E+02  0.21186486576E+02  0.00000000000E+00 0.  1.
</event>
<event>
 7    1  0.3919732E-008  0.4614232E+02  0.7816164E-02  0.1320468E+00
        -11   -1    0    0    0    0  0.00000000000E+00  0.00000000000E+00  0.45593999997E+02  0.45594000000E+02  0.51100000000E-03 0.  1.
         11   -1    0    0    0    0 -0.00000000000E+00 -0.00000000000E+00 -0.45593999997E+02  0.45594000000E+02  0.51100000000E-03 0. -1.
    9900012    2    1    2    0    0  0.31027028549E+02  0.18834898854E+02 -0.26677401426E+02  0.46142315831E+02  0.99999824001E+01 0.  0.
        -12    1    1    2    0    0 -0.31027028549E+02 -0.18834898854E+02  0.26677401426E+02  0.45045684169E+02  0.00000000000E+00 0.  1.
         11    1    3    3    0    0  0.14476117201E+00  0.16548551184E+01 -0.25004949641E+01  0.30019954341E+01  0.51100000000E-03 0. -1.
        -11    1    3    3    0    0  0.20660980282E+02  0.85914772407E+01 -0.15381811191E+02  0.27153079074E+02  0.51100000000E-03 0.  1.
         12    1    3    3    0    0  0.10221287095E+02  0.85885664950E+01 -0.87950952704E+01  0.15987241323E+02  0.00000000000E+00 0. -1.
</event>
<event>
 7    1  0.3919732E-008  0.4614232E+02  0.7816164E-02  0.1320468E+00
        -11   -1    0    0    0    0  0.00000000000E+00  0.00000000000E+00  0.45593999997E+02  0.45594000000E+02  0.51100000000E-03 0. -1.
         11   -1    0    0    0    0 -0.00000000000E+00 -0.00000000000E+00 -0.45593999997E+02  0.45594000000E+02  0.51100000000E-03 0.  1.
    9900012    2    1    2    0    0  0.24285168431E+01 -0.19769168440E+00  0.44979737248E+02  0.46142317200E+02  0.99999948803E+01 0.  0.
        -12    1    1    2    0    0 -0.24285168431E+01  0.19769168440E+00 -0.44979737248E+02  0.45045682800E+02  0.00000000000E+00 0.  1.
         11    1    3    3    0    0  0.23063622408E+01 -0.14785146940E+01  0.16211324711E+02  0.16441178840E+02  0.51100000000E-03 0. -1.
        -11    1    3    3    0    0 -0.23118181165E+01 -0.16715365168E+01  0.63891118706E+01  0.69970914019E+01  0.51100000000E-03 0.  1.
        -12    1    3    3    0    0  0.24339727188E+01  0.29523595264E+01  0.22379300666E+02  0.22704046958E+02  0.00000000000E+00 0.  1.
</event>
<event>
 7    1  0.3919732E-008  0.4614232E+02  0.7816164E-02  0.1320468E+00
        -11   -1    0    0    0    0  0.00000000000E+00  0.00000000000E+00  0.45593999997E+02  0.45594000000E+02  0.51100000000E-03 0. -1.
         11   -1    0    0    0    0 -0.00000000000E+00 -0.00000000000E+00 -0.45593999997E+02  0.45594000000E+02  0.51100000000E-03 0.  1.
    9900012    2    1    2    0    0 -0.21039565971E+02  0.31745176337E+02  0.24056061735E+02  0.46142315821E+02  0.99999823111E+01 0.  0.
        -12    1    1    2    0    0  0.21039565971E+02 -0.31745176337E+02 -0.24056061735E+02  0.45045684179E+02  0.00000000000E+00 0.  1.
         11    1    3    3    0    0 -0.15816206643E+01  0.58701619934E+00  0.13867017749E+01  0.21838163883E+01  0.51100000000E-03 0. -1.
        -11    1    3    3    0    0 -0.34059877216E-01  0.21297398609E+01  0.35509278688E+01  0.41407778183E+01  0.51100000000E-03 0.  1.
         12    1    3    3    0    0 -0.19423885429E+02  0.29028420277E+02  0.19118432092E+02  0.39817721615E+02  0.00000000000E+00 0. -1.
</event>
<event>
 7    1  0.3919732E-008  0.4614232E+02  0.7816164E-02  0.1320468E+00
        -11   -1    0    0    0    0  0.00000000000E+00  0.00000000000E+00  0.45593999997E+02  0.45594000000E+02  0.51100000000E-03 0.  1.
         11   -1    0    0    0    0 -0.00000000000E+00 -0.00000000000E+00 -0.45593999997E+02  0.45594000000E+02  0.51100000000E-03 0. -1.
    9900012    2    1    2    0    0 -0.13210004190E+02 -0.29094362089E+02 -0.31751021334E+02  0.46142317945E+02  0.10000001675E+02 0.  0.
        -12    1    1    2    0    0  0.13210004190E+02  0.29094362089E+02  0.31751021334E+02  0.45045682055E+02  0.00000000000E+00 0.  1.
         11    1    3    3    0    0 -0.87468589747E+01 -0.14024922921E+02 -0.10867207243E+02  0.19781359872E+02  0.51100000000E-03 0. -1.
        -11    1    3    3    0    0 -0.33983129615E+01 -0.10652433958E+02 -0.12123562274E+02  0.16492532937E+02  0.51100000000E-03 0.  1.
         12    1    3    3    0    0 -0.10648322542E+01 -0.44170052094E+01 -0.87602518173E+01  0.98684251354E+01  0.00000000000E+00 0. -1.
</event>
<event>
 7    1  0.3919732E-008  0.4614232E+02  0.7816164E-02  0.1320468E+00
        -11   -1    0    0    0    0  0.00000000000E+00  0.00000000000E+00  0.45593999997E+02  0.45594000000E+02  0.51100000000E-03 0.  1.
         11   -1    0    0    0    0 -0.00000000000E+00 -0.00000000000E+00 -0.45593999997E+02  0.45594000000E+02  0.51100000000E-03 0. -1.
    9900012    2    1    2    0    0  0.60516176887E+01 -0.24001169587E+02 -0.37635559148E+02  0.46142317292E+02  0.99999957263E+01 0.  0.
        -12    1    1    2    0    0 -0.60516176887E+01  0.24001169587E+02  0.37635559148E+02  0.45045682708E+02  0.00000000000E+00 0.  1.
         11    1    3    3    0    0  0.22905330430E+01 -0.10624394266E+02 -0.14385081956E+02  0.18029278363E+02  0.51100000000E-03 0. -1.
        -11    1    3    3    0    0  0.20165782320E+01 -0.13831328222E+02 -0.20079945164E+02  0.24465821593E+02  0.51100000000E-03 0.  1.
        -12    1    3    3    0    0  0.17445064137E+01  0.45455290004E+00 -0.31705320276E+01  0.36472173371E+01  0.00000000000E+00 0.  1.
</event>
<event>
 7    1  0.3919732E-008  0.4614232E+02  0.7816164E-02  0.1320468E+00
        -11   -1    0    0    0    0  0.00000000000E+00  0.00000000000E+00  0.45593999997E+02  0.45594000000E+02  0.51100000000E-03 0.  1.
         11   -1    0    0    0    0 -0.00000000000E+00 -0.00000000000E+00 -0.45593999997E+02  0.45594000000E+02  0.51100000000E-03 0. -1.
    9900012    2    1    2    0    0 -0.65026935769E+01 -0.20175385846E+02 -0.39746474741E+02  0.46142317941E+02  0.10000001645E+02 0.  0.
        -12    1    1    2    0    0  0.65026935769E+01  0.20175385846E+02  0.39746474741E+02  0.45045682059E+02  0.00000000000E+00 0.  1.
         11    1    3    3    0    0 -0.11967994079E+01 -0.93833414528E+01 -0.20573502182E+02  0.22643948815E+02  0.51100000000E-03 0. -1.
        -11    1    3    3    0    0 -0.27619172856E+01 -0.13302975884E+01 -0.83718479951E+01  0.89154763126E+01  0.51100000000E-03 0.  1.
        -12    1    3    3    0    0 -0.25439768835E+01 -0.94617468049E+01 -0.10801124564E+02  0.14582892814E+02  0.00000000000E+00 0.  1.
</event>
<event>
 7    1  0.3919732E-008  0.4614232E+02  0.7816164E-02  0.1320468E+00
        -11   -1    0    0    0    0  0.00000000000E+00  0.00000000000E+00  0.45593999997E+02  0.45594000000E+02  0.51100000000E-03 0. -1.
         11   -1    0    0    0    0 -0.00000000000E+00 -0.00000000000E+00 -0.45593999997E+02  0.45594000000E+02  0.51100000000E-03 0.  1.
    9900012    2    1    2    0    0 -0.34992146875E+02 -0.19995675921E+02  0.20120538639E+02  0.46142317925E+02  0.10000001496E+02 0.  0.
        -12    1    1    2    0    0  0.34992146875E+02  0.19995675921E+02 -0.20120538639E+02  0.45045682075E+02  0.00000000000E+00 0.  1.
         11    1    3    3    0    0 -0.24278467329E+02 -0.14188076264E+02  0.16639440458E+02  0.32674400728E+02  0.51100000000E-03 0. -1.
        -11    1    3    3    0    0 -0.57882093834E+01 -0.56721779334E+00  0.14244913635E+01  0.59878443364E+01  0.51100000000E-03 0.  1.
         12    1    3    3    0    0 -0.49254701627E+01 -0.52403818636E+01  0.20566068177E+01  0.74800728608E+01  0.00000000000E+00 0. -1.
</event>
<event>
 7    1  0.3919732E-008  0.4614232E+02  0.7816164E-02  0.1320468E+00
        -11   -1    0    0    0    0  0.00000000000E+00  0.00000000000E+00  0.45593999997E+02  0.45594000000E+02  0.51100000000E-03 0.  1.
         11   -1    0    0    0    0 -0.00000000000E+00 -0.00000000000E+00 -0.45593999997E+02  0.45594000000E+02  0.51100000000E-03 0. -1.
    9900012    2    1    2    0    0 -0.25244133539E+02 -0.15317188871E+02 -0.34018097898E+02  0.46142317214E+02  0.99999950101E+01 0.  0.
        -12    1    1    2    0    0  0.25244133539E+02  0.15317188871E+02  0.34018097898E+02  0.45045682786E+02  0.00000000000E+00 0.  1.
         11    1    3    3    0    0 -0.16007113440E+01  0.12097814539E+01 -0.17236185263E+01  0.26451293084E+01  0.51100000000E-03 0.  1.
        -11    1    3    3    0    0 -0.15953846002E+02 -0.90007455615E+01 -0.21688455829E+02  0.28388866469E+02  0.51100000000E-03 0. -1.
        -12    1    3    3    0    0 -0.76895761932E+01 -0.75262247634E+01 -0.10606023543E+02  0.15108321436E+02  0.00000000000E+00 0.  1.
</event>
<event>
 7    1  0.3919732E-008  0.4614232E+02  0.7816164E-02  0.1320468E+00
        -11   -1    0    0    0    0  0.00000000000E+00  0.00000000000E+00  0.45593999997E+02  0.45594000000E+02  0.51100000000E-03 0.  1.
         11   -1    0    0    0    0 -0.00000000000E+00 -0.00000000000E+00 -0.45593999997E+02  0.45594000000E+02  0.51100000000E-03 0. -1.
    9900012    2    1    2    0    0  0.15194174557E+02  0.38877008624E+02 -0.16936018795E+02  0.46142317935E+02  0.10000001587E+02 0.  0.
        -12    1    1    2    0    0 -0.15194174557E+02 -0.38877008624E+02  0.16936018795E+02  0.45045682065E+02  0.00000000000E+00 0.  1.
         11    1    3    3    0    0  0.12719966813E+02  0.26203906217E+02 -0.93100799594E+01  0.30579729330E+02  0.51100000000E-03 0. -1.
        -11    1    3    3    0    0  0.11369641879E+01  0.11376451745E+01 -0.22503106996E+01  0.27660120415E+01  0.51100000000E-03 0.  1.
         12    1    3    3    0    0  0.13372435557E+01  0.11535457233E+02 -0.53756281363E+01  0.12796576564E+02  0.00000000000E+00 0. -1.
</event>
<event>
 7    1  0.3919732E-008  0.4614233E+02  0.7816164E-02  0.1320468E+00
        -11   -1    0    0    0    0  0.00000000000E+00  0.00000000000E+00  0.45593999997E+02  0.45594000000E+02  0.51100000000E-03 0. -1.
         11   -1    0    0    0    0 -0.00000000000E+00 -0.00000000000E+00 -0.45593999997E+02  0.45594000000E+02  0.51100000000E-03 0.  1.
    9900012    2    1    2    0    0 -0.20817250058E+02 -0.34116871074E+02  0.20779644775E+02  0.46142329522E+02  0.10000107241E+02 0.  0.
        -12    1    1    2    0    0  0.20817250058E+02  0.34116871074E+02 -0.20779644775E+02  0.45045670478E+02  0.00000000000E+00 0.  1.
         11    1    3    3    0    0 -0.43951558656E+01 -0.30687771904E+01  0.41256128767E+01  0.67642790005E+01  0.51100000000E-03 0. -1.
        -11    1    3    3    0    0 -0.36644958095E+01 -0.94874969644E+01  0.20345454993E+01  0.10372102190E+02  0.51100000000E-03 0.  1.
         12    1    3    3    0    0 -0.12757598383E+02 -0.21560596919E+02  0.14619486399E+02  0.29005948331E+02  0.00000000000E+00 0. -1.
</event>
<event>
 7    1  0.3919732E-008  0.4614232E+02  0.7816164E-02  0.1320468E+00
        -11   -1    0    0    0    0  0.00000000000E+00  0.00000000000E+00  0.45593999997E+02  0.45594000000E+02  0.51100000000E-03 0. -1.
         11   -1    0    0    0    0 -0.00000000000E+00 -0.00000000000E+00 -0.45593999997E+02  0.45594000000E+02  0.51100000000E-03 0.  1.
    9900012    2    1    2    0    0  0.31999724266E+02 -0.10595756466E+02  0.29880779013E+02  0.46142319157E+02  0.10000012728E+02 0.  0.
        -12    1    1    2    0    0 -0.31999724266E+02  0.10595756466E+02 -0.29880779013E+02  0.45045680843E+02  0.00000000000E+00 0.  1.
         11    1    3    3    0    0  0.19218572360E+02 -0.10930378610E+02  0.18701593957E+02  0.28958182210E+02  0.51100000000E-03 0. -1.
        -11    1    3    3    0    0  0.21938648961E+01  0.59336519752E+00  0.31967141167E+01  0.39222578759E+01  0.51100000000E-03 0.  1.
         12    1    3    3    0    0  0.10587287010E+02 -0.25874305408E+00  0.79824709390E+01  0.13261879071E+02  0.00000000000E+00 0. -1.
</event>
<event>
 7    1  0.3919732E-008  0.4614232E+02  0.7816164E-02  0.1320468E+00
        -11   -1    0    0    0    0  0.00000000000E+00  0.00000000000E+00  0.45593999997E+02  0.45594000000E+02  0.51100000000E-03 0.  1.
         11   -1    0    0    0    0 -0.00000000000E+00 -0.00000000000E+00 -0.45593999997E+02  0.45594000000E+02  0.51100000000E-03 0. -1.
    9900012    2    1    2    0    0  0.30256107587E+02 -0.74248514646E+01 -0.32535414891E+02  0.46142315549E+02  0.99999798238E+01 0.  0.
        -12    1    1    2    0    0 -0.30256107587E+02  0.74248514646E+01  0.32535414891E+02  0.45045684451E+02  0.00000000000E+00 0.  1.
         11    1    3    3    0    0  0.13118685597E+02 -0.71457840257E+01 -0.12918901485E+02  0.19749940683E+02  0.51100000000E-03 0. -1.
        -11    1    3    3    0    0  0.19546063394E+01 -0.13022078686E+01 -0.17825768597E+01  0.29485270555E+01  0.51100000000E-03 0.  1.
        -12    1    3    3    0    0  0.15182815651E+02  0.10231404297E+01 -0.17833936546E+02  0.23443847810E+02  0.00000000000E+00 0.  1.
</event>
<event>
 7    1  0.3919732E-008  0.4614232E+02  0.7816164E-02  0.1320468E+00
        -11   -1    0    0    0    0  0.00000000000E+00  0.00000000000E+00  0.45593999997E+02  0.45594000000E+02  0.51100000000E-03 0.  1.
         11   -1    0    0    0    0 -0.00000000000E+00 -0.00000000000E+00 -0.45593999997E+02  0.45594000000E+02  0.51100000000E-03 0. -1.
    9900012    2    1    2    0    0 -0.37793897756E+02  0.23842460590E+02  0.56808373784E+01  0.46142317100E+02  0.99999939732E+01 0.  0.
        -12    1    1    2    0    0  0.37793897756E+02 -0.23842460590E+02 -0.56808373784E+01  0.45045682900E+02  0.00000000000E+00 0.  1.
         11    1    3    3    0    0 -0.53353466020E+01  0.39335014585E+01 -0.20358780206E+01  0.69342019485E+01  0.51100000000E-03 0. -1.
        -11    1    3    3    0    0 -0.48158440311E+00  0.26983742532E+00 -0.55306701006E+00  0.78142123861E+00  0.51100000000E-03 0.  1.
         12    1    3    3    0    0 -0.31976966751E+02  0.19639121706E+02  0.82697824091E+01  0.38426693913E+02  0.00000000000E+00 0. -1.
</event>
<event>
 7    1  0.3919732E-008  0.4614232E+02  0.7816164E-02  0.1320468E+00
        -11   -1    0    0    0    0  0.00000000000E+00  0.00000000000E+00  0.45593999997E+02  0.45594000000E+02  0.51100000000E-03 0.  1.
         11   -1    0    0    0    0 -0.00000000000E+00 -0.00000000000E+00 -0.45593999997E+02  0.45594000000E+02  0.51100000000E-03 0. -1.
    9900012    2    1    2    0    0 -0.21032628190E+02  0.38205073746E+02 -0.11274505866E+02  0.46142316622E+02  0.99999896118E+01 0.  0.
        -12    1    1    2    0    0  0.21032628190E+02 -0.38205073746E+02  0.11274505866E+02  0.45045683378E+02  0.00000000000E+00 0.  1.
         11    1    3    3    0    0 -0.13180344117E+02  0.28953896436E+02 -0.87057528324E+01  0.32982415353E+02  0.51100000000E-03 0. -1.
        -11    1    3    3    0    0 -0.73845746122E+00  0.37520090947E+01 -0.58045455486E-01  0.38244295268E+01  0.51100000000E-03 0.  1.
         12    1    3    3    0    0 -0.71138266109E+01  0.54991682153E+01 -0.25107075783E+01  0.93354717425E+01  0.00000000000E+00 0. -1.
</event>
<event>
 7    1  0.3919732E-008  0.4614232E+02  0.7816164E-02  0.1320468E+00
        -11   -1    0    0    0    0  0.00000000000E+00  0.00000000000E+00  0.45593999997E+02  0.45594000000E+02  0.51100000000E-03 0. -1.
         11   -1    0    0    0    0 -0.00000000000E+00 -0.00000000000E+00 -0.45593999997E+02  0.45594000000E+02  0.51100000000E-03 0.  1.
    9900012    2    1    2    0    0 -0.37907494318E+02 -0.56001288699E+01  0.23680663924E+02  0.46142318601E+02  0.10000007657E+02 0.  0.
        -12    1    1    2    0    0  0.37907494318E+02  0.56001288699E+01 -0.23680663924E+02  0.45045681399E+02  0.00000000000E+00 0.  1.
         11    1    3    3    0    0 -0.10930642885E+02 -0.32463419475E+01  0.67685630205E+01  0.13260133316E+02  0.51100000000E-03 0.  1.
        -11    1    3    3    0    0 -0.25475837124E+02 -0.27414864515E+00  0.16300060788E+02  0.30245419762E+02  0.51100000000E-03 0. -1.
        -12    1    3    3    0    0 -0.15010143085E+01 -0.20796382772E+01  0.61204011600E+00  0.26367655227E+01  0.00000000000E+00 0.  1.
</event>
<event>
 7    1  0.3919732E-008  0.4614232E+02  0.7816164E-02  0.1320468E+00
        -11   -1    0    0    0    0  0.00000000000E+00  0.00000000000E+00  0.45593999997E+02  0.45594000000E+02  0.51100000000E-03 0.  1.
         11   -1    0    0    0    0 -0.00000000000E+00 -0.00000000000E+00 -0.45593999997E+02  0.45594000000E+02  0.51100000000E-03 0. -1.
    9900012    2    1    2    0    0  0.41311029635E+01 -0.10355411746E+02 -0.43644162575E+02  0.46142317732E+02  0.99999997364E+01 0.  0.
        -12    1    1    2    0    0 -0.41311029635E+01  0.10355411746E+02  0.43644162575E+02  0.45045682268E+02  0.00000000000E+00 0.  1.
         11    1    3    3    0    0  0.10258636069E+01 -0.75903692454E+01 -0.17684797061E+02  0.19272211829E+02  0.51100000000E-03 0. -1.
        -11    1    3    3    0    0 -0.35509313655E+00 -0.33954617612E+01 -0.13304159020E+02  0.13735206558E+02  0.51100000000E-03 0.  1.
         12    1    3    3    0    0  0.34603324932E+01  0.63041926111E+00 -0.12655206494E+02  0.13134899345E+02  0.00000000000E+00 0. -1.
</event>
<event>
 7    1  0.3919732E-008  0.4614232E+02  0.7816164E-02  0.1320468E+00
        -11   -1    0    0    0    0  0.00000000000E+00  0.00000000000E+00  0.45593999997E+02  0.45594000000E+02  0.51100000000E-03 0.  1.
         11   -1    0    0    0    0 -0.00000000000E+00 -0.00000000000E+00 -0.45593999997E+02  0.45594000000E+02  0.51100000000E-03 0. -1.
    9900012    2    1    2    0    0  0.26726893971E+02  0.17426247713E+02 -0.31797994647E+02  0.46142318361E+02  0.10000005471E+02 0.  0.
        -12    1    1    2    0    0 -0.26726893971E+02 -0.17426247713E+02  0.31797994647E+02  0.45045681639E+02  0.00000000000E+00 0.  1.
         11    1    3    3    0    0  0.74078593754E+01  0.37364218543E+01 -0.37295377152E+01  0.90965202484E+01  0.51100000000E-03 0. -1.
        -11    1    3    3    0    0  0.40197469437E+01  0.19956845834E+01 -0.28520787037E+01  0.53174689130E+01  0.51100000000E-03 0.  1.
        -12    1    3    3    0    0  0.15299287652E+02  0.11694141276E+02 -0.25216378228E+02  0.31728329200E+02  0.00000000000E+00 0.  1.
</event>
<event>
 7    1  0.3919732E-008  0.4614232E+02  0.7816164E-02  0.1320468E+00
        -11   -1    0    0    0    0  0.00000000000E+00  0.00000000000E+00  0.45593999997E+02  0.45594000000E+02  0.51100000000E-03 0. -1.
         11   -1    0    0    0    0 -0.00000000000E+00 -0.00000000000E+00 -0.45593999997E+02  0.45594000000E+02  0.51100000000E-03 0.  1.
    9900012    2    1    2    0    0 -0.30045070735E+02  0.33161153485E+02 -0.51715791358E+01  0.46142316448E+02  0.99999880290E+01 0.  0.
        -12    1    1    2    0    0  0.30045070735E+02 -0.33161153485E+02  0.51715791358E+01  0.45045683552E+02  0.00000000000E+00 0.  1.
         11    1    3    3    0    0 -0.93464673827E+01  0.63693316067E+01 -0.19352113715E+01  0.11474749712E+02  0.51100000000E-03 0. -1.
        -11    1    3    3    0    0 -0.26520030643E+01  0.65588633384E+01 -0.26336009727E+01  0.75490173459E+01  0.51100000000E-03 0.  1.
         12    1    3    3    0    0 -0.18046600288E+02  0.20232958540E+02 -0.60276679152E+00  0.27118549390E+02  0.00000000000E+00 0. -1.
</event>
<event>
 7    1  0.3919732E-008  0.4614232E+02  0.7816164E-02  0.1320468E+00
        -11   -1    0    0    0    0  0.00000000000E+00  0.00000000000E+00  0.45593999997E+02  0.45594000000E+02  0.51100000000E-03 0.  1.
         11   -1    0    0    0    0 -0.00000000000E+00 -0.00000000000E+00 -0.45593999997E+02  0.45594000000E+02  0.51100000000E-03 0. -1.
    9900012    2    1    2    0    0 -0.20161611278E+02  0.32206633933E+02 -0.24194124362E+02  0.46142317718E+02  0.99999996071E+01 0.  0.
        -12    1    1    2    0    0  0.20161611278E+02 -0.32206633933E+02  0.24194124362E+02  0.45045682282E+02  0.00000000000E+00 0.  1.
         11    1    3    3    0    0 -0.25478498330E+01  0.70223399188E+01 -0.51313372648E+01  0.90628593221E+01  0.51100000000E-03 0. -1.
        -11    1    3    3    0    0 -0.15117676480E+02  0.14920238849E+02 -0.12648734724E+02  0.24721410959E+02  0.51100000000E-03 0.  1.
        -12    1    3    3    0    0 -0.24960849649E+01  0.10264055166E+02 -0.64140523732E+01  0.12358047437E+02  0.00000000000E+00 0.  1.
</event>
<event>
 7    1  0.3919732E-008  0.4614232E+02  0.7816164E-02  0.1320468E+00
        -11   -1    0    0    0    0  0.00000000000E+00  0.00000000000E+00  0.45593999997E+02  0.45594000000E+02  0.51100000000E-03 0.  1.
         11   -1    0    0    0    0 -0.00000000000E+00 -0.00000000000E+00 -0.45593999997E+02  0.45594000000E+02  0.51100000000E-03 0. -1.
    9900012    2    1    2    0    0  0.17448809688E+02  0.40025843464E+02 -0.11071783128E+02  0.46142317786E+02  0.10000000224E+02 0.  0.
        -12    1    1    2    0    0 -0.17448809688E+02 -0.40025843464E+02  0.11071783128E+02  0.45045682214E+02  0.00000000000E+00 0.  1.
         11    1    3    3    0    0  0.85357999067E+01  0.20683540030E+02 -0.70276924452E+00  0.22386661052E+02  0.51100000000E-03 0. -1.
        -11    1    3    3    0    0  0.44878656375E+01  0.76439485539E+01 -0.41460277946E+01  0.97857260441E+01  0.51100000000E-03 0.  1.
         12    1    3    3    0    0  0.44251441435E+01  0.11698354880E+02 -0.62229860885E+01  0.13969930689E+02  0.00000000000E+00 0. -1.
</event>
<event>
 7    1  0.3919732E-008  0.4614232E+02  0.7816164E-02  0.1320468E+00
        -11   -1    0    0    0    0  0.00000000000E+00  0.00000000000E+00  0.45593999997E+02  0.45594000000E+02  0.51100000000E-03 0.  1.
         11   -1    0    0    0    0 -0.00000000000E+00 -0.00000000000E+00 -0.45593999997E+02  0.45594000000E+02  0.51100000000E-03 0. -1.
    9900012    2    1    2    0    0 -0.11420188301E+02  0.88161315791E+01 -0.42672808658E+02  0.46142317903E+02  0.10000001291E+02 0.  0.
        -12    1    1    2    0    0  0.11420188301E+02 -0.88161315791E+01  0.42672808658E+02  0.45045682097E+02  0.00000000000E+00 0.  1.
         11    1    3    3    0    0 -0.40453082992E+01  0.95758169697E+00 -0.19927132309E+02  0.20356131368E+02  0.51100000000E-03 0.  1.
        -11    1    3    3    0    0 -0.12673949077E+01  0.26696538534E+01 -0.12131792126E+02  0.12486541635E+02  0.51100000000E-03 0. -1.
        -12    1    3    3    0    0 -0.61074850939E+01  0.51888960287E+01 -0.10613884223E+02  0.13299644900E+02  0.00000000000E+00 0.  1.
</event>
<event>
 7    1  0.3919732E-008  0.4614232E+02  0.7816164E-02  0.1320468E+00
        -11   -1    0    0    0    0  0.00000000000E+00  0.00000000000E+00  0.45593999997E+02  0.45594000000E+02  0.51100000000E-03 0.  1.
         11   -1    0    0    0    0 -0.00000000000E+00 -0.00000000000E+00 -0.45593999997E+02  0.45594000000E+02  0.51100000000E-03 0. -1.
    9900012    2    1    2    0    0  0.18113795223E+02  0.27793873396E+02 -0.30471371018E+02  0.46142318437E+02  0.10000006167E+02 0.  0.
        -12    1    1    2    0    0 -0.18113795223E+02 -0.27793873396E+02  0.30471371018E+02  0.45045681563E+02  0.00000000000E+00 0.  1.
         11    1    3    3    0    0  0.17688150906E+01  0.76560250767E+01 -0.93398112770E+01  0.12205552087E+02  0.51100000000E-03 0. -1.
        -11    1    3    3    0    0  0.13982595885E+02  0.19612050261E+02 -0.18578092611E+02  0.30418596753E+02  0.51100000000E-03 0.  1.
         12    1    3    3    0    0  0.23623842469E+01  0.52579805831E+00 -0.25534671300E+01  0.35181695969E+01  0.00000000000E+00 0. -1.
</event>
<event>
 7    1  0.3919732E-008  0.4614232E+02  0.7816164E-02  0.1320468E+00
        -11   -1    0    0    0    0  0.00000000000E+00  0.00000000000E+00  0.45593999997E+02  0.45594000000E+02  0.51100000000E-03 0. -1.
         11   -1    0    0    0    0 -0.00000000000E+00 -0.00000000000E+00 -0.45593999997E+02  0.45594000000E+02  0.51100000000E-03 0.  1.
    9900012    2    1    2    0    0 -0.31004917844E+01  0.43883672689E+02 -0.96810996682E+01  0.46142317978E+02  0.10000001982E+02 0.  0.
        -12    1    1    2    0    0  0.31004917844E+01 -0.43883672689E+02  0.96810996682E+01  0.45045682022E+02  0.00000000000E+00 0.  1.
         11    1    3    3    0    0 -0.51625850628E+01  0.30552120566E+02 -0.88237844939E+01  0.32217130982E+02  0.51100000000E-03 0.  1.
        -11    1    3    3    0    0 -0.24136949482E+00  0.61113935154E+01 -0.15659152696E+01  0.63134365305E+01  0.51100000000E-03 0. -1.
        -12    1    3    3    0    0  0.23034627732E+01  0.72201586074E+01  0.70860009526E+00  0.76117504661E+01  0.00000000000E+00 0.  1.
</event>
<event>
 7    1  0.3919732E-008  0.4614232E+02  0.7816164E-02  0.1320468E+00
        -11   -1    0    0    0    0  0.00000000000E+00  0.00000000000E+00  0.45593999997E+02  0.45594000000E+02  0.51100000000E-03 0. -1.
         11   -1    0    0    0    0 -0.00000000000E+00 -0.00000000000E+00 -0.45593999997E+02  0.45594000000E+02  0.51100000000E-03 0.  1.
    9900012    2    1    2    0    0 -0.42520117939E+02 -0.86499704419E+01 -0.12096739006E+02  0.46142317490E+02  0.99999975312E+01 0.  0.
        -12    1    1    2    0    0  0.42520117939E+02  0.86499704419E+01  0.12096739006E+02  0.45045682510E+02  0.00000000000E+00 0.  1.
         11    1    3    3    0    0 -0.85734886191E+01 -0.18760692563E+01 -0.14300580915E+01  0.88920981418E+01  0.51100000000E-03 0. -1.
        -11    1    3    3    0    0 -0.43410394191E+01 -0.46074021748E+00 -0.46664713118E+01  0.63900594325E+01  0.51100000000E-03 0.  1.
        -12    1    3    3    0    0 -0.29605589901E+02 -0.63131609680E+01 -0.60002096032E+01  0.30860159916E+02  0.00000000000E+00 0.  1.
</event>
<event>
 7    1  0.3919732E-008  0.4614232E+02  0.7816164E-02  0.1320468E+00
        -11   -1    0    0    0    0  0.00000000000E+00  0.00000000000E+00  0.45593999997E+02  0.45594000000E+02  0.51100000000E-03 0. -1.
         11   -1    0    0    0    0 -0.00000000000E+00 -0.00000000000E+00 -0.45593999997E+02  0.45594000000E+02  0.51100000000E-03 0.  1.
    9900012    2    1    2    0    0 -0.17379245942E+02 -0.13550871694E+02  0.39286754312E+02  0.46142318991E+02  0.10000011218E+02 0.  0.
        -12    1    1    2    0    0  0.17379245942E+02  0.13550871694E+02 -0.39286754312E+02  0.45045681009E+02  0.00000000000E+00 0.  1.
         11    1    3    3    0    0 -0.80611860503E+01 -0.48657207238E+01  0.12576696021E+02  0.15710863813E+02  0.51100000000E-03 0. -1.
        -11    1    3    3    0    0 -0.85528658841E+01 -0.57229221622E+01  0.14102938364E+02  0.17458414122E+02  0.51100000000E-03 0.  1.
         12    1    3    3    0    0 -0.76519400775E+00 -0.29622288077E+01  0.12607119927E+02  0.12973041056E+02  0.00000000000E+00 0. -1.
</event>
<event>
 7    1  0.3919732E-008  0.4614232E+02  0.7816164E-02  0.1320468E+00
        -11   -1    0    0    0    0  0.00000000000E+00  0.00000000000E+00  0.45593999997E+02  0.45594000000E+02  0.51100000000E-03 0.  1.
         11   -1    0    0    0    0 -0.00000000000E+00 -0.00000000000E+00 -0.45593999997E+02  0.45594000000E+02  0.51100000000E-03 0. -1.
    9900012    2    1    2    0    0  0.44544064019E+01  0.39012846429E+02 -0.22074182932E+02  0.46142317909E+02  0.10000001350E+02 0.  0.
        -12    1    1    2    0    0 -0.44544064019E+01 -0.39012846429E+02  0.22074182932E+02  0.45045682091E+02  0.00000000000E+00 0.  1.
         11    1    3    3    0    0  0.21815476499E+01  0.44435256159E+01 -0.41345363526E+01  0.64496869040E+01  0.51100000000E-03 0. -1.
        -11    1    3    3    0    0  0.44586971621E+01  0.14913696808E+02 -0.90942119594E+01  0.18027840256E+02  0.51100000000E-03 0.  1.
         12    1    3    3    0    0 -0.21858384101E+01  0.19655624005E+02 -0.88454346204E+01  0.21664790749E+02  0.00000000000E+00 0. -1.
</event>
<event>
 7    1  0.3919732E-008  0.4614232E+02  0.7816164E-02  0.1320468E+00
        -11   -1    0    0    0    0  0.00000000000E+00  0.00000000000E+00  0.45593999997E+02  0.45594000000E+02  0.51100000000E-03 0.  1.
         11   -1    0    0    0    0 -0.00000000000E+00 -0.00000000000E+00 -0.45593999997E+02  0.45594000000E+02  0.51100000000E-03 0. -1.
    9900012    2    1    2    0    0 -0.65966230164E+01 -0.44024655028E+02 -0.68867802497E+01  0.46142318434E+02  0.10000006132E+02 0.  0.
        -12    1    1    2    0    0  0.65966230164E+01  0.44024655028E+02  0.68867802497E+01  0.45045681566E+02  0.00000000000E+00 0.  1.
         11    1    3    3    0    0 -0.51251652111E+01 -0.10183878754E+02 -0.60823242460E+00  0.11417033409E+02  0.51100000000E-03 0. -1.
        -11    1    3    3    0    0 -0.26551147450E+01 -0.19280947173E+02 -0.47761638089E+01  0.20040366743E+02  0.51100000000E-03 0.  1.
        -12    1    3    3    0    0  0.11836569397E+01 -0.14559829101E+02 -0.15023840162E+01  0.14684918281E+02  0.00000000000E+00 0.  1.
</event>
<event>
 7    1  0.3919732E-008  0.4614232E+02  0.7816164E-02  0.1320468E+00
        -11   -1    0    0    0    0  0.00000000000E+00  0.00000000000E+00  0.45593999997E+02  0.45594000000E+02  0.51100000000E-03 0.  1.
         11   -1    0    0    0    0 -0.00000000000E+00 -0.00000000000E+00 -0.45593999997E+02  0.45594000000E+02  0.51100000000E-03 0. -1.
    9900012    2    1    2    0    0 -0.22176309564E+02 -0.18498018535E+01 -0.39165075186E+02  0.46142316666E+02  0.99999900116E+01 0.  0.
        -12    1    1    2    0    0  0.22176309564E+02  0.18498018535E+01  0.39165075186E+02  0.45045683334E+02  0.00000000000E+00 0.  1.
         11    1    3    3    0    0 -0.43336405075E+01 -0.35368872793E+01 -0.63990473463E+01  0.84992834331E+01  0.51100000000E-03 0. -1.
        -11    1    3    3    0    0 -0.33099667724E+01  0.12293691435E+01 -0.10243356033E+02  0.10834831407E+02  0.51100000000E-03 0.  1.
         12    1    3    3    0    0 -0.14532702284E+02  0.45771628226E+00 -0.22522671806E+02  0.26808201826E+02  0.00000000000E+00 0. -1.
</event>
<event>
 7    1  0.3919732E-008  0.4614232E+02  0.7816164E-02  0.1320468E+00
        -11   -1    0    0    0    0  0.00000000000E+00  0.00000000000E+00  0.45593999997E+02  0.45594000000E+02  0.51100000000E-03 0. -1.
         11   -1    0    0    0    0 -0.00000000000E+00 -0.00000000000E+00 -0.45593999997E+02  0.45594000000E+02  0.51100000000E-03 0.  1.
    9900012    2    1    2    0    0  0.30905990390E+02 -0.21643152030E+02  0.24607055369E+02  0.46142318234E+02  0.10000004314E+02 0.  0.
        -12    1    1    2    0    0 -0.30905990390E+02  0.21643152030E+02 -0.24607055369E+02  0.45045681766E+02  0.00000000000E+00 0.  1.
         11    1    3    3    0    0  0.18893605570E+02 -0.15706781852E+02  0.17170490996E+02  0.29974941016E+02  0.51100000000E-03 0. -1.
        -11    1    3    3    0    0  0.34644838187E+01 -0.45135743999E+01  0.29818433973E+01  0.64238923014E+01  0.51100000000E-03 0.  1.
        -12    1    3    3    0    0  0.85479010015E+01 -0.14227957781E+01  0.44547209759E+01  0.97434849172E+01  0.00000000000E+00 0.  1.
</event>
<event>
 7    1  0.3919732E-008  0.4614232E+02  0.7816164E-02  0.1320468E+00
        -11   -1    0    0    0    0  0.00000000000E+00  0.00000000000E+00  0.45593999997E+02  0.45594000000E+02  0.51100000000E-03 0. -1.
         11   -1    0    0    0    0 -0.00000000000E+00 -0.00000000000E+00 -0.45593999997E+02  0.45594000000E+02  0.51100000000E-03 0.  1.
    9900012    2    1    2    0    0 -0.24827236451E+02  0.34446218205E+02  0.15039277957E+02  0.46142317634E+02  0.99999988364E+01 0.  0.
        -12    1    1    2    0    0  0.24827236451E+02 -0.34446218205E+02 -0.15039277957E+02  0.45045682366E+02  0.00000000000E+00 0.  1.
         11    1    3    3    0    0 -0.16050809657E+02  0.20723118159E+02  0.89309757835E+01  0.27691847999E+02  0.51100000000E-03 0. -1.
        -11    1    3    3    0    0 -0.44774458732E+01  0.34138535374E+01  0.44110533679E+01  0.71525736345E+01  0.51100000000E-03 0.  1.
        -12    1    3    3    0    0 -0.42989809210E+01  0.10309246508E+02  0.16972488053E+01  0.11297896000E+02  0.00000000000E+00 0.  1.
</event>
<event>
 7    1  0.3919732E-008  0.4614232E+02  0.7816164E-02  0.1320468E+00
        -11   -1    0    0    0    0  0.00000000000E+00  0.00000000000E+00  0.45593999997E+02  0.45594000000E+02  0.51100000000E-03 0.  1.
         11   -1    0    0    0    0 -0.00000000000E+00 -0.00000000000E+00 -0.45593999997E+02  0.45594000000E+02  0.51100000000E-03 0. -1.
    9900012    2    1    2    0    0 -0.39799223106E+02 -0.58028300756E+01 -0.20284524693E+02  0.46142323862E+02  0.10000055632E+02 0.  0.
        -12    1    1    2    0    0  0.39799223106E+02  0.58028300756E+01  0.20284524693E+02  0.45045676138E+02  0.00000000000E+00 0.  1.
         11    1    3    3    0    0 -0.79314580560E+01 -0.37074749215E+01 -0.57163163817E+01  0.10456082939E+02  0.51100000000E-03 0. -1.
        -11    1    3    3    0    0 -0.17684207028E+02 -0.69684945369E+00 -0.45755015499E+01  0.18279824728E+02  0.51100000000E-03 0.  1.
         12    1    3    3    0    0 -0.14183558021E+02 -0.13985057003E+01 -0.99927067613E+01  0.17406416195E+02  0.00000000000E+00 0. -1.
</event>
<event>
 7    1  0.3919732E-008  0.4614232E+02  0.7816164E-02  0.1320468E+00
        -11   -1    0    0    0    0  0.00000000000E+00  0.00000000000E+00  0.45593999997E+02  0.45594000000E+02  0.51100000000E-03 0.  1.
         11   -1    0    0    0    0 -0.00000000000E+00 -0.00000000000E+00 -0.45593999997E+02  0.45594000000E+02  0.51100000000E-03 0. -1.
    9900012    2    1    2    0    0 -0.30163996165E+02  0.47914371206E+01 -0.33110254830E+02  0.46142317530E+02  0.99999978883E+01 0.  0.
        -12    1    1    2    0    0  0.30163996165E+02 -0.47914371206E+01  0.33110254830E+02  0.45045682470E+02  0.00000000000E+00 0.  1.
         11    1    3    3    0    0 -0.78448235923E+01  0.37607265331E+00 -0.81000459725E+01  0.11282439136E+02  0.51100000000E-03 0. -1.
        -11    1    3    3    0    0 -0.12651961498E+02  0.39953465887E+01 -0.86062246866E+01  0.15814614372E+02  0.51100000000E-03 0.  1.
         12    1    3    3    0    0 -0.96672110742E+01  0.42001787856E+00 -0.16403984171E+02  0.19045264022E+02  0.00000000000E+00 0. -1.
</event>
<event>
 7    1  0.3919732E-008  0.4614232E+02  0.7816164E-02  0.1320468E+00
        -11   -1    0    0    0    0  0.00000000000E+00  0.00000000000E+00  0.45593999997E+02  0.45594000000E+02  0.51100000000E-03 0.  1.
         11   -1    0    0    0    0 -0.00000000000E+00 -0.00000000000E+00 -0.45593999997E+02  0.45594000000E+02  0.51100000000E-03 0. -1.
    9900012    2    1    2    0    0 -0.42003963537E+02  0.84873893347E+01 -0.13883248560E+02  0.46142319617E+02  0.10000016925E+02 0.  0.
        -12    1    1    2    0    0  0.42003963537E+02 -0.84873893347E+01  0.13883248560E+02  0.45045680383E+02  0.00000000000E+00 0.  1.
         11    1    3    3    0    0 -0.34868484663E+01  0.62956007491E+00 -0.10832258615E+01  0.37051095319E+01  0.51100000000E-03 0. -1.
        -11    1    3    3    0    0 -0.27668364547E+02  0.15466976077E+01 -0.10731705855E+02  0.29717001548E+02  0.51100000000E-03 0.  1.
        -12    1    3    3    0    0 -0.10848750524E+02  0.63111316522E+01 -0.20683168437E+01  0.12720208537E+02  0.00000000000E+00 0.  1.
</event>
<event>
 7    1  0.3919732E-008  0.4614232E+02  0.7816164E-02  0.1320468E+00
        -11   -1    0    0    0    0  0.00000000000E+00  0.00000000000E+00  0.45593999997E+02  0.45594000000E+02  0.51100000000E-03 0. -1.
         11   -1    0    0    0    0 -0.00000000000E+00 -0.00000000000E+00 -0.45593999997E+02  0.45594000000E+02  0.51100000000E-03 0.  1.
    9900012    2    1    2    0    0 -0.18871600720E+02  0.13815539565E+01  0.40878691675E+02  0.46142318318E+02  0.10000005082E+02 0.  0.
        -12    1    1    2    0    0  0.18871600720E+02 -0.13815539565E+01 -0.40878691675E+02  0.45045681682E+02  0.00000000000E+00 0.  1.
         11    1    3    3    0    0 -0.15899964114E+01  0.88607369994E+00  0.14020880329E+01  0.22976218799E+01  0.51100000000E-03 0. -1.
        -11    1    3    3    0    0 -0.75743768436E+00  0.23316722143E+01  0.50207800915E+01  0.55873643294E+01  0.51100000000E-03 0.  1.
         12    1    3    3    0    0 -0.16524166624E+02 -0.18361919577E+01  0.34455823551E+02  0.38257332109E+02  0.00000000000E+00 0. -1.
</event>
<event>
 7    1  0.3919732E-008  0.4614232E+02  0.7816164E-02  0.1320468E+00
        -11   -1    0    0    0    0  0.00000000000E+00  0.00000000000E+00  0.45593999997E+02  0.45594000000E+02  0.51100000000E-03 0.  1.
         11   -1    0    0    0    0 -0.00000000000E+00 -0.00000000000E+00 -0.45593999997E+02  0.45594000000E+02  0.51100000000E-03 0. -1.
    9900012    2    1    2    0    0  0.22321429207E+02 -0.10485836220E+02 -0.37695020313E+02  0.46142317416E+02  0.99999968528E+01 0.  0.
        -12    1    1    2    0    0 -0.22321429207E+02  0.10485836220E+02  0.37695020313E+02  0.45045682584E+02  0.00000000000E+00 0.  1.
         11    1    3    3    0    0  0.43259524790E+01 -0.16243807479E+01 -0.10286501704E+02  0.11276728038E+02  0.51100000000E-03 0. -1.
        -11    1    3    3    0    0  0.17202771027E+02 -0.62978033299E+01 -0.20710271757E+02  0.27649828468E+02  0.51100000000E-03 0.  1.
        -12    1    3    3    0    0  0.79270570144E+00 -0.25636521418E+01 -0.66982468515E+01  0.72157609105E+01  0.00000000000E+00 0.  1.
</event>
<event>
 7    1  0.3919732E-008  0.4614232E+02  0.7816164E-02  0.1320468E+00
        -11   -1    0    0    0    0  0.00000000000E+00  0.00000000000E+00  0.45593999997E+02  0.45594000000E+02  0.51100000000E-03 0. -1.
         11   -1    0    0    0    0 -0.00000000000E+00 -0.00000000000E+00 -0.45593999997E+02  0.45594000000E+02  0.51100000000E-03 0.  1.
    9900012    2    1    2    0    0 -0.32439221169E+02  0.29875658871E+02 -0.91790759313E+01  0.46142317654E+02  0.99999990240E+01 0.  0.
        -12    1    1    2    0    0  0.32439221169E+02 -0.29875658871E+02  0.91790759313E+01  0.45045682346E+02  0.00000000000E+00 0.  1.
         11    1    3    3    0    0 -0.81386731991E+01  0.66604164225E+01 -0.59173683434E+01  0.12067079047E+02  0.51100000000E-03 0. -1.
        -11    1    3    3    0    0 -0.44057101630E+01  0.21254310516E+01  0.66065535865E-01  0.48920449825E+01  0.51100000000E-03 0.  1.
         12    1    3    3    0    0 -0.19894837807E+02  0.21089811397E+02 -0.33277731238E+01  0.29183193624E+02  0.00000000000E+00 0. -1.
</event>
<event>
 7    1  0.3919732E-008  0.4614232E+02  0.7816164E-02  0.1320468E+00
        -11   -1    0    0    0    0  0.00000000000E+00  0.00000000000E+00  0.45593999997E+02  0.45594000000E+02  0.51100000000E-03 0.  1.
         11   -1    0    0    0    0 -0.00000000000E+00 -0.00000000000E+00 -0.45593999997E+02  0.45594000000E+02  0.51100000000E-03 0. -1.
    9900012    2    1    2    0    0 -0.68751465403E+01  0.39357347854E+02  0.20804920443E+02  0.46142321132E+02  0.10000030738E+02 0.  0.
        -12    1    1    2    0    0  0.68751465403E+01 -0.39357347854E+02 -0.20804920443E+02  0.45045678868E+02  0.00000000000E+00 0.  1.
         11    1    3    3    0    0 -0.49584324093E+01  0.22320760992E+02  0.10217155844E+02  0.25043815544E+02  0.51100000000E-03 0. -1.
        -11    1    3    3    0    0 -0.22488478355E+01  0.76678994072E+01  0.81462904507E+01  0.11411224574E+02  0.51100000000E-03 0.  1.
        -12    1    3    3    0    0  0.33213370449E+00  0.93686874548E+01  0.24414741485E+01  0.96872810139E+01  0.00000000000E+00 0.  1.
</event>
<event>
 7    1  0.3919732E-008  0.4614232E+02  0.7816164E-02  0.1320468E+00
        -11   -1    0    0    0    0  0.00000000000E+00  0.00000000000E+00  0.45593999997E+02  0.45594000000E+02  0.51100000000E-03 0.  1.
         11   -1    0    0    0    0 -0.00000000000E+00 -0.00000000000E+00 -0.45593999997E+02  0.45594000000E+02  0.51100000000E-03 0. -1.
    9900012    2    1    2    0    0  0.25214699845E+02  0.21225511261E+02 -0.30705213762E+02  0.46142316869E+02  0.99999918663E+01 0.  0.
        -12    1    1    2    0    0 -0.25214699845E+02 -0.21225511261E+02  0.30705213762E+02  0.45045683131E+02  0.00000000000E+00 0.  1.
         11    1    3    3    0    0  0.51947611268E+01  0.41612626525E+01 -0.16850469077E+01  0.68659328113E+01  0.51100000000E-03 0.  1.
        -11    1    3    3    0    0  0.43642928447E+01  0.36730825730E+01 -0.81771530754E+01  0.99701765431E+01  0.51100000000E-03 0. -1.
        -12    1    3    3    0    0  0.15655645873E+02  0.13391166035E+02 -0.20843013779E+02  0.29306207515E+02  0.00000000000E+00 0.  1.
</event>
<event>
 7    1  0.3919732E-008  0.4614232E+02  0.7816164E-02  0.1320468E+00
        -11   -1    0    0    0    0  0.00000000000E+00  0.00000000000E+00  0.45593999997E+02  0.45594000000E+02  0.51100000000E-03 0.  1.
         11   -1    0    0    0    0 -0.00000000000E+00 -0.00000000000E+00 -0.45593999997E+02  0.45594000000E+02  0.51100000000E-03 0. -1.
    9900012    2    1    2    0    0  0.11472604325E+02  0.47490858580E+01 -0.43300565941E+02  0.46142317884E+02  0.10000001123E+02 0.  0.
        -12    1    1    2    0    0 -0.11472604325E+02 -0.47490858580E+01  0.43300565941E+02  0.45045682116E+02  0.00000000000E+00 0.  1.
         11    1    3    3    0    0  0.43504557103E+01  0.57604847564E+00 -0.13085857996E+02  0.13802100437E+02  0.51100000000E-03 0. -1.
        -11    1    3    3    0    0  0.72055885570E+01  0.80574468967E+00 -0.25726323585E+02  0.26728513921E+02  0.51100000000E-03 0.  1.
        -12    1    3    3    0    0 -0.83439942166E-01  0.33672926927E+01 -0.44883843600E+01  0.56117035261E+01  0.00000000000E+00 0.  1.
</event>
<event>
 7    1  0.3919732E-008  0.4614232E+02  0.7816164E-02  0.1320468E+00
        -11   -1    0    0    0    0  0.00000000000E+00  0.00000000000E+00  0.45593999997E+02  0.45594000000E+02  0.51100000000E-03 0.  1.
         11   -1    0    0    0    0 -0.00000000000E+00 -0.00000000000E+00 -0.45593999997E+02  0.45594000000E+02  0.51100000000E-03 0. -1.
    9900012    2    1    2    0    0 -0.17840537697E+02  0.29312365966E+02 -0.29182422339E+02  0.46142319215E+02  0.10000013256E+02 0.  0.
        -12    1    1    2    0    0  0.17840537697E+02 -0.29312365966E+02  0.29182422339E+02  0.45045680785E+02  0.00000000000E+00 0.  1.
         11    1    3    3    0    0 -0.14479197754E+02  0.20941465962E+02 -0.19574538287E+02  0.32114711795E+02  0.51100000000E-03 0. -1.
        -11    1    3    3    0    0 -0.26568657500E+01  0.68285914802E+01 -0.43912868639E+01  0.85423648832E+01  0.51100000000E-03 0.  1.
         12    1    3    3    0    0 -0.70447419317E+00  0.15423085238E+01 -0.52165971875E+01  0.54852425368E+01  0.00000000000E+00 0. -1.
</event>
<event>
 7    1  0.3919732E-008  0.4614232E+02  0.7816164E-02  0.1320468E+00
        -11   -1    0    0    0    0  0.00000000000E+00  0.00000000000E+00  0.45593999997E+02  0.45594000000E+02  0.51100000000E-03 0.  1.
         11   -1    0    0    0    0 -0.00000000000E+00 -0.00000000000E+00 -0.45593999997E+02  0.45594000000E+02  0.51100000000E-03 0. -1.
    9900012    2    1    2    0    0  0.16458024688E+02  0.40638508162E+02 -0.10332401444E+02  0.46142318278E+02  0.10000004711E+02 0.  0.
        -12    1    1    2    0    0 -0.16458024688E+02 -0.40638508162E+02  0.10332401444E+02  0.45045681722E+02  0.00000000000E+00 0.  1.
         11    1    3    3    0    0  0.23184982368E+01  0.47903567655E+01 -0.22938708412E+01  0.57952390556E+01  0.51100000000E-03 0. -1.
        -11    1    3    3    0    0  0.10880601066E+02  0.16702819836E+02 -0.60113028507E+01  0.20820841296E+02  0.51100000000E-03 0.  1.
         12    1    3    3    0    0  0.32589253856E+01  0.19145331560E+02 -0.20272277519E+01  0.19526237926E+02  0.00000000000E+00 0. -1.
</event>
<event>
 7    1  0.3919732E-008  0.4614232E+02  0.7816164E-02  0.1320468E+00
        -11   -1    0    0    0    0  0.00000000000E+00  0.00000000000E+00  0.45593999997E+02  0.45594000000E+02  0.51100000000E-03 0. -1.
         11   -1    0    0    0    0 -0.00000000000E+00 -0.00000000000E+00 -0.45593999997E+02  0.45594000000E+02  0.51100000000E-03 0.  1.
    9900012    2    1    2    0    0  0.21720102526E+02  0.38627258641E+02 -0.80799506426E+01  0.46142316897E+02  0.99999921181E+01 0.  0.
        -12    1    1    2    0    0 -0.21720102526E+02 -0.38627258641E+02  0.80799506426E+01  0.45045683103E+02  0.00000000000E+00 0.  1.
         11    1    3    3    0    0  0.82833509608E+01  0.98448198026E+01 -0.19209591126E+00  0.12867450454E+02  0.51100000000E-03 0. -1.
        -11    1    3    3    0    0  0.98664484655E+00  0.82699922711E+01 -0.22201142298E+01  0.86194633054E+01  0.51100000000E-03 0.  1.
        -12    1    3    3    0    0  0.12450106718E+02  0.20512446567E+02 -0.56677405015E+01  0.24655403137E+02  0.00000000000E+00 0.  1.
</event>
<event>
 7    1  0.3919732E-008  0.4614232E+02  0.7816164E-02  0.1320468E+00
        -11   -1    0    0    0    0  0.00000000000E+00  0.00000000000E+00  0.45593999997E+02  0.45594000000E+02  0.51100000000E-03 0.  1.
         11   -1    0    0    0    0 -0.00000000000E+00 -0.00000000000E+00 -0.45593999997E+02  0.45594000000E+02  0.51100000000E-03 0. -1.
    9900012    2    1    2    0    0  0.28717849277E+02 -0.14906633988E+02 -0.31339918503E+02  0.46142322119E+02  0.10000039738E+02 0.  0.
        -12    1    1    2    0    0 -0.28717849277E+02  0.14906633988E+02  0.31339918503E+02  0.45045677881E+02  0.00000000000E+00 0.  1.
         11    1    3    3    0    0  0.20015658841E+02 -0.11042427557E+02 -0.23126745502E+02  0.32517813010E+02  0.51100000000E-03 0. -1.
        -11    1    3    3    0    0  0.64765181309E+01 -0.43097574974E+01 -0.37913034834E+01  0.86540903133E+01  0.51100000000E-03 0.  1.
        -12    1    3    3    0    0  0.22256723055E+01  0.44555106734E+00 -0.44218695183E+01  0.49704187954E+01  0.00000000000E+00 0.  1.
</event>
<event>
 7    1  0.3919732E-008  0.4614233E+02  0.7816164E-02  0.1320468E+00
        -11   -1    0    0    0    0  0.00000000000E+00  0.00000000000E+00  0.45593999997E+02  0.45594000000E+02  0.51100000000E-03 0. -1.
         11   -1    0    0    0    0 -0.00000000000E+00 -0.00000000000E+00 -0.45593999997E+02  0.45594000000E+02  0.51100000000E-03 0.  1.
    9900012    2    1    2    0    0  0.13589109751E+01 -0.43385410086E+02 -0.12040439451E+02  0.46142327294E+02  0.10000086929E+02 0.  0.
        -12    1    1    2    0    0 -0.13589109751E+01  0.43385410086E+02  0.12040439451E+02  0.45045672706E+02  0.00000000000E+00 0.  1.
         11    1    3    3    0    0  0.27464447999E+01 -0.23152488139E+02 -0.32044028646E+01  0.23533993797E+02  0.51100000000E-03 0. -1.
        -11    1    3    3    0    0  0.12270760034E+01 -0.42426169645E+01 -0.67954838809E+00  0.44684785440E+01  0.51100000000E-03 0.  1.
         12    1    3    3    0    0 -0.26146098281E+01 -0.15990304983E+02 -0.81564881983E+01  0.18139854953E+02  0.00000000000E+00 0. -1.
</event>
<event>
 7    1  0.3919732E-008  0.4614233E+02  0.7816164E-02  0.1320468E+00
        -11   -1    0    0    0    0  0.00000000000E+00  0.00000000000E+00  0.45593999997E+02  0.45594000000E+02  0.51100000000E-03 0.  1.
         11   -1    0    0    0    0 -0.00000000000E+00 -0.00000000000E+00 -0.45593999997E+02  0.45594000000E+02  0.51100000000E-03 0. -1.
    9900012    2    1    2    0    0 -0.19172028097E+02 -0.39293711046E+02  0.10842061625E+02  0.46142326629E+02  0.10000080867E+02 0.  0.
        -12    1    1    2    0    0  0.19172028097E+02  0.39293711046E+02 -0.10842061625E+02  0.45045673371E+02  0.00000000000E+00 0.  1.
         11    1    3    3    0    0 -0.13236791861E+02 -0.28400965163E+02  0.72083952176E+01  0.32152580655E+02  0.51100000000E-03 0. -1.
        -11    1    3    3    0    0 -0.51377747222E+01 -0.63142733630E+01  0.82451087137E-01  0.81408584094E+01  0.51100000000E-03 0.  1.
         12    1    3    3    0    0 -0.79746151392E+00 -0.45784725206E+01  0.35512153206E+01  0.58488875644E+01  0.00000000000E+00 0. -1.
</event>
<event>
 7    1  0.3919732E-008  0.4614232E+02  0.7816164E-02  0.1320468E+00
        -11   -1    0    0    0    0  0.00000000000E+00  0.00000000000E+00  0.45593999997E+02  0.45594000000E+02  0.51100000000E-03 0.  1.
         11   -1    0    0    0    0 -0.00000000000E+00 -0.00000000000E+00 -0.45593999997E+02  0.45594000000E+02  0.51100000000E-03 0. -1.
    9900012    2    1    2    0    0 -0.40410879297E+02 -0.13695940410E+02 -0.14439373509E+02  0.46142318114E+02  0.10000003217E+02 0.  0.
        -12    1    1    2    0    0  0.40410879297E+02  0.13695940410E+02  0.14439373509E+02  0.45045681886E+02  0.00000000000E+00 0.  1.
         11    1    3    3    0    0 -0.20867575765E+02 -0.38309638946E+01 -0.80605174496E+01  0.22695901491E+02  0.51100000000E-03 0.  1.
        -11    1    3    3    0    0 -0.17529940964E+02 -0.75806620386E+01 -0.69954662561E+01  0.20339661147E+02  0.51100000000E-03 0. -1.
         12    1    3    3    0    0 -0.20133625675E+01 -0.22843144765E+01  0.61661019638E+00  0.31067554764E+01  0.00000000000E+00 0. -1.
</event>
<event>
 7    1  0.3919732E-008  0.4614232E+02  0.7816164E-02  0.1320468E+00
        -11   -1    0    0    0    0  0.00000000000E+00  0.00000000000E+00  0.45593999997E+02  0.45594000000E+02  0.51100000000E-03 0. -1.
         11   -1    0    0    0    0 -0.00000000000E+00 -0.00000000000E+00 -0.45593999997E+02  0.45594000000E+02  0.51100000000E-03 0.  1.
    9900012    2    1    2    0    0 -0.40835223109E+02  0.59315575733E+01  0.18066947272E+02  0.46142318683E+02  0.10000008403E+02 0.  0.
        -12    1    1    2    0    0  0.40835223109E+02 -0.59315575733E+01 -0.18066947272E+02  0.45045681317E+02  0.00000000000E+00 0.  1.
         11    1    3    3    0    0 -0.23706645738E+02  0.43910417405E+01  0.87565187595E+01  0.25650787917E+02  0.51100000000E-03 0. -1.
        -11    1    3    3    0    0 -0.46938447177E+01  0.11274933042E+01  0.58362449226E+01  0.75739800926E+01  0.51100000000E-03 0.  1.
        -12    1    3    3    0    0 -0.12434732653E+02  0.41302252863E+00  0.34741835896E+01  0.12917550673E+02  0.00000000000E+00 0.  1.
</event>
<event>
 7    1  0.3919732E-008  0.4614232E+02  0.7816164E-02  0.1320468E+00
        -11   -1    0    0    0    0  0.00000000000E+00  0.00000000000E+00  0.45593999997E+02  0.45594000000E+02  0.51100000000E-03 0.  1.
         11   -1    0    0    0    0 -0.00000000000E+00 -0.00000000000E+00 -0.45593999997E+02  0.45594000000E+02  0.51100000000E-03 0. -1.
    9900012    2    1    2    0    0  0.98386794221E+01  0.16707159205E+01 -0.43926329942E+02  0.46142319113E+02  0.10000012323E+02 0.  0.
        -12    1    1    2    0    0 -0.98386794221E+01 -0.16707159205E+01  0.43926329942E+02  0.45045680887E+02  0.00000000000E+00 0.  1.
         11    1    3    3    0    0 -0.17180274644E+01  0.12707830080E+00 -0.81827290414E+01  0.83621063189E+01  0.51100000000E-03 0.  1.
        -11    1    3    3    0    0  0.60476490849E+01 -0.80422164509E-01 -0.13253393622E+02  0.14568217803E+02  0.51100000000E-03 0. -1.
        -12    1    3    3    0    0  0.55090578017E+01  0.16240597842E+01 -0.22490207278E+02  0.23211994991E+02  0.00000000000E+00 0.  1.
</event>
<event>
 7    1  0.3919732E-008  0.4614232E+02  0.7816164E-02  0.1320468E+00
        -11   -1    0    0    0    0  0.00000000000E+00  0.00000000000E+00  0.45593999997E+02  0.45594000000E+02  0.51100000000E-03 0.  1.
         11   -1    0    0    0    0 -0.00000000000E+00 -0.00000000000E+00 -0.45593999997E+02  0.45594000000E+02  0.51100000000E-03 0. -1.
    9900012    2    1    2    0    0 -0.13530278696E+02 -0.28618780105E+02 -0.32047003191E+02  0.46142318411E+02  0.10000005927E+02 0.  0.
        -12    1    1    2    0    0  0.13530278696E+02  0.28618780105E+02  0.32047003191E+02  0.45045681589E+02  0.00000000000E+00 0.  1.
         11    1    3    3    0    0 -0.22295259683E+01 -0.58910834820E+01 -0.85778414361E+01  0.10642133931E+02  0.51100000000E-03 0. -1.
        -11    1    3    3    0    0 -0.31423285290E+00 -0.80471311562E+01 -0.50255295299E+01  0.94926818891E+01  0.51100000000E-03 0.  1.
        -12    1    3    3    0    0 -0.10986519875E+02 -0.14680565467E+02 -0.18443632225E+02  0.26007502591E+02  0.00000000000E+00 0.  1.
</event>
<event>
 7    1  0.3919732E-008  0.4614232E+02  0.7816164E-02  0.1320468E+00
        -11   -1    0    0    0    0  0.00000000000E+00  0.00000000000E+00  0.45593999997E+02  0.45594000000E+02  0.51100000000E-03 0.  1.
         11   -1    0    0    0    0 -0.00000000000E+00 -0.00000000000E+00 -0.45593999997E+02  0.45594000000E+02  0.51100000000E-03 0. -1.
    9900012    2    1    2    0    0  0.31062155562E+02 -0.18500892550E+02 -0.26869556123E+02  0.46142316749E+02  0.99999907699E+01 0.  0.
        -12    1    1    2    0    0 -0.31062155562E+02  0.18500892550E+02  0.26869556123E+02  0.45045683251E+02  0.00000000000E+00 0.  1.
         11    1    3    3    0    0  0.15916483241E+02 -0.41778753034E+01 -0.13830326664E+02  0.21495744153E+02  0.51100000000E-03 0. -1.
        -11    1    3    3    0    0  0.93209028526E+01 -0.80327987780E+01 -0.84045510241E+01  0.14901059170E+02  0.51100000000E-03 0.  1.
        -12    1    3    3    0    0  0.58247694681E+01 -0.62902184684E+01 -0.46346784354E+01  0.97455134259E+01  0.00000000000E+00 0.  1.
</event>
<event>
 7    1  0.3919732E-008  0.4614232E+02  0.7816164E-02  0.1320468E+00
        -11   -1    0    0    0    0  0.00000000000E+00  0.00000000000E+00  0.45593999997E+02  0.45594000000E+02  0.51100000000E-03 0. -1.
         11   -1    0    0    0    0 -0.00000000000E+00 -0.00000000000E+00 -0.45593999997E+02  0.45594000000E+02  0.51100000000E-03 0.  1.
    9900012    2    1    2    0    0  0.27997809613E+02  0.34127466582E+02  0.89750853458E+01  0.46142317905E+02  0.10000001316E+02 0.  0.
        -12    1    1    2    0    0 -0.27997809613E+02 -0.34127466582E+02 -0.89750853458E+01  0.45045682095E+02  0.00000000000E+00 0.  1.
         11    1    3    3    0    0  0.95874262403E+01  0.11509738142E+02  0.22128223804E+01  0.15142304883E+02  0.51100000000E-03 0. -1.
        -11    1    3    3    0    0  0.10697157291E+02  0.68607835202E+01  0.30031717396E+01  0.13058275743E+02  0.51100000000E-03 0.  1.
        -12    1    3    3    0    0  0.77132260821E+01  0.15756944920E+02  0.37590912257E+01  0.17941737280E+02  0.00000000000E+00 0.  1.
</event>
<event>
 7    1  0.3919732E-008  0.4614232E+02  0.7816164E-02  0.1320468E+00
        -11   -1    0    0    0    0  0.00000000000E+00  0.00000000000E+00  0.45593999997E+02  0.45594000000E+02  0.51100000000E-03 0.  1.
         11   -1    0    0    0    0 -0.00000000000E+00 -0.00000000000E+00 -0.45593999997E+02  0.45594000000E+02  0.51100000000E-03 0. -1.
    9900012    2    1    2    0    0 -0.62767132244E+01 -0.11379386326E+02 -0.43130338180E+02  0.46142316149E+02  0.99999852996E+01 0.  0.
        -12    1    1    2    0    0  0.62767132244E+01  0.11379386326E+02  0.43130338180E+02  0.45045683851E+02  0.00000000000E+00 0.  1.
         11    1    3    3    0    0  0.55888489892E+00 -0.89656616279E+00 -0.94864734454E+01  0.95451224144E+01  0.51100000000E-03 0. -1.
        -11    1    3    3    0    0 -0.15126869702E+01 -0.38722076315E+01 -0.20738687408E+02  0.21151249833E+02  0.51100000000E-03 0.  1.
         12    1    3    3    0    0 -0.53229111530E+01 -0.66106125316E+01 -0.12905177327E+02  0.15445943902E+02  0.00000000000E+00 0. -1.
</event>
<event>
 7    1  0.3919732E-008  0.4614232E+02  0.7816164E-02  0.1320468E+00
        -11   -1    0    0    0    0  0.00000000000E+00  0.00000000000E+00  0.45593999997E+02  0.45594000000E+02  0.51100000000E-03 0.  1.
         11   -1    0    0    0    0 -0.00000000000E+00 -0.00000000000E+00 -0.45593999997E+02  0.45594000000E+02  0.51100000000E-03 0. -1.
    9900012    2    1    2    0    0 -0.88883398322E+01 -0.26522346629E+02 -0.35308300189E+02  0.46142317433E+02  0.99999970038E+01 0.  0.
        -12    1    1    2    0    0  0.88883398322E+01  0.26522346629E+02  0.35308300189E+02  0.45045682567E+02  0.00000000000E+00 0.  1.
         11    1    3    3    0    0 -0.59631578694E+01 -0.98726827777E+01 -0.16150900819E+02  0.19846428256E+02  0.51100000000E-03 0. -1.
        -11    1    3    3    0    0 -0.28372881449E+01 -0.27012996758E+01 -0.56793352022E+01  0.68994255236E+01  0.51100000000E-03 0.  1.
        -12    1    3    3    0    0 -0.87893817933E-01 -0.13948364176E+02 -0.13478064168E+02  0.19396463652E+02  0.00000000000E+00 0.  1.
</event>
<event>
 7    1  0.3919732E-008  0.4614232E+02  0.7816164E-02  0.1320468E+00
        -11   -1    0    0    0    0  0.00000000000E+00  0.00000000000E+00  0.45593999997E+02  0.45594000000E+02  0.51100000000E-03 0.  1.
         11   -1    0    0    0    0 -0.00000000000E+00 -0.00000000000E+00 -0.45593999997E+02  0.45594000000E+02  0.51100000000E-03 0. -1.
    9900012    2    1    2    0    0 -0.26258660833E+02  0.30185070695E+02 -0.20699222025E+02  0.46142317032E+02  0.99999933523E+01 0.  0.
        -12    1    1    2    0    0  0.26258660833E+02 -0.30185070695E+02  0.20699222025E+02  0.45045682968E+02  0.00000000000E+00 0.  1.
         11    1    3    3    0    0 -0.15167732371E+02  0.21962654052E+02 -0.11871109985E+02  0.29212010044E+02  0.51100000000E-03 0. -1.
        -11    1    3    3    0    0 -0.99841307914E+01  0.79545157146E+01 -0.91968009345E+01  0.15733351061E+02  0.51100000000E-03 0.  1.
         12    1    3    3    0    0 -0.11067976701E+01  0.26790092822E+00  0.36868889420E+00  0.11969559268E+01  0.00000000000E+00 0. -1.
</event>
<event>
 7    1  0.3919732E-008  0.4614232E+02  0.7816164E-02  0.1320468E+00
        -11   -1    0    0    0    0  0.00000000000E+00  0.00000000000E+00  0.45593999997E+02  0.45594000000E+02  0.51100000000E-03 0.  1.
         11   -1    0    0    0    0 -0.00000000000E+00 -0.00000000000E+00 -0.45593999997E+02  0.45594000000E+02  0.51100000000E-03 0. -1.
    9900012    2    1    2    0    0  0.14032113245E+01  0.30079749181E+02 -0.33501540660E+02  0.46142317195E+02  0.99999948352E+01 0.  0.
        -12    1    1    2    0    0 -0.14032113245E+01 -0.30079749181E+02  0.33501540660E+02  0.45045682805E+02  0.00000000000E+00 0.  1.
         11    1    3    3    0    0  0.16077523854E+01  0.22911316775E+02 -0.27290831792E+02  0.35669353853E+02  0.51100000000E-03 0. -1.
        -11    1    3    3    0    0  0.55473495693E+00  0.71178707754E+01 -0.41083655648E+01  0.82371404701E+01  0.51100000000E-03 0.  1.
        -12    1    3    3    0    0 -0.75927601775E+00  0.50561629850E-01 -0.21023433033E+01  0.22358228719E+01  0.00000000000E+00 0.  1.
</event>
<event>
 7    1  0.3919732E-008  0.4614232E+02  0.7816164E-02  0.1320468E+00
        -11   -1    0    0    0    0  0.00000000000E+00  0.00000000000E+00  0.45593999997E+02  0.45594000000E+02  0.51100000000E-03 0. -1.
         11   -1    0    0    0    0 -0.00000000000E+00 -0.00000000000E+00 -0.45593999997E+02  0.45594000000E+02  0.51100000000E-03 0.  1.
    9900012    2    1    2    0    0 -0.38728285089E+02 -0.22988105795E+02  0.88337209921E+00  0.46142318517E+02  0.10000006897E+02 0.  0.
        -12    1    1    2    0    0  0.38728285089E+02  0.22988105795E+02 -0.88337209921E+00  0.45045681483E+02  0.00000000000E+00 0.  1.
         11    1    3    3    0    0 -0.27809962481E+02 -0.14692450798E+02 -0.24935232513E+01  0.31551224733E+02  0.51100000000E-03 0. -1.
        -11    1    3    3    0    0 -0.11046559270E+02 -0.75759338885E+01  0.28626851564E+01  0.13697306763E+02  0.51100000000E-03 0.  1.
        -12    1    3    3    0    0  0.12823666301E+00 -0.71972110930E+00  0.51421019412E+00  0.89378702197E+00  0.00000000000E+00 0.  1.
</event>
<event>
 7    1  0.3919732E-008  0.4614232E+02  0.7816164E-02  0.1320468E+00
        -11   -1    0    0    0    0  0.00000000000E+00  0.00000000000E+00  0.45593999997E+02  0.45594000000E+02  0.51100000000E-03 0. -1.
         11   -1    0    0    0    0 -0.00000000000E+00 -0.00000000000E+00 -0.45593999997E+02  0.45594000000E+02  0.51100000000E-03 0.  1.
    9900012    2    1    2    0    0 -0.31977939652E+02 -0.18378199879E+02  0.25860522782E+02  0.46142317702E+02  0.99999994606E+01 0.  0.
        -12    1    1    2    0    0  0.31977939652E+02  0.18378199879E+02 -0.25860522782E+02  0.45045682298E+02  0.00000000000E+00 0.  1.
         11    1    3    3    0    0 -0.17472290141E+02 -0.12020672502E+02  0.11699437794E+02  0.24220948270E+02  0.51100000000E-03 0. -1.
        -11    1    3    3    0    0 -0.22896259798E+01 -0.32395631229E+01  0.21688545799E+01  0.45211820141E+01  0.51100000000E-03 0.  1.
        -12    1    3    3    0    0 -0.12216023531E+02 -0.31179642535E+01  0.11992230408E+02  0.17400187417E+02  0.00000000000E+00 0.  1.
</event>
<event>
 7    1  0.3919732E-008  0.4614232E+02  0.7816164E-02  0.1320468E+00
        -11   -1    0    0    0    0  0.00000000000E+00  0.00000000000E+00  0.45593999997E+02  0.45594000000E+02  0.51100000000E-03 0.  1.
         11   -1    0    0    0    0 -0.00000000000E+00 -0.00000000000E+00 -0.45593999997E+02  0.45594000000E+02  0.51100000000E-03 0. -1.
    9900012    2    1    2    0    0 -0.15918763077E+01  0.39592926059E+02 -0.21423810963E+02  0.46142317185E+02  0.99999947466E+01 0.  0.
        -12    1    1    2    0    0  0.15918763077E+01 -0.39592926059E+02  0.21423810963E+02  0.45045682815E+02  0.00000000000E+00 0.  1.
         11    1    3    3    0    0 -0.39827910835E+01  0.28716309982E+02 -0.15739997820E+02  0.32988431539E+02  0.51100000000E-03 0. -1.
        -11    1    3    3    0    0 -0.22081566908E+00  0.25234760730E+01  0.30157996402E+00  0.25510079942E+01  0.51100000000E-03 0.  1.
         12    1    3    3    0    0  0.26117304449E+01  0.83531400039E+01 -0.59853931074E+01  0.10602877651E+02  0.00000000000E+00 0. -1.
</event>
<event>
 7    1  0.3919732E-008  0.4614232E+02  0.7816164E-02  0.1320468E+00
        -11   -1    0    0    0    0  0.00000000000E+00  0.00000000000E+00  0.45593999997E+02  0.45594000000E+02  0.51100000000E-03 0.  1.
         11   -1    0    0    0    0 -0.00000000000E+00 -0.00000000000E+00 -0.45593999997E+02  0.45594000000E+02  0.51100000000E-03 0. -1.
    9900012    2    1    2    0    0  0.81291315233E+01 -0.44120599013E+02  0.40501272315E+01  0.46142316886E+02  0.99999920243E+01 0.  0.
        -12    1    1    2    0    0 -0.81291315233E+01  0.44120599013E+02 -0.40501272315E+01  0.45045683114E+02  0.00000000000E+00 0.  1.
         11    1    3    3    0    0  0.35242421753E+00 -0.28068910172E+01 -0.11578974090E+01  0.30567248294E+01  0.51100000000E-03 0. -1.
        -11    1    3    3    0    0 -0.83908400113E+00 -0.12458237353E+02  0.32777561097E+01  0.12909509103E+02  0.51100000000E-03 0.  1.
         12    1    3    3    0    0  0.86157913069E+01 -0.28855470642E+02  0.19302685308E+01  0.30176082954E+02  0.00000000000E+00 0. -1.
</event>
<event>
 7    1  0.3919732E-008  0.4614232E+02  0.7816164E-02  0.1320468E+00
        -11   -1    0    0    0    0  0.00000000000E+00  0.00000000000E+00  0.45593999997E+02  0.45594000000E+02  0.51100000000E-03 0.  1.
         11   -1    0    0    0    0 -0.00000000000E+00 -0.00000000000E+00 -0.45593999997E+02  0.45594000000E+02  0.51100000000E-03 0. -1.
    9900012    2    1    2    0    0 -0.17491691005E+02  0.39233275461E+02 -0.13561132338E+02  0.46142317988E+02  0.10000002069E+02 0.  0.
        -12    1    1    2    0    0  0.17491691005E+02 -0.39233275461E+02  0.13561132338E+02  0.45045682012E+02  0.00000000000E+00 0.  1.
         11    1    3    3    0    0 -0.12568955355E+01  0.72079923071E+01 -0.41683168562E+01  0.84207959933E+01  0.51100000000E-03 0. -1.
        -11    1    3    3    0    0 -0.70185936076E+01  0.16850823936E+02 -0.79465805076E+01  0.19908768560E+02  0.51100000000E-03 0.  1.
         12    1    3    3    0    0 -0.92162018622E+01  0.15174459218E+02 -0.14462349744E+01  0.17812753435E+02  0.00000000000E+00 0. -1.
</event>
<event>
 7    1  0.3919732E-008  0.4614232E+02  0.7816164E-02  0.1320468E+00
        -11   -1    0    0    0    0  0.00000000000E+00  0.00000000000E+00  0.45593999997E+02  0.45594000000E+02  0.51100000000E-03 0. -1.
         11   -1    0    0    0    0 -0.00000000000E+00 -0.00000000000E+00 -0.45593999997E+02  0.45594000000E+02  0.51100000000E-03 0.  1.
    9900012    2    1    2    0    0 -0.27327878273E+00 -0.36180083847E+02  0.26833567787E+02  0.46142317536E+02  0.99999979464E+01 0.  0.
        -12    1    1    2    0    0  0.27327878273E+00  0.36180083847E+02 -0.26833567787E+02  0.45045682464E+02  0.00000000000E+00 0.  1.
         11    1    3    3    0    0 -0.41602596059E+01 -0.19072855648E+02  0.13617690198E+02  0.23801745086E+02  0.51100000000E-03 0.  1.
        -11    1    3    3    0    0  0.77356936964E+00 -0.95453292085E+01  0.89915314750E+01  0.13136185055E+02  0.51100000000E-03 0. -1.
        -12    1    3    3    0    0  0.31134114536E+01 -0.75618989911E+01  0.42243461139E+01  0.92043873952E+01  0.00000000000E+00 0.  1.
</event>
<event>
 7    1  0.3919732E-008  0.4614232E+02  0.7816164E-02  0.1320468E+00
        -11   -1    0    0    0    0  0.00000000000E+00  0.00000000000E+00  0.45593999997E+02  0.45594000000E+02  0.51100000000E-03 0.  1.
         11   -1    0    0    0    0 -0.00000000000E+00 -0.00000000000E+00 -0.45593999997E+02  0.45594000000E+02  0.51100000000E-03 0. -1.
    9900012    2    1    2    0    0 -0.38693380523E+02 -0.16575135202E+02  0.16037477376E+02  0.46142317811E+02  0.10000000458E+02 0.  0.
        -12    1    1    2    0    0  0.38693380523E+02  0.16575135202E+02 -0.16037477376E+02  0.45045682189E+02  0.00000000000E+00 0.  1.
         11    1    3    3    0    0 -0.64200219655E+01 -0.23583396668E+00  0.21126215143E+01  0.67628004274E+01  0.51100000000E-03 0. -1.
        -11    1    3    3    0    0 -0.31462280118E+02 -0.14313815169E+02  0.12419670148E+02  0.36728852171E+02  0.51100000000E-03 0.  1.
        -12    1    3    3    0    0 -0.81107843906E+00 -0.20254860662E+01  0.15051857145E+01  0.26506652134E+01  0.00000000000E+00 0.  1.
</event>
<event>
 7    1  0.3919732E-008  0.4614232E+02  0.7816164E-02  0.1320468E+00
        -11   -1    0    0    0    0  0.00000000000E+00  0.00000000000E+00  0.45593999997E+02  0.45594000000E+02  0.51100000000E-03 0.  1.
         11   -1    0    0    0    0 -0.00000000000E+00 -0.00000000000E+00 -0.45593999997E+02  0.45594000000E+02  0.51100000000E-03 0. -1.
    9900012    2    1    2    0    0 -0.14316584897E+02 -0.27376935236E+01 -0.42622223995E+02  0.46142317108E+02  0.99999940465E+01 0.  0.
        -12    1    1    2    0    0  0.14316584897E+02  0.27376935236E+01  0.42622223995E+02  0.45045682892E+02  0.00000000000E+00 0.  1.
         11    1    3    3    0    0 -0.84662692617E+01  0.67560472870E+00 -0.33154259192E+02  0.34224831041E+02  0.51100000000E-03 0. -1.
        -11    1    3    3    0    0 -0.16347724403E+01 -0.14050148738E+01 -0.50431896333E+01  0.54845519111E+01  0.51100000000E-03 0.  1.
        -12    1    3    3    0    0 -0.42155431949E+01 -0.20082833784E+01 -0.44247751693E+01  0.64329341560E+01  0.00000000000E+00 0.  1.
</event>
<event>
 7    1  0.3919732E-008  0.4614232E+02  0.7816164E-02  0.1320468E+00
        -11   -1    0    0    0    0  0.00000000000E+00  0.00000000000E+00  0.45593999997E+02  0.45594000000E+02  0.51100000000E-03 0.  1.
         11   -1    0    0    0    0 -0.00000000000E+00 -0.00000000000E+00 -0.45593999997E+02  0.45594000000E+02  0.51100000000E-03 0. -1.
    9900012    2    1    2    0    0 -0.32307079680E+02  0.31135459763E+02 -0.39936251519E+01  0.46142319919E+02  0.10000019677E+02 0.  0.
        -12    1    1    2    0    0  0.32307079680E+02 -0.31135459763E+02  0.39936251519E+01  0.45045680081E+02  0.00000000000E+00 0.  1.
         11    1    3    3    0    0 -0.85071734260E+01  0.67961531295E+01 -0.29952843899E+01  0.11292981267E+02  0.51100000000E-03 0. -1.
        -11    1    3    3    0    0 -0.46160892297E+01  0.13198638043E+01 -0.89594655842E+00  0.48839574871E+01  0.51100000000E-03 0.  1.
         12    1    3    3    0    0 -0.19183817024E+02  0.23019442829E+02 -0.10239420360E+00  0.29965381165E+02  0.00000000000E+00 0. -1.
</event>
<event>
 7    1  0.3919732E-008  0.4614232E+02  0.7816164E-02  0.1320468E+00
        -11   -1    0    0    0    0  0.00000000000E+00  0.00000000000E+00  0.45593999997E+02  0.45594000000E+02  0.51100000000E-03 0.  1.
         11   -1    0    0    0    0 -0.00000000000E+00 -0.00000000000E+00 -0.45593999997E+02  0.45594000000E+02  0.51100000000E-03 0. -1.
    9900012    2    1    2    0    0  0.29915629159E+02 -0.33116477747E+02  0.61210715520E+01  0.46142317818E+02  0.10000000518E+02 0.  0.
        -12    1    1    2    0    0 -0.29915629159E+02  0.33116477747E+02 -0.61210715520E+01  0.45045682182E+02  0.00000000000E+00 0.  1.
         11    1    3    3    0    0  0.71646161809E+01 -0.88145072745E+01  0.36438252130E+01  0.11929154453E+02  0.51100000000E-03 0. -1.
        -11    1    3    3    0    0  0.16782910437E+02 -0.21889894783E+02  0.96128577285E+00  0.27599957372E+02  0.51100000000E-03 0.  1.
         12    1    3    3    0    0  0.59681025408E+01 -0.24120756890E+01  0.15159605661E+01  0.66132059929E+01  0.00000000000E+00 0. -1.
</event>
<event>
 7    1  0.4145289E-008  0.4614232E+02  0.7816164E-02  0.1320468E+00
        -11   -1    0    0    0    0  0.00000000000E+00  0.00000000000E+00  0.45593999997E+02  0.45594000000E+02  0.51100000000E-03 0.  1.
         11   -1    0    0    0    0 -0.00000000000E+00 -0.00000000000E+00 -0.45593999997E+02  0.45594000000E+02  0.51100000000E-03 0. -1.
    9900012    2    1    2    0    0 -0.28129848805E+02 -0.78413501980E+01 -0.34297782879E+02  0.46142322325E+02  0.10000041620E+02 0.  0.
        -12    1    1    2    0    0  0.28129848805E+02  0.78413501980E+01  0.34297782879E+02  0.45045677675E+02  0.00000000000E+00 0.  1.
         11    1    3    3    0    0 -0.84589723305E+01 -0.37613885398E+01 -0.12117011659E+02  0.15248745143E+02  0.51100000000E-03 0. -1.
        -11    1    3    3    0    0 -0.45373476940E+01  0.92296809457E+00 -0.93432097775E+01  0.10427605833E+02  0.51100000000E-03 0.  1.
        -12    1    3    3    0    0 -0.15133528781E+02 -0.50029297528E+01 -0.12837561443E+02  0.20465971349E+02  0.00000000000E+00 0.  1.
</event>
<event>
 7    1  0.3919732E-008  0.4614232E+02  0.7816164E-02  0.1320468E+00
        -11   -1    0    0    0    0  0.00000000000E+00  0.00000000000E+00  0.45593999997E+02  0.45594000000E+02  0.51100000000E-03 0. -1.
         11   -1    0    0    0    0 -0.00000000000E+00 -0.00000000000E+00 -0.45593999997E+02  0.45594000000E+02  0.51100000000E-03 0.  1.
    9900012    2    1    2    0    0  0.96313327562E+00 -0.53159834266E+01  0.44720532598E+02  0.46142319393E+02  0.10000014884E+02 0.  0.
        -12    1    1    2    0    0 -0.96313327562E+00  0.53159834266E+01 -0.44720532598E+02  0.45045680607E+02  0.00000000000E+00 0.  1.
         11    1    3    3    0    0 -0.69275839205E+00 -0.20498018658E+01  0.15235922378E+02  0.15388792443E+02  0.51100000000E-03 0. -1.
        -11    1    3    3    0    0 -0.23368902254E+01 -0.28624143001E+01  0.70187787191E+01  0.79320694979E+01  0.51100000000E-03 0.  1.
         12    1    3    3    0    0  0.39927818931E+01 -0.40376726075E+00  0.22465831501E+02  0.22821457453E+02  0.00000000000E+00 0. -1.
</event>
<event>
 7    1  0.3919732E-008  0.4614232E+02  0.7816164E-02  0.1320468E+00
        -11   -1    0    0    0    0  0.00000000000E+00  0.00000000000E+00  0.45593999997E+02  0.45594000000E+02  0.51100000000E-03 0.  1.
         11   -1    0    0    0    0 -0.00000000000E+00 -0.00000000000E+00 -0.45593999997E+02  0.45594000000E+02  0.51100000000E-03 0. -1.
    9900012    2    1    2    0    0 -0.25537527622E+02  0.27833001007E+02 -0.24541235146E+02  0.46142317803E+02  0.10000000379E+02 0.  0.
        -12    1    1    2    0    0  0.25537527622E+02 -0.27833001007E+02  0.24541235146E+02  0.45045682197E+02  0.00000000000E+00 0.  1.
         11    1    3    3    0    0 -0.25685496543E+01  0.22490751927E+01 -0.39714755970E+01  0.52372134984E+01  0.51100000000E-03 0. -1.
        -11    1    3    3    0    0 -0.83939672329E+01  0.74932850579E+01 -0.11136970516E+02  0.15831617712E+02  0.51100000000E-03 0.  1.
         12    1    3    3    0    0 -0.14575010735E+02  0.18090640757E+02 -0.94327890332E+01  0.25073486592E+02  0.00000000000E+00 0. -1.
</event>
<event>
 7    1  0.3919732E-008  0.4614232E+02  0.7816164E-02  0.1320468E+00
        -11   -1    0    0    0    0  0.00000000000E+00  0.00000000000E+00  0.45593999997E+02  0.45594000000E+02  0.51100000000E-03 0.  1.
         11   -1    0    0    0    0 -0.00000000000E+00 -0.00000000000E+00 -0.45593999997E+02  0.45594000000E+02  0.51100000000E-03 0. -1.
    9900012    2    1    2    0    0  0.31480619954E+02 -0.29998018032E+02 -0.11755981803E+02  0.46142316226E+02  0.99999859985E+01 0.  0.
        -12    1    1    2    0    0 -0.31480619954E+02  0.29998018032E+02  0.11755981803E+02  0.45045683774E+02  0.00000000000E+00 0.  1.
         11    1    3    3    0    0  0.15870026959E+02 -0.12943089338E+02 -0.74620291740E+01  0.21795944507E+02  0.51100000000E-03 0. -1.
        -11    1    3    3    0    0  0.12761981957E+02 -0.15541729354E+02 -0.16535391810E+01  0.20177901944E+02  0.51100000000E-03 0.  1.
        -12    1    3    3    0    0  0.28486110378E+01 -0.15131993406E+01 -0.26404134476E+01  0.41684697748E+01  0.00000000000E+00 0.  1.
</event>
<event>
 7    1  0.4546972E-008  0.4614232E+02  0.7816164E-02  0.1320468E+00
        -11   -1    0    0    0    0  0.00000000000E+00  0.00000000000E+00  0.45593999997E+02  0.45594000000E+02  0.51100000000E-03 0.  1.
         11   -1    0    0    0    0 -0.00000000000E+00 -0.00000000000E+00 -0.45593999997E+02  0.45594000000E+02  0.51100000000E-03 0. -1.
    9900012    2    1    2    0    0 -0.29602861473E+02 -0.21710666371E+02 -0.26104234520E+02  0.46142317615E+02  0.99999986696E+01 0.  0.
        -12    1    1    2    0    0  0.29602861473E+02  0.21710666371E+02  0.26104234520E+02  0.45045682385E+02  0.00000000000E+00 0.  1.
         11    1    3    3    0    0 -0.11226903024E+02 -0.68188813382E+01 -0.98105505597E+01  0.16394736861E+02  0.51100000000E-03 0. -1.
        -11    1    3    3    0    0 -0.10039770661E+02 -0.12634320823E+02 -0.11948982281E+02  0.20079871398E+02  0.51100000000E-03 0.  1.
        -12    1    3    3    0    0 -0.83361877881E+01 -0.22574642106E+01 -0.43447016793E+01  0.96677093555E+01  0.00000000000E+00 0.  1.
</event>
<event>
 7    1  0.3919732E-008  0.4614232E+02  0.7816164E-02  0.1320468E+00
        -11   -1    0    0    0    0  0.00000000000E+00  0.00000000000E+00  0.45593999997E+02  0.45594000000E+02  0.51100000000E-03 0. -1.
         11   -1    0    0    0    0 -0.00000000000E+00 -0.00000000000E+00 -0.45593999997E+02  0.45594000000E+02  0.51100000000E-03 0.  1.
    9900012    2    1    2    0    0  0.44428266534E+02  0.30898227542E+01 -0.67598537513E+01  0.46142317692E+02  0.99999993692E+01 0.  0.
        -12    1    1    2    0    0 -0.44428266534E+02 -0.30898227542E+01  0.67598537513E+01  0.45045682308E+02  0.00000000000E+00 0.  1.
         11    1    3    3    0    0  0.22402439479E+01 -0.11614900566E+01  0.47125444414E+00  0.25670670249E+01  0.51100000000E-03 0. -1.
        -11    1    3    3    0    0  0.11584577840E+02 -0.41335640058E+00 -0.47220541570E+01  0.12516832785E+02  0.51100000000E-03 0.  1.
         12    1    3    3    0    0  0.30603444746E+02  0.46646692114E+01 -0.25090540385E+01  0.31058417882E+02  0.00000000000E+00 0. -1.
</event>
<event>
 7    1  0.3919732E-008  0.4614232E+02  0.7816164E-02  0.1320468E+00
        -11   -1    0    0    0    0  0.00000000000E+00  0.00000000000E+00  0.45593999997E+02  0.45594000000E+02  0.51100000000E-03 0.  1.
         11   -1    0    0    0    0 -0.00000000000E+00 -0.00000000000E+00 -0.45593999997E+02  0.45594000000E+02  0.51100000000E-03 0. -1.
    9900012    2    1    2    0    0 -0.16299592943E+02 -0.35382656689E+02 -0.22616460359E+02  0.46142318702E+02  0.10000008576E+02 0.  0.
        -12    1    1    2    0    0  0.16299592943E+02  0.35382656689E+02  0.22616460359E+02  0.45045681298E+02  0.00000000000E+00 0.  1.
         11    1    3    3    0    0 -0.69282840721E+01 -0.11742695448E+02 -0.48710790622E+01  0.14478239812E+02  0.51100000000E-03 0. -1.
        -11    1    3    3    0    0 -0.52222862446E+00 -0.42795053176E+01 -0.64507331745E+00  0.43592440108E+01  0.51100000000E-03 0.  1.
        -12    1    3    3    0    0 -0.88490802465E+01 -0.19360455923E+02 -0.17100307979E+02  0.27304834879E+02  0.00000000000E+00 0.  1.
</event>
<event>
 7    1  0.3919732E-008  0.4614232E+02  0.7816164E-02  0.1320468E+00
        -11   -1    0    0    0    0  0.00000000000E+00  0.00000000000E+00  0.45593999997E+02  0.45594000000E+02  0.51100000000E-03 0. -1.
         11   -1    0    0    0    0 -0.00000000000E+00 -0.00000000000E+00 -0.45593999997E+02  0.45594000000E+02  0.51100000000E-03 0.  1.
    9900012    2    1    2    0    0  0.41191222823E+02 -0.28153453888E+01  0.18013060707E+02  0.46142319149E+02  0.10000012654E+02 0.  0.
        -12    1    1    2    0    0 -0.41191222823E+02  0.28153453888E+01 -0.18013060707E+02  0.45045680851E+02  0.00000000000E+00 0.  1.
         11    1    3    3    0    0  0.26984576570E+01 -0.15209917750E+01  0.16368456995E+01  0.35034773884E+01  0.51100000000E-03 0. -1.
        -11    1    3    3    0    0  0.13588479747E+00 -0.61927882772E+00  0.12500476660E+01  0.14016384602E+01  0.51100000000E-03 0.  1.
         12    1    3    3    0    0  0.38356880369E+02 -0.67507478607E+00  0.15126167342E+02  0.41237203300E+02  0.00000000000E+00 0. -1.
</event>
<event>
 7    1  0.3919732E-008  0.4614232E+02  0.7816164E-02  0.1320468E+00
        -11   -1    0    0    0    0  0.00000000000E+00  0.00000000000E+00  0.45593999997E+02  0.45594000000E+02  0.51100000000E-03 0. -1.
         11   -1    0    0    0    0 -0.00000000000E+00 -0.00000000000E+00 -0.45593999997E+02  0.45594000000E+02  0.51100000000E-03 0.  1.
    9900012    2    1    2    0    0  0.20864908133E+02  0.27881218686E+02  0.28572827785E+02  0.46142320579E+02  0.10000025700E+02 0.  0.
        -12    1    1    2    0    0 -0.20864908133E+02 -0.27881218686E+02 -0.28572827785E+02  0.45045679421E+02  0.00000000000E+00 0.  1.
         11    1    3    3    0    0  0.36133866618E+01  0.75973293566E+01  0.56423875580E+01  0.10129783519E+02  0.51100000000E-03 0. -1.
        -11    1    3    3    0    0  0.76399502854E+01  0.99774941585E+01  0.58292340378E+01  0.13852768668E+02  0.51100000000E-03 0.  1.
        -12    1    3    3    0    0  0.96115711858E+01  0.10306395171E+02  0.17101206189E+02  0.22159768393E+02  0.00000000000E+00 0.  1.
</event>
<event>
 7    1  0.3919732E-008  0.4614232E+02  0.7816164E-02  0.1320468E+00
        -11   -1    0    0    0    0  0.00000000000E+00  0.00000000000E+00  0.45593999997E+02  0.45594000000E+02  0.51100000000E-03 0.  1.
         11   -1    0    0    0    0 -0.00000000000E+00 -0.00000000000E+00 -0.45593999997E+02  0.45594000000E+02  0.51100000000E-03 0. -1.
    9900012    2    1    2    0    0  0.26108925305E+02 -0.13645526953E+02 -0.34076929609E+02  0.46142317432E+02  0.99999969973E+01 0.  0.
        -12    1    1    2    0    0 -0.26108925305E+02  0.13645526953E+02  0.34076929609E+02  0.45045682568E+02  0.00000000000E+00 0.  1.
         11    1    3    3    0    0  0.17390891088E+02 -0.55648433868E+01 -0.17882079217E+02  0.25557373341E+02  0.51100000000E-03 0. -1.
        -11    1    3    3    0    0  0.91930492930E+01 -0.75749551497E+01 -0.15798213505E+02  0.19785743631E+02  0.51100000000E-03 0.  1.
        -12    1    3    3    0    0 -0.47501507542E+00 -0.50572841661E+00 -0.39663688756E+00  0.79920045910E+00  0.00000000000E+00 0.  1.
</event>
<event>
 7    1  0.4246223E-008  0.4614232E+02  0.7816164E-02  0.1320468E+00
        -11   -1    0    0    0    0  0.00000000000E+00  0.00000000000E+00  0.45593999997E+02  0.45594000000E+02  0.51100000000E-03 0. -1.
         11   -1    0    0    0    0 -0.00000000000E+00 -0.00000000000E+00 -0.45593999997E+02  0.45594000000E+02  0.51100000000E-03 0.  1.
    9900012    2    1    2    0    0 -0.21834556375E+02 -0.15214067239E+02  0.36344157870E+02  0.46142317573E+02  0.99999982823E+01 0.  0.
        -12    1    1    2    0    0  0.21834556375E+02  0.15214067239E+02 -0.36344157870E+02  0.45045682427E+02  0.00000000000E+00 0.  1.
         11    1    3    3    0    0 -0.18544573118E+02 -0.12045330598E+02  0.26202225160E+02  0.34286262335E+02  0.51100000000E-03 0. -1.
        -11    1    3    3    0    0 -0.39988544475E+01 -0.22860554789E+01  0.94921928995E+01  0.10550763614E+02  0.51100000000E-03 0.  1.
        -12    1    3    3    0    0  0.70887119059E+00 -0.88268116233E+00  0.64973981087E+00  0.13052916230E+01  0.00000000000E+00 0.  1.
</event>
<event>
 7    1  0.3919732E-008  0.4614232E+02  0.7816164E-02  0.1320468E+00
        -11   -1    0    0    0    0  0.00000000000E+00  0.00000000000E+00  0.45593999997E+02  0.45594000000E+02  0.51100000000E-03 0.  1.
         11   -1    0    0    0    0 -0.00000000000E+00 -0.00000000000E+00 -0.45593999997E+02  0.45594000000E+02  0.51100000000E-03 0. -1.
    9900012    2    1    2    0    0  0.23059008976E+02  0.36015965207E+02 -0.14150822588E+02  0.46142318468E+02  0.10000006443E+02 0.  0.
        -12    1    1    2    0    0 -0.23059008976E+02 -0.36015965207E+02  0.14150822588E+02  0.45045681532E+02  0.00000000000E+00 0.  1.
         11    1    3    3    0    0  0.36590431065E+01  0.10735160215E+02 -0.67966786371E+01  0.13222220012E+02  0.51100000000E-03 0. -1.
        -11    1    3    3    0    0  0.63209104323E+01  0.57441193013E+01 -0.12680790796E+01  0.86346302790E+01  0.51100000000E-03 0.  1.
         12    1    3    3    0    0  0.13079055437E+02  0.19536685691E+02 -0.60860648715E+01  0.24285468177E+02  0.00000000000E+00 0. -1.
</event>
<event>
 7    1  0.3919732E-008  0.4614232E+02  0.7816164E-02  0.1320468E+00
        -11   -1    0    0    0    0  0.00000000000E+00  0.00000000000E+00  0.45593999997E+02  0.45594000000E+02  0.51100000000E-03 0.  1.
         11   -1    0    0    0    0 -0.00000000000E+00 -0.00000000000E+00 -0.45593999997E+02  0.45594000000E+02  0.51100000000E-03 0. -1.
    9900012    2    1    2    0    0  0.31013174571E+02  0.20466367437E+02 -0.25464173161E+02  0.46142319765E+02  0.10000018271E+02 0.  0.
        -12    1    1    2    0    0 -0.31013174571E+02 -0.20466367437E+02  0.25464173161E+02  0.45045680235E+02  0.00000000000E+00 0.  1.
         11    1    3    3    0    0  0.48085669654E+01  0.13971408454E-01 -0.14941703318E+01  0.50353804923E+01  0.51100000000E-03 0. -1.
        -11    1    3    3    0    0  0.74607007084E+01  0.43007507276E+01 -0.53166855618E+01  0.10120556186E+02  0.51100000000E-03 0.  1.
        -12    1    3    3    0    0  0.18743906898E+02  0.16151645301E+02 -0.18653317268E+02  0.30986383087E+02  0.00000000000E+00 0.  1.
</event>
<event>
 7    1  0.3919732E-008  0.4614232E+02  0.7816164E-02  0.1320468E+00
        -11   -1    0    0    0    0  0.00000000000E+00  0.00000000000E+00  0.45593999997E+02  0.45594000000E+02  0.51100000000E-03 0.  1.
         11   -1    0    0    0    0 -0.00000000000E+00 -0.00000000000E+00 -0.45593999997E+02  0.45594000000E+02  0.51100000000E-03 0. -1.
    9900012    2    1    2    0    0  0.31264915417E+02  0.17832132687E+02 -0.27085673709E+02  0.46142316384E+02  0.99999874384E+01 0.  0.
        -12    1    1    2    0    0 -0.31264915417E+02 -0.17832132687E+02  0.27085673709E+02  0.45045683616E+02  0.00000000000E+00 0.  1.
         11    1    3    3    0    0  0.10065654877E+02  0.60964720105E+01 -0.38298489423E+01  0.12375464527E+02  0.51100000000E-03 0. -1.
        -11    1    3    3    0    0  0.61147951431E+01  0.17227981247E+01 -0.53970641926E+01  0.83358895854E+01  0.51100000000E-03 0.  1.
         12    1    3    3    0    0  0.15084465397E+02  0.10012862552E+02 -0.17858760574E+02  0.25430962271E+02  0.00000000000E+00 0. -1.
</event>
<event>
 7    1  0.3919732E-008  0.4614232E+02  0.7816164E-02  0.1320468E+00
        -11   -1    0    0    0    0  0.00000000000E+00  0.00000000000E+00  0.45593999997E+02  0.45594000000E+02  0.51100000000E-03 0. -1.
         11   -1    0    0    0    0 -0.00000000000E+00 -0.00000000000E+00 -0.45593999997E+02  0.45594000000E+02  0.51100000000E-03 0.  1.
    9900012    2    1    2    0    0 -0.32338933418E+02  0.30055769355E+02 -0.89419078467E+01  0.46142316499E+02  0.99999884929E+01 0.  0.
        -12    1    1    2    0    0  0.32338933418E+02 -0.30055769355E+02  0.89419078467E+01  0.45045683501E+02  0.00000000000E+00 0.  1.
         11    1    3    3    0    0 -0.10471309709E+02  0.82621990586E+01 -0.31059353361E+01  0.13695221608E+02  0.51100000000E-03 0. -1.
        -11    1    3    3    0    0 -0.12056207746E+02  0.63751098411E+01 -0.27638967695E+01  0.13915218156E+02  0.51100000000E-03 0.  1.
        -12    1    3    3    0    0 -0.98114159625E+01  0.15418460455E+02 -0.30720757411E+01  0.18531876736E+02  0.00000000000E+00 0.  1.
</event>
<event>
 7    1  0.3919732E-008  0.4614232E+02  0.7816164E-02  0.1320468E+00
        -11   -1    0    0    0    0  0.00000000000E+00  0.00000000000E+00  0.45593999997E+02  0.45594000000E+02  0.51100000000E-03 0. -1.
         11   -1    0    0    0    0 -0.00000000000E+00 -0.00000000000E+00 -0.45593999997E+02  0.45594000000E+02  0.51100000000E-03 0.  1.
    9900012    2    1    2    0    0  0.19717893527E+02 -0.39637858680E+02  0.83161511143E+01  0.46142317241E+02  0.99999952562E+01 0.  0.
        -12    1    1    2    0    0 -0.19717893527E+02  0.39637858680E+02 -0.83161511143E+01  0.45045682759E+02  0.00000000000E+00 0.  1.
         11    1    3    3    0    0  0.12601992453E+02 -0.24939441815E+02  0.22359495485E+01  0.28031864770E+02  0.51100000000E-03 0. -1.
        -11    1    3    3    0    0 -0.15374170187E+00 -0.31296376391E+01 -0.52828248592E-01  0.31338569444E+01  0.51100000000E-03 0.  1.
        -12    1    3    3    0    0  0.72696427753E+01 -0.11568779226E+02  0.61330298144E+01  0.14976595527E+02  0.00000000000E+00 0.  1.
</event>
<event>
 7    1  0.3919732E-008  0.4614232E+02  0.7816164E-02  0.1320468E+00
        -11   -1    0    0    0    0  0.00000000000E+00  0.00000000000E+00  0.45593999997E+02  0.45594000000E+02  0.51100000000E-03 0. -1.
         11   -1    0    0    0    0 -0.00000000000E+00 -0.00000000000E+00 -0.45593999997E+02  0.45594000000E+02  0.51100000000E-03 0.  1.
    9900012    2    1    2    0    0 -0.16333290595E+02 -0.18792371569E+02  0.37539097998E+02  0.46142317750E+02  0.99999999025E+01 0.  0.
        -12    1    1    2    0    0  0.16333290595E+02  0.18792371569E+02 -0.37539097998E+02  0.45045682250E+02  0.00000000000E+00 0.  1.
         11    1    3    3    0    0 -0.11406428395E+02 -0.63554641018E+01  0.20677366182E+02  0.24455101823E+02  0.51100000000E-03 0. -1.
        -11    1    3    3    0    0 -0.80047192215E+00 -0.39019147320E+00  0.13653824537E+01  0.16301147781E+01  0.51100000000E-03 0.  1.
        -12    1    3    3    0    0 -0.41263902777E+01 -0.12046715994E+02  0.15496349362E+02  0.20057101150E+02  0.00000000000E+00 0.  1.
</event>
<event>
 7    1  0.3919732E-008  0.4614232E+02  0.7816164E-02  0.1320468E+00
        -11   -1    0    0    0    0  0.00000000000E+00  0.00000000000E+00  0.45593999997E+02  0.45594000000E+02  0.51100000000E-03 0. -1.
         11   -1    0    0    0    0 -0.00000000000E+00 -0.00000000000E+00 -0.45593999997E+02  0.45594000000E+02  0.51100000000E-03 0.  1.
    9900012    2    1    2    0    0  0.29543061745E+01 -0.42212921173E+02 -0.15441982854E+02  0.46142317928E+02  0.10000001518E+02 0.  0.
        -12    1    1    2    0    0 -0.29543061745E+01  0.42212921173E+02  0.15441982854E+02  0.45045682072E+02  0.00000000000E+00 0.  1.
         11    1    3    3    0    0 -0.79937251109E+00 -0.19014237137E+02 -0.80123084102E+01  0.20648905459E+02  0.51100000000E-03 0. -1.
        -11    1    3    3    0    0  0.34810324324E+00 -0.51147667174E+01  0.10481081755E+01  0.52326423010E+01  0.51100000000E-03 0.  1.
         12    1    3    3    0    0  0.34055754423E+01 -0.18083917318E+02 -0.84777826188E+01  0.20260770168E+02  0.00000000000E+00 0. -1.
</event>
<event>
 7    1  0.3919732E-008  0.4614232E+02  0.7816164E-02  0.1320468E+00
        -11   -1    0    0    0    0  0.00000000000E+00  0.00000000000E+00  0.45593999997E+02  0.45594000000E+02  0.51100000000E-03 0.  1.
         11   -1    0    0    0    0 -0.00000000000E+00 -0.00000000000E+00 -0.45593999997E+02  0.45594000000E+02  0.51100000000E-03 0. -1.
    9900012    2    1    2    0    0  0.13984011250E+01 -0.32627799726E+02 -0.31025547969E+02  0.46142317994E+02  0.10000002121E+02 0.  0.
        -12    1    1    2    0    0 -0.13984011250E+01  0.32627799726E+02  0.31025547969E+02  0.45045682006E+02  0.00000000000E+00 0.  1.
         11    1    3    3    0    0 -0.11649049385E+01 -0.11432030859E+02 -0.14916167092E+02  0.18829242525E+02  0.51100000000E-03 0. -1.
        -11    1    3    3    0    0 -0.80373468979E+00 -0.32304678707E+00 -0.10197704151E+01  0.13380136915E+01  0.51100000000E-03 0.  1.
         12    1    3    3    0    0  0.33670407532E+01 -0.20872722080E+02 -0.15089610461E+02  0.25975061777E+02  0.00000000000E+00 0. -1.
</event>
<event>
 7    1  0.3919732E-008  0.4614232E+02  0.7816164E-02  0.1320468E+00
        -11   -1    0    0    0    0  0.00000000000E+00  0.00000000000E+00  0.45593999997E+02  0.45594000000E+02  0.51100000000E-03 0. -1.
         11   -1    0    0    0    0 -0.00000000000E+00 -0.00000000000E+00 -0.45593999997E+02  0.45594000000E+02  0.51100000000E-03 0.  1.
    9900012    2    1    2    0    0  0.39468767521E+02 -0.21382080358E+02 -0.37598455340E+01  0.46142318648E+02  0.10000008088E+02 0.  0.
        -12    1    1    2    0    0 -0.39468767521E+02  0.21382080358E+02  0.37598455340E+01  0.45045681352E+02  0.00000000000E+00 0.  1.
         11    1    3    3    0    0 -0.11682677871E+00 -0.20528014482E+00 -0.32194916418E+00  0.39929933574E+00  0.51100000000E-03 0. -1.
        -11    1    3    3    0    0  0.81478327866E+01 -0.11325187765E+01 -0.18125306269E+01  0.84234817879E+01  0.51100000000E-03 0.  1.
         12    1    3    3    0    0  0.31437761513E+02 -0.20044281437E+02 -0.16253657429E+01  0.37319537524E+02  0.00000000000E+00 0. -1.
</event>
<event>
 7    1  0.3919732E-008  0.4614232E+02  0.7816164E-02  0.1320468E+00
        -11   -1    0    0    0    0  0.00000000000E+00  0.00000000000E+00  0.45593999997E+02  0.45594000000E+02  0.51100000000E-03 0.  1.
         11   -1    0    0    0    0 -0.00000000000E+00 -0.00000000000E+00 -0.45593999997E+02  0.45594000000E+02  0.51100000000E-03 0. -1.
    9900012    2    1    2    0    0 -0.16891275267E+02 -0.25305264434E+02 -0.33218095485E+02  0.46142318121E+02  0.10000003285E+02 0.  0.
        -12    1    1    2    0    0  0.16891275267E+02  0.25305264434E+02  0.33218095485E+02  0.45045681879E+02  0.00000000000E+00 0.  1.
         11    1    3    3    0    0 -0.70662560809E+01 -0.13638037410E+02 -0.20695510640E+02  0.25772702620E+02  0.51100000000E-03 0.  1.
        -11    1    3    3    0    0 -0.12596766402E+01 -0.91667254747E+00 -0.37565018572E+01  0.40667407419E+01  0.51100000000E-03 0. -1.
        -12    1    3    3    0    0 -0.85653425462E+01 -0.10750554476E+02 -0.87660829877E+01  0.16302874759E+02  0.00000000000E+00 0.  1.
</event>
<event>
 7    1  0.3919732E-008  0.4614232E+02  0.7816164E-02  0.1320468E+00
        -11   -1    0    0    0    0  0.00000000000E+00  0.00000000000E+00  0.45593999997E+02  0.45594000000E+02  0.51100000000E-03 0.  1.
         11   -1    0    0    0    0 -0.00000000000E+00 -0.00000000000E+00 -0.45593999997E+02  0.45594000000E+02  0.51100000000E-03 0. -1.
    9900012    2    1    2    0    0 -0.42575161400E+02 -0.13157019272E+02 -0.65849788670E+01  0.46142317954E+02  0.10000001755E+02 0.  0.
        -12    1    1    2    0    0  0.42575161400E+02  0.13157019272E+02  0.65849788670E+01  0.45045682046E+02  0.00000000000E+00 0.  1.
         11    1    3    3    0    0 -0.19618692765E+02 -0.46578280741E+01 -0.53100519425E+01  0.20851501626E+02  0.51100000000E-03 0. -1.
        -11    1    3    3    0    0 -0.62697305807E+01  0.36437708348E+00  0.57066533905E+00  0.63061835847E+01  0.51100000000E-03 0.  1.
        -12    1    3    3    0    0 -0.16686738054E+02 -0.88635682816E+01 -0.18455922636E+01  0.18984632743E+02  0.00000000000E+00 0.  1.
</event>
<event>
 7    1  0.3919732E-008  0.4614232E+02  0.7816164E-02  0.1320468E+00
        -11   -1    0    0    0    0  0.00000000000E+00  0.00000000000E+00  0.45593999997E+02  0.45594000000E+02  0.51100000000E-03 0.  1.
         11   -1    0    0    0    0 -0.00000000000E+00 -0.00000000000E+00 -0.45593999997E+02  0.45594000000E+02  0.51100000000E-03 0. -1.
    9900012    2    1    2    0    0 -0.12329924530E+02 -0.24934672013E+02 -0.35430898731E+02  0.46142317718E+02  0.99999996103E+01 0.  0.
        -12    1    1    2    0    0  0.12329924530E+02  0.24934672013E+02  0.35430898731E+02  0.45045682282E+02  0.00000000000E+00 0.  1.
         11    1    3    3    0    0  0.24860517981E+00 -0.39410892883E+01 -0.24616777755E+01  0.46533694293E+01  0.51100000000E-03 0.  1.
        -11    1    3    3    0    0 -0.10748208980E+02 -0.20551739537E+02 -0.29333089827E+02  0.37394226204E+02  0.51100000000E-03 0. -1.
         12    1    3    3    0    0 -0.18303207302E+01 -0.44184318794E+00 -0.36361311279E+01  0.40947220855E+01  0.00000000000E+00 0. -1.
</event>
<event>
 7    1  0.4517727E-008  0.4614232E+02  0.7816164E-02  0.1320468E+00
        -11   -1    0    0    0    0  0.00000000000E+00  0.00000000000E+00  0.45593999997E+02  0.45594000000E+02  0.51100000000E-03 0. -1.
         11   -1    0    0    0    0 -0.00000000000E+00 -0.00000000000E+00 -0.45593999997E+02  0.45594000000E+02  0.51100000000E-03 0.  1.
    9900012    2    1    2    0    0  0.32063768150E+02 -0.31035976739E+02 -0.61478738955E+01  0.46142318370E+02  0.10000005550E+02 0.  0.
        -12    1    1    2    0    0 -0.32063768150E+02  0.31035976739E+02  0.61478738955E+01  0.45045681630E+02  0.00000000000E+00 0.  1.
         11    1    3    3    0    0  0.17177118883E+02 -0.15351122663E+02 -0.39080356070E+01  0.23366281747E+02  0.51100000000E-03 0. -1.
        -11    1    3    3    0    0  0.15342070402E+02 -0.14000307371E+02 -0.27664016884E+01  0.20953298290E+02  0.51100000000E-03 0.  1.
        -12    1    3    3    0    0 -0.45542113496E+00 -0.16845467053E+01  0.52656339985E+00  0.18227383319E+01  0.00000000000E+00 0.  1.
</event>
<event>
 7    1  0.3919732E-008  0.4614232E+02  0.7816164E-02  0.1320468E+00
        -11   -1    0    0    0    0  0.00000000000E+00  0.00000000000E+00  0.45593999997E+02  0.45594000000E+02  0.51100000000E-03 0.  1.
         11   -1    0    0    0    0 -0.00000000000E+00 -0.00000000000E+00 -0.45593999997E+02  0.45594000000E+02  0.51100000000E-03 0. -1.
    9900012    2    1    2    0    0  0.33226057473E+02 -0.16158809637E+02 -0.25768886613E+02  0.46142317173E+02  0.99999946397E+01 0.  0.
        -12    1    1    2    0    0 -0.33226057473E+02  0.16158809637E+02  0.25768886613E+02  0.45045682827E+02  0.00000000000E+00 0.  1.
         11    1    3    3    0    0  0.97564368836E+00 -0.18978868489E+01 -0.39005136395E+00  0.21693306399E+01  0.51100000000E-03 0. -1.
        -11    1    3    3    0    0  0.98973952666E+01 -0.52657150980E+01 -0.44646688866E+01  0.12067288721E+02  0.51100000000E-03 0.  1.
         12    1    3    3    0    0  0.22353018518E+02 -0.89952076898E+01 -0.20914166362E+02  0.31905697812E+02  0.00000000000E+00 0. -1.
</event>
<event>
 7    1  0.3919732E-008  0.4614232E+02  0.7816164E-02  0.1320468E+00
        -11   -1    0    0    0    0  0.00000000000E+00  0.00000000000E+00  0.45593999997E+02  0.45594000000E+02  0.51100000000E-03 0.  1.
         11   -1    0    0    0    0 -0.00000000000E+00 -0.00000000000E+00 -0.45593999997E+02  0.45594000000E+02  0.51100000000E-03 0. -1.
    9900012    2    1    2    0    0  0.38476140363E+02  0.12131307478E+02 -0.20038250813E+02  0.46142317698E+02  0.99999994273E+01 0.  0.
        -12    1    1    2    0    0 -0.38476140363E+02 -0.12131307478E+02  0.20038250813E+02  0.45045682302E+02  0.00000000000E+00 0.  1.
         11    1    3    3    0    0  0.98232250344E+01  0.40012486941E+01 -0.65206164047E+01  0.12450870642E+02  0.51100000000E-03 0. -1.
        -11    1    3    3    0    0  0.79886127499E+00  0.17760253973E+01 -0.22614254595E+01  0.29843744602E+01  0.51100000000E-03 0.  1.
         12    1    3    3    0    0  0.27854054054E+02  0.63540333864E+01 -0.11256208948E+02  0.30707072596E+02  0.00000000000E+00 0. -1.
</event>
<event>
 7    1  0.3919732E-008  0.4614232E+02  0.7816164E-02  0.1320468E+00
        -11   -1    0    0    0    0  0.00000000000E+00  0.00000000000E+00  0.45593999997E+02  0.45594000000E+02  0.51100000000E-03 0. -1.
         11   -1    0    0    0    0 -0.00000000000E+00 -0.00000000000E+00 -0.45593999997E+02  0.45594000000E+02  0.51100000000E-03 0.  1.
    9900012    2    1    2    0    0  0.26653707517E+02 -0.33858891084E+02  0.13125130888E+02  0.46142315516E+02  0.99999795238E+01 0.  0.
        -12    1    1    2    0    0 -0.26653707517E+02  0.33858891084E+02 -0.13125130888E+02  0.45045684484E+02  0.00000000000E+00 0.  1.
         11    1    3    3    0    0  0.58825184088E+01 -0.52041392913E+01  0.34333126836E+01  0.85717398956E+01  0.51100000000E-03 0. -1.
        -11    1    3    3    0    0 -0.57724826592E+00 -0.38574762012E+00 -0.31129206607E+00  0.76086779302E+00  0.51100000000E-03 0.  1.
         12    1    3    3    0    0  0.21348437374E+02 -0.28269004172E+02  0.10003110270E+02  0.36809707827E+02  0.00000000000E+00 0. -1.
</event>
<event>
 7    1  0.3919732E-008  0.4614232E+02  0.7816164E-02  0.1320468E+00
        -11   -1    0    0    0    0  0.00000000000E+00  0.00000000000E+00  0.45593999997E+02  0.45594000000E+02  0.51100000000E-03 0.  1.
         11   -1    0    0    0    0 -0.00000000000E+00 -0.00000000000E+00 -0.45593999997E+02  0.45594000000E+02  0.51100000000E-03 0. -1.
    9900012    2    1    2    0    0  0.27820923936E+01 -0.44958572040E+02  0.31677245222E+00  0.46142316713E+02  0.99999904448E+01 0.  0.
        -12    1    1    2    0    0 -0.27820923936E+01  0.44958572040E+02 -0.31677245222E+00  0.45045683287E+02  0.00000000000E+00 0.  1.
         11    1    3    3    0    0  0.37020348630E+01 -0.12374929866E+02  0.17037693585E+01  0.13028690709E+02  0.51100000000E-03 0. -1.
        -11    1    3    3    0    0 -0.26377232474E+01 -0.91870539394E+01 -0.13568372905E+01  0.96540432829E+01  0.51100000000E-03 0.  1.
         12    1    3    3    0    0  0.17177807780E+01 -0.23396588235E+02 -0.30159615862E-01  0.23459582721E+02  0.00000000000E+00 0. -1.
</event>
<event>
 7    1  0.3919732E-008  0.4614232E+02  0.7816164E-02  0.1320468E+00
        -11   -1    0    0    0    0  0.00000000000E+00  0.00000000000E+00  0.45593999997E+02  0.45594000000E+02  0.51100000000E-03 0. -1.
         11   -1    0    0    0    0 -0.00000000000E+00 -0.00000000000E+00 -0.45593999997E+02  0.45594000000E+02  0.51100000000E-03 0.  1.
    9900012    2    1    2    0    0  0.16589001440E+01 -0.42046558584E+02 -0.16076332263E+02  0.46142317660E+02  0.99999990781E+01 0.  0.
        -12    1    1    2    0    0 -0.16589001440E+01  0.42046558584E+02  0.16076332263E+02  0.45045682340E+02  0.00000000000E+00 0.  1.
         11    1    3    3    0    0 -0.10889476125E+01 -0.13881565099E+02 -0.81854782952E+01  0.16151956899E+02  0.51100000000E-03 0. -1.
        -11    1    3    3    0    0 -0.12718390543E+01 -0.16579308043E+01 -0.20101855590E+00  0.20992183910E+01  0.51100000000E-03 0.  1.
         12    1    3    3    0    0  0.40196868108E+01 -0.26507062681E+02 -0.76898354116E+01  0.27891142370E+02  0.00000000000E+00 0. -1.
</event>
<event>
 7    1  0.3919732E-008  0.4614232E+02  0.7816164E-02  0.1320468E+00
        -11   -1    0    0    0    0  0.00000000000E+00  0.00000000000E+00  0.45593999997E+02  0.45594000000E+02  0.51100000000E-03 0.  1.
         11   -1    0    0    0    0 -0.00000000000E+00 -0.00000000000E+00 -0.45593999997E+02  0.45594000000E+02  0.51100000000E-03 0. -1.
    9900012    2    1    2    0    0 -0.18583809518E+02  0.25258265578E+02 -0.32338455426E+02  0.46142315906E+02  0.99999830802E+01 0.  0.
        -12    1    1    2    0    0  0.18583809518E+02 -0.25258265578E+02  0.32338455426E+02  0.45045684094E+02  0.00000000000E+00 0.  1.
         11    1    3    3    0    0 -0.47282524853E+01  0.60297924592E+01 -0.63411267972E+01  0.99460875717E+01  0.51100000000E-03 0. -1.
        -11    1    3    3    0    0 -0.80811337203E+01  0.16155694946E+02 -0.15374385241E+02  0.23720938497E+02  0.51100000000E-03 0.  1.
        -12    1    3    3    0    0 -0.57744233124E+01  0.30727781726E+01 -0.10622943388E+02  0.12475289837E+02  0.00000000000E+00 0.  1.
</event>
<event>
 7    1  0.3919732E-008  0.4614232E+02  0.7816164E-02  0.1320468E+00
        -11   -1    0    0    0    0  0.00000000000E+00  0.00000000000E+00  0.45593999997E+02  0.45594000000E+02  0.51100000000E-03 0. -1.
         11   -1    0    0    0    0 -0.00000000000E+00 -0.00000000000E+00 -0.45593999997E+02  0.45594000000E+02  0.51100000000E-03 0.  1.
    9900012    2    1    2    0    0  0.93749040710E+01  0.20344157771E+01  0.44012333334E+02  0.46142321412E+02  0.10000033296E+02 0.  0.
        -12    1    1    2    0    0 -0.93749040710E+01 -0.20344157771E+01 -0.44012333334E+02  0.45045678588E+02  0.00000000000E+00 0.  1.
         11    1    3    3    0    0  0.48576367156E+01 -0.82658918524E+00  0.18791131067E+02  0.19426437944E+02  0.51100000000E-03 0. -1.
        -11    1    3    3    0    0 -0.15405969986E+01  0.19418517228E+00  0.17991531469E+01  0.23765730159E+01  0.51100000000E-03 0.  1.
         12    1    3    3    0    0  0.60578643540E+01  0.26668197900E+01  0.23422049120E+02  0.24339310453E+02  0.00000000000E+00 0. -1.
</event>
<event>
 7    1  0.3919732E-008  0.4614232E+02  0.7816164E-02  0.1320468E+00
        -11   -1    0    0    0    0  0.00000000000E+00  0.00000000000E+00  0.45593999997E+02  0.45594000000E+02  0.51100000000E-03 0.  1.
         11   -1    0    0    0    0 -0.00000000000E+00 -0.00000000000E+00 -0.45593999997E+02  0.45594000000E+02  0.51100000000E-03 0. -1.
    9900012    2    1    2    0    0  0.40778954514E+02 -0.11228343830E+02 -0.15495634558E+02  0.46142317335E+02  0.99999961141E+01 0.  0.
        -12    1    1    2    0    0 -0.40778954514E+02  0.11228343830E+02  0.15495634558E+02  0.45045682665E+02  0.00000000000E+00 0.  1.
         11    1    3    3    0    0  0.18339529106E+02 -0.34184697413E+01 -0.88009650254E+01  0.20627196825E+02  0.51100000000E-03 0. -1.
        -11    1    3    3    0    0  0.14265915093E+01 -0.26038756462E+01 -0.65861431389E+00  0.30412340901E+01  0.51100000000E-03 0.  1.
         12    1    3    3    0    0  0.21012833898E+02 -0.52059984426E+01 -0.60360552191E+01  0.22473886420E+02  0.00000000000E+00 0. -1.
</event>
<event>
 7    1  0.3919732E-008  0.4614232E+02  0.7816164E-02  0.1320468E+00
        -11   -1    0    0    0    0  0.00000000000E+00  0.00000000000E+00  0.45593999997E+02  0.45594000000E+02  0.51100000000E-03 0.  1.
         11   -1    0    0    0    0 -0.00000000000E+00 -0.00000000000E+00 -0.45593999997E+02  0.45594000000E+02  0.51100000000E-03 0. -1.
    9900012    2    1    2    0    0 -0.25071991446E+02  0.23674557647E+02 -0.28983158427E+02  0.46142324211E+02  0.10000058817E+02 0.  0.
        -12    1    1    2    0    0  0.25071991446E+02 -0.23674557647E+02  0.28983158427E+02  0.45045675789E+02  0.00000000000E+00 0.  1.
         11    1    3    3    0    0 -0.16705604826E+02  0.13432214929E+02 -0.14894779284E+02  0.26102798331E+02  0.51100000000E-03 0. -1.
        -11    1    3    3    0    0 -0.37673839265E+01  0.54667390875E+01 -0.33931432290E+01  0.74559935042E+01  0.51100000000E-03 0.  1.
        -12    1    3    3    0    0 -0.45990026935E+01  0.47756036304E+01 -0.10695235914E+02  0.12583532376E+02  0.00000000000E+00 0.  1.
</event>
<event>
 7    1  0.3919732E-008  0.4614232E+02  0.7816164E-02  0.1320468E+00
        -11   -1    0    0    0    0  0.00000000000E+00  0.00000000000E+00  0.45593999997E+02  0.45594000000E+02  0.51100000000E-03 0.  1.
         11   -1    0    0    0    0 -0.00000000000E+00 -0.00000000000E+00 -0.45593999997E+02  0.45594000000E+02  0.51100000000E-03 0. -1.
    9900012    2    1    2    0    0 -0.16369681111E+02  0.40864637292E+02 -0.95513680063E+01  0.46142315729E+02  0.99999814700E+01 0.  0.
        -12    1    1    2    0    0  0.16369681111E+02 -0.40864637292E+02  0.95513680063E+01  0.45045684271E+02  0.00000000000E+00 0.  1.
         11    1    3    3    0    0 -0.11910750621E+01  0.13356321948E+01 -0.20540666545E+01  0.27242913291E+01  0.51100000000E-03 0. -1.
        -11    1    3    3    0    0 -0.15360181869E+01  0.50535566911E+01  0.10108903600E+01  0.53777027327E+01  0.51100000000E-03 0.  1.
        -12    1    3    3    0    0 -0.13642587862E+02  0.34475448406E+02 -0.85081917117E+01  0.38040321667E+02  0.00000000000E+00 0.  1.
</event>
<event>
 7    1  0.3919732E-008  0.4614232E+02  0.7816164E-02  0.1320468E+00
        -11   -1    0    0    0    0  0.00000000000E+00  0.00000000000E+00  0.45593999997E+02  0.45594000000E+02  0.51100000000E-03 0. -1.
         11   -1    0    0    0    0 -0.00000000000E+00 -0.00000000000E+00 -0.45593999997E+02  0.45594000000E+02  0.51100000000E-03 0.  1.
    9900012    2    1    2    0    0 -0.35507260740E+02  0.12189194170E+02  0.24895209702E+02  0.46142317788E+02  0.10000000249E+02 0.  0.
        -12    1    1    2    0    0  0.35507260740E+02 -0.12189194170E+02 -0.24895209702E+02  0.45045682212E+02  0.00000000000E+00 0.  1.
         11    1    3    3    0    0 -0.10453792310E+02  0.57895889398E+01  0.52631818842E+01  0.13057649006E+02  0.51100000000E-03 0. -1.
        -11    1    3    3    0    0 -0.41414862277E+01  0.18813366387E+01  0.87525868983E+00  0.46322147788E+01  0.51100000000E-03 0.  1.
         12    1    3    3    0    0 -0.20911982203E+02  0.45182685913E+01  0.18756769128E+02  0.28452454004E+02  0.00000000000E+00 0. -1.
</event>
<event>
 7    1  0.3919732E-008  0.4614232E+02  0.7816164E-02  0.1320468E+00
        -11   -1    0    0    0    0  0.00000000000E+00  0.00000000000E+00  0.45593999997E+02  0.45594000000E+02  0.51100000000E-03 0. -1.
         11   -1    0    0    0    0 -0.00000000000E+00 -0.00000000000E+00 -0.45593999997E+02  0.45594000000E+02  0.51100000000E-03 0.  1.
    9900012    2    1    2    0    0  0.13637990637E+01 -0.31036089850E+02 -0.32619239188E+02  0.46142316674E+02  0.99999900897E+01 0.  0.
        -12    1    1    2    0    0 -0.13637990637E+01  0.31036089850E+02  0.32619239188E+02  0.45045683326E+02  0.00000000000E+00 0.  1.
         11    1    3    3    0    0  0.35502057176E+01 -0.99439959943E+01 -0.10481754306E+02  0.14877976696E+02  0.51100000000E-03 0. -1.
        -11    1    3    3    0    0 -0.11634472003E+01 -0.14744993321E+02 -0.19090424268E+02  0.24149797855E+02  0.51100000000E-03 0.  1.
        -12    1    3    3    0    0 -0.10229594535E+01 -0.63471005350E+01 -0.30470606136E+01  0.71145421236E+01  0.00000000000E+00 0.  1.
</event>
<event>
 7    1  0.3919732E-008  0.4614232E+02  0.7816164E-02  0.1320468E+00
        -11   -1    0    0    0    0  0.00000000000E+00  0.00000000000E+00  0.45593999997E+02  0.45594000000E+02  0.51100000000E-03 0.  1.
         11   -1    0    0    0    0 -0.00000000000E+00 -0.00000000000E+00 -0.45593999997E+02  0.45594000000E+02  0.51100000000E-03 0. -1.
    9900012    2    1    2    0    0 -0.21614853972E+02  0.35946211554E+02 -0.16425028356E+02  0.46142316591E+02  0.99999893298E+01 0.  0.
        -12    1    1    2    0    0  0.21614853972E+02 -0.35946211554E+02  0.16425028356E+02  0.45045683409E+02  0.00000000000E+00 0.  1.
         11    1    3    3    0    0 -0.54140383753E+01  0.63807214124E+01 -0.13437164781E+01  0.84753166022E+01  0.51100000000E-03 0. -1.
        -11    1    3    3    0    0 -0.14470262673E+02  0.19421986698E+02 -0.10259322146E+02  0.26303151147E+02  0.51100000000E-03 0.  1.
        -12    1    3    3    0    0 -0.17305529243E+01  0.10143503443E+02 -0.48219897320E+01  0.11363848842E+02  0.00000000000E+00 0.  1.
</event>
<event>
 7    1  0.3919732E-008  0.4614232E+02  0.7816164E-02  0.1320468E+00
        -11   -1    0    0    0    0  0.00000000000E+00  0.00000000000E+00  0.45593999997E+02  0.45594000000E+02  0.51100000000E-03 0.  1.
         11   -1    0    0    0    0 -0.00000000000E+00 -0.00000000000E+00 -0.45593999997E+02  0.45594000000E+02  0.51100000000E-03 0. -1.
    9900012    2    1    2    0    0 -0.13672327816E+02  0.62270531618E+00 -0.42916120289E+02  0.46142315518E+02  0.99999795460E+01 0.  0.
        -12    1    1    2    0    0  0.13672327816E+02 -0.62270531618E+00  0.42916120289E+02  0.45045684482E+02  0.00000000000E+00 0.  1.
         11    1    3    3    0    0 -0.47816902477E+01 -0.24484677645E+01 -0.10580758109E+02  0.11866423153E+02  0.51100000000E-03 0. -1.
        -11    1    3    3    0    0 -0.57388828405E+01 -0.83074441825E+00 -0.11951036697E+02  0.13283530816E+02  0.51100000000E-03 0.  1.
         12    1    3    3    0    0 -0.31517547278E+01  0.39019174989E+01 -0.20384325483E+02  0.20992361549E+02  0.00000000000E+00 0. -1.
</event>
<event>
 7    1  0.3919732E-008  0.4614232E+02  0.7816164E-02  0.1320468E+00
        -11   -1    0    0    0    0  0.00000000000E+00  0.00000000000E+00  0.45593999997E+02  0.45594000000E+02  0.51100000000E-03 0.  1.
         11   -1    0    0    0    0 -0.00000000000E+00 -0.00000000000E+00 -0.45593999997E+02  0.45594000000E+02  0.51100000000E-03 0. -1.
    9900012    2    1    2    0    0 -0.22882650772E+02 -0.38069202549E+02 -0.74989058090E+01  0.46142317883E+02  0.10000001108E+02 0.  0.
        -12    1    1    2    0    0  0.22882650772E+02  0.38069202549E+02  0.74989058090E+01  0.45045682117E+02  0.00000000000E+00 0.  1.
         11    1    3    3    0    0 -0.16469309846E+02 -0.25837248843E+02 -0.57120329950E+01  0.31167754424E+02  0.51100000000E-03 0. -1.
        -11    1    3    3    0    0  0.47740657960E+00 -0.38828301763E+01 -0.13564634699E+01  0.41405652545E+01  0.51100000000E-03 0.  1.
        -12    1    3    3    0    0 -0.68907475051E+01 -0.83491235297E+01 -0.43040934412E+00  0.10833998205E+02  0.00000000000E+00 0.  1.
</event>
<event>
 7    1  0.3919732E-008  0.4614232E+02  0.7816164E-02  0.1320468E+00
        -11   -1    0    0    0    0  0.00000000000E+00  0.00000000000E+00  0.45593999997E+02  0.45594000000E+02  0.51100000000E-03 0.  1.
         11   -1    0    0    0    0 -0.00000000000E+00 -0.00000000000E+00 -0.45593999997E+02  0.45594000000E+02  0.51100000000E-03 0. -1.
    9900012    2    1    2    0    0 -0.16454938509E+01 -0.31059409903E+02 -0.32584028390E+02  0.46142317636E+02  0.99999988597E+01 0.  0.
        -12    1    1    2    0    0  0.16454938509E+01  0.31059409903E+02  0.32584028390E+02  0.45045682364E+02  0.00000000000E+00 0.  1.
         11    1    3    3    0    0  0.46116277815E+00 -0.94243210698E+01 -0.88912933849E+01  0.12964782954E+02  0.51100000000E-03 0. -1.
        -11    1    3    3    0    0 -0.50699906376E+01 -0.10995196503E+02 -0.11079478672E+02  0.16412007772E+02  0.51100000000E-03 0.  1.
        -12    1    3    3    0    0  0.29633340085E+01 -0.10639892330E+02 -0.12613256333E+02  0.16765526910E+02  0.00000000000E+00 0.  1.
</event>
<event>
 7    1  0.3919732E-008  0.4614231E+02  0.7816164E-02  0.1320468E+00
        -11   -1    0    0    0    0  0.00000000000E+00  0.00000000000E+00  0.45593999997E+02  0.45594000000E+02  0.51100000000E-03 0.  1.
         11   -1    0    0    0    0 -0.00000000000E+00 -0.00000000000E+00 -0.45593999997E+02  0.45594000000E+02  0.51100000000E-03 0. -1.
    9900012    2    1    2    0    0  0.28611605082E+02  0.18358453788E+02 -0.29554317141E+02  0.46142307281E+02  0.99999044348E+01 0.  0.
        -12    1    1    2    0    0 -0.28611605082E+02 -0.18358453788E+02  0.29554317141E+02  0.45045692719E+02  0.00000000000E+00 0.  1.
         11    1    3    3    0    0  0.30276357499E+00 -0.19801529531E+00  0.53609013789E-01  0.36571850787E+00  0.51100000000E-03 0. -1.
        -11    1    3    3    0    0  0.36743469635E+01  0.36153783885E+01 -0.11524502879E+01  0.52820382834E+01  0.51100000000E-03 0.  1.
         12    1    3    3    0    0  0.24634494543E+02  0.14941090695E+02 -0.28455475867E+02  0.40494550490E+02  0.00000000000E+00 0. -1.
</event>
<event>
 7    1  0.3919732E-008  0.4614232E+02  0.7816164E-02  0.1320468E+00
        -11   -1    0    0    0    0  0.00000000000E+00  0.00000000000E+00  0.45593999997E+02  0.45594000000E+02  0.51100000000E-03 0.  1.
         11   -1    0    0    0    0 -0.00000000000E+00 -0.00000000000E+00 -0.45593999997E+02  0.45594000000E+02  0.51100000000E-03 0. -1.
    9900012    2    1    2    0    0 -0.26688646192E+02  0.33052938120E+02 -0.14977751467E+02  0.46142316600E+02  0.99999894130E+01 0.  0.
        -12    1    1    2    0    0  0.26688646192E+02 -0.33052938120E+02  0.14977751467E+02  0.45045683400E+02  0.00000000000E+00 0.  1.
         11    1    3    3    0    0 -0.70402547485E+01  0.85114824188E+01 -0.17050443560E+01  0.11176658553E+02  0.51100000000E-03 0. -1.
        -11    1    3    3    0    0 -0.10797602342E+02  0.79233996346E+01 -0.70554732485E+01  0.15137641201E+02  0.51100000000E-03 0.  1.
        -12    1    3    3    0    0 -0.88507891022E+01  0.16618056067E+02 -0.62172338622E+01  0.19828016847E+02  0.00000000000E+00 0.  1.
</event>
<event>
 7    1  0.3919732E-008  0.4614232E+02  0.7816164E-02  0.1320468E+00
        -11   -1    0    0    0    0  0.00000000000E+00  0.00000000000E+00  0.45593999997E+02  0.45594000000E+02  0.51100000000E-03 0.  1.
         11   -1    0    0    0    0 -0.00000000000E+00 -0.00000000000E+00 -0.45593999997E+02  0.45594000000E+02  0.51100000000E-03 0. -1.
    9900012    2    1    2    0    0 -0.72171282688E+01  0.28975051323E+01 -0.44369257472E+02  0.46142317798E+02  0.10000000339E+02 0.  0.
        -12    1    1    2    0    0  0.72171282688E+01 -0.28975051323E+01  0.44369257472E+02  0.45045682202E+02  0.00000000000E+00 0.  1.
         11    1    3    3    0    0 -0.56953211854E+01  0.31015788248E+01 -0.26731418090E+02  0.27506820754E+02  0.51100000000E-03 0. -1.
        -11    1    3    3    0    0 -0.31269877237E+01 -0.17041917852E+01 -0.13359520550E+02  0.13826030213E+02  0.51100000000E-03 0.  1.
        -12    1    3    3    0    0  0.16051806403E+01  0.15001180928E+01 -0.42783188316E+01  0.48094668317E+01  0.00000000000E+00 0.  1.
</event>
<event>
 7    1  0.3919732E-008  0.4614232E+02  0.7816164E-02  0.1320468E+00
        -11   -1    0    0    0    0  0.00000000000E+00  0.00000000000E+00  0.45593999997E+02  0.45594000000E+02  0.51100000000E-03 0.  1.
         11   -1    0    0    0    0 -0.00000000000E+00 -0.00000000000E+00 -0.45593999997E+02  0.45594000000E+02  0.51100000000E-03 0. -1.
    9900012    2    1    2    0    0  0.36325926918E+02 -0.13215786215E+02 -0.23127547849E+02  0.46142318284E+02  0.10000004771E+02 0.  0.
        -12    1    1    2    0    0 -0.36325926918E+02  0.13215786215E+02  0.23127547849E+02  0.45045681716E+02  0.00000000000E+00 0.  1.
         11    1    3    3    0    0  0.20801622390E+01 -0.97495905602E+00  0.20079169012E+00  0.23060654079E+01  0.51100000000E-03 0. -1.
        -11    1    3    3    0    0  0.40761703439E+01  0.91057244209E+00 -0.31517899425E+01  0.52324073759E+01  0.51100000000E-03 0.  1.
         12    1    3    3    0    0  0.30169594335E+02 -0.13151399601E+02 -0.20176549597E+02  0.38603845500E+02  0.00000000000E+00 0. -1.
</event>
<event>
 7    1  0.3919732E-008  0.4614232E+02  0.7816164E-02  0.1320468E+00
        -11   -1    0    0    0    0  0.00000000000E+00  0.00000000000E+00  0.45593999997E+02  0.45594000000E+02  0.51100000000E-03 0. -1.
         11   -1    0    0    0    0 -0.00000000000E+00 -0.00000000000E+00 -0.45593999997E+02  0.45594000000E+02  0.51100000000E-03 0.  1.
    9900012    2    1    2    0    0  0.24813360858E+02 -0.35020567686E+02  0.13673714557E+02  0.46142317544E+02  0.99999980222E+01 0.  0.
        -12    1    1    2    0    0 -0.24813360858E+02  0.35020567686E+02 -0.13673714557E+02  0.45045682456E+02  0.00000000000E+00 0.  1.
         11    1    3    3    0    0  0.13207041939E+02 -0.16745905285E+02  0.40951010998E+01  0.21716840329E+02  0.51100000000E-03 0.  1.
        -11    1    3    3    0    0  0.76849597969E+01 -0.82591585188E+01  0.25175062346E+01  0.11558985441E+02  0.51100000000E-03 0. -1.
        -12    1    3    3    0    0  0.39213591229E+01 -0.10015503882E+02  0.70611072227E+01  0.12866491775E+02  0.00000000000E+00 0.  1.
</event>
<event>
 7    1  0.3919732E-008  0.4614231E+02  0.7816164E-02  0.1320468E+00
        -11   -1    0    0    0    0  0.00000000000E+00  0.00000000000E+00  0.45593999997E+02  0.45594000000E+02  0.51100000000E-03 0. -1.
         11   -1    0    0    0    0 -0.00000000000E+00 -0.00000000000E+00 -0.45593999997E+02  0.45594000000E+02  0.51100000000E-03 0.  1.
    9900012    2    1    2    0    0 -0.10943023567E+02 -0.22611538175E+02  0.37390939792E+02  0.46142314281E+02  0.99999682615E+01 0.  0.
        -12    1    1    2    0    0  0.10943023567E+02  0.22611538175E+02 -0.37390939792E+02  0.45045685719E+02  0.00000000000E+00 0.  1.
         11    1    3    3    0    0 -0.79871701935E+00 -0.41324483494E+01  0.46210549793E+01  0.62505381864E+01  0.51100000000E-03 0. -1.
        -11    1    3    3    0    0 -0.12904458186E+01 -0.10717344822E+02  0.18181660444E+02  0.21144727646E+02  0.51100000000E-03 0.  1.
         12    1    3    3    0    0 -0.88538607286E+01 -0.77617450027E+01  0.14588224369E+02  0.18747048448E+02  0.00000000000E+00 0. -1.
</event>
<event>
 7    1  0.3919732E-008  0.4614232E+02  0.7816164E-02  0.1320468E+00
        -11   -1    0    0    0    0  0.00000000000E+00  0.00000000000E+00  0.45593999997E+02  0.45594000000E+02  0.51100000000E-03 0. -1.
         11   -1    0    0    0    0 -0.00000000000E+00 -0.00000000000E+00 -0.45593999997E+02  0.45594000000E+02  0.51100000000E-03 0.  1.
    9900012    2    1    2    0    0  0.27089271406E+02  0.24244695882E+02  0.26598488116E+02  0.46142317922E+02  0.10000001471E+02 0.  0.
        -12    1    1    2    0    0 -0.27089271406E+02 -0.24244695882E+02 -0.26598488116E+02  0.45045682078E+02  0.00000000000E+00 0.  1.
         11    1    3    3    0    0  0.12325941056E+02  0.13293660146E+02  0.11361730081E+02  0.21394838949E+02  0.51100000000E-03 0. -1.
        -11    1    3    3    0    0  0.12247883316E+02  0.73941268135E+01  0.82535977387E+01  0.16516828780E+02  0.51100000000E-03 0.  1.
        -12    1    3    3    0    0  0.25154470350E+01  0.35569089233E+01  0.69831602969E+01  0.82306501934E+01  0.00000000000E+00 0.  1.
</event>
<event>
 7    1  0.3919732E-008  0.4614230E+02  0.7816164E-02  0.1320468E+00
        -11   -1    0    0    0    0  0.00000000000E+00  0.00000000000E+00  0.45593999997E+02  0.45594000000E+02  0.51100000000E-03 0.  1.
         11   -1    0    0    0    0 -0.00000000000E+00 -0.00000000000E+00 -0.45593999997E+02  0.45594000000E+02  0.51100000000E-03 0. -1.
    9900012    2    1    2    0    0 -0.26023600524E+02 -0.36430313969E+02 -0.49718526877E+01  0.46142302322E+02  0.99998592128E+01 0.  0.
        -12    1    1    2    0    0  0.26023600524E+02  0.36430313969E+02  0.49718526877E+01  0.45045697678E+02  0.00000000000E+00 0.  1.
         11    1    3    3    0    0 -0.65635898793E+01 -0.88869960692E+01 -0.16300987341E+01  0.11167660157E+02  0.51100000000E-03 0. -1.
        -11    1    3    3    0    0 -0.68924589120E+01 -0.12823977581E+02 -0.53619254820E+01  0.15514852110E+02  0.51100000000E-03 0.  1.
         12    1    3    3    0    0 -0.12567551733E+02 -0.14719340319E+02  0.20201715284E+01  0.19459790055E+02  0.00000000000E+00 0. -1.
</event>
<event>
 7    1  0.3919732E-008  0.4614232E+02  0.7816164E-02  0.1320468E+00
        -11   -1    0    0    0    0  0.00000000000E+00  0.00000000000E+00  0.45593999997E+02  0.45594000000E+02  0.51100000000E-03 0. -1.
         11   -1    0    0    0    0 -0.00000000000E+00 -0.00000000000E+00 -0.45593999997E+02  0.45594000000E+02  0.51100000000E-03 0.  1.
    9900012    2    1    2    0    0 -0.34118524709E+02 -0.16627860824E+02  0.24260132836E+02  0.46142317309E+02  0.99999958743E+01 0.  0.
        -12    1    1    2    0    0  0.34118524709E+02  0.16627860824E+02 -0.24260132836E+02  0.45045682691E+02  0.00000000000E+00 0.  1.
         11    1    3    3    0    0 -0.23685517066E+02 -0.12012041846E+02  0.14580869090E+02  0.30296775599E+02  0.51100000000E-03 0. -1.
        -11    1    3    3    0    0 -0.28122710607E+01 -0.36507623580E+01  0.21353583596E+01  0.50790441914E+01  0.51100000000E-03 0.  1.
        -12    1    3    3    0    0 -0.76207365826E+01 -0.96505661982E+00  0.75439053862E+01  0.10766497519E+02  0.00000000000E+00 0.  1.
</event>
<event>
 7    1  0.3919732E-008  0.4614232E+02  0.7816164E-02  0.1320468E+00
        -11   -1    0    0    0    0  0.00000000000E+00  0.00000000000E+00  0.45593999997E+02  0.45594000000E+02  0.51100000000E-03 0. -1.
         11   -1    0    0    0    0 -0.00000000000E+00 -0.00000000000E+00 -0.45593999997E+02  0.45594000000E+02  0.51100000000E-03 0.  1.
    9900012    2    1    2    0    0 -0.12599355072E+02  0.93527741132E+01  0.42224346117E+02  0.46142317223E+02  0.99999950953E+01 0.  0.
        -12    1    1    2    0    0  0.12599355072E+02 -0.93527741132E+01 -0.42224346117E+02  0.45045682777E+02  0.00000000000E+00 0.  1.
         11    1    3    3    0    0 -0.56955629916E+01  0.26880667205E+01  0.89322098189E+01  0.10929296089E+02  0.51100000000E-03 0. -1.
        -11    1    3    3    0    0  0.96737334750E+00  0.26635891623E+00  0.12458745688E+01  0.15996755821E+01  0.51100000000E-03 0.  1.
         12    1    3    3    0    0 -0.78711654275E+01  0.63983484764E+01  0.32046261729E+02  0.33613345552E+02  0.00000000000E+00 0. -1.
</event>
<event>
 7    1  0.3919732E-008  0.4614232E+02  0.7816164E-02  0.1320468E+00
        -11   -1    0    0    0    0  0.00000000000E+00  0.00000000000E+00  0.45593999997E+02  0.45594000000E+02  0.51100000000E-03 0.  1.
         11   -1    0    0    0    0 -0.00000000000E+00 -0.00000000000E+00 -0.45593999997E+02  0.45594000000E+02  0.51100000000E-03 0. -1.
    9900012    2    1    2    0    0 -0.39097409841E+02  0.11602934976E+02 -0.19127938153E+02  0.46142316808E+02  0.99999913054E+01 0.  0.
        -12    1    1    2    0    0  0.39097409841E+02 -0.11602934976E+02  0.19127938153E+02  0.45045683192E+02  0.00000000000E+00 0.  1.
         11    1    3    3    0    0 -0.97211014049E+01  0.19085076527E+01 -0.46023262586E+01  0.10923535199E+02  0.51100000000E-03 0. -1.
        -11    1    3    3    0    0 -0.42154970314E+01  0.48030824558E+01 -0.20447341713E+01  0.67097655988E+01  0.51100000000E-03 0.  1.
        -12    1    3    3    0    0 -0.25160811404E+02  0.48913448670E+01 -0.12480877723E+02  0.28509016010E+02  0.00000000000E+00 0.  1.
</event>
<event>
 7    1  0.3919732E-008  0.4614232E+02  0.7816164E-02  0.1320468E+00
        -11   -1    0    0    0    0  0.00000000000E+00  0.00000000000E+00  0.45593999997E+02  0.45594000000E+02  0.51100000000E-03 0.  1.
         11   -1    0    0    0    0 -0.00000000000E+00 -0.00000000000E+00 -0.45593999997E+02  0.45594000000E+02  0.51100000000E-03 0. -1.
    9900012    2    1    2    0    0  0.15136513327E+02 -0.24369809385E+02 -0.34729117573E+02  0.46142320378E+02  0.10000023865E+02 0.  0.
        -12    1    1    2    0    0 -0.15136513327E+02  0.24369809385E+02  0.34729117573E+02  0.45045679622E+02  0.00000000000E+00 0.  1.
         11    1    3    3    0    0  0.19425566075E+01 -0.90509031244E+01 -0.12728918936E+02  0.15739051784E+02  0.51100000000E-03 0. -1.
        -11    1    3    3    0    0  0.65024318498E+01 -0.11402346220E+02 -0.15270202282E+02  0.20136389877E+02  0.51100000000E-03 0.  1.
        -12    1    3    3    0    0  0.66915248700E+01 -0.39165600405E+01 -0.67299963550E+01  0.10266878716E+02  0.00000000000E+00 0.  1.
</event>
<event>
 7    1  0.3919732E-008  0.4614232E+02  0.7816164E-02  0.1320468E+00
        -11   -1    0    0    0    0  0.00000000000E+00  0.00000000000E+00  0.45593999997E+02  0.45594000000E+02  0.51100000000E-03 0. -1.
         11   -1    0    0    0    0 -0.00000000000E+00 -0.00000000000E+00 -0.45593999997E+02  0.45594000000E+02  0.51100000000E-03 0.  1.
    9900012    2    1    2    0    0  0.93388501306E+01  0.87325575223E+01  0.43193075797E+02  0.46142317860E+02  0.10000000902E+02 0.  0.
        -12    1    1    2    0    0 -0.93388501306E+01 -0.87325575223E+01 -0.43193075797E+02  0.45045682140E+02  0.00000000000E+00 0.  1.
         11    1    3    3    0    0  0.17121464487E+01  0.30388557281E+01  0.10486560339E+02  0.11051426949E+02  0.51100000000E-03 0. -1.
        -11    1    3    3    0    0 -0.91486909226E+00  0.96199873789E+00  0.47056976258E+00  0.14084967839E+01  0.51100000000E-03 0.  1.
        -12    1    3    3    0    0  0.85415727742E+01  0.47317030563E+01  0.32235945695E+02  0.33682394127E+02  0.00000000000E+00 0.  1.
</event>
<event>
 7    1  0.3919732E-008  0.4614232E+02  0.7816164E-02  0.1320468E+00
        -11   -1    0    0    0    0  0.00000000000E+00  0.00000000000E+00  0.45593999997E+02  0.45594000000E+02  0.51100000000E-03 0. -1.
         11   -1    0    0    0    0 -0.00000000000E+00 -0.00000000000E+00 -0.45593999997E+02  0.45594000000E+02  0.51100000000E-03 0.  1.
    9900012    2    1    2    0    0  0.43036826954E+02 -0.12184904647E+02 -0.53360200684E+01  0.46142317791E+02  0.10000000275E+02 0.  0.
        -12    1    1    2    0    0 -0.43036826954E+02  0.12184904647E+02  0.53360200684E+01  0.45045682209E+02  0.00000000000E+00 0.  1.
         11    1    3    3    0    0  0.65762874860E+01 -0.20426690952E+01  0.17274471363E+01  0.70995864669E+01  0.51100000000E-03 0.  1.
        -11    1    3    3    0    0  0.90002235953E+01 -0.56089796749E+00  0.36540464273E+00  0.90250846040E+01  0.51100000000E-03 0. -1.
         12    1    3    3    0    0  0.27460315872E+02 -0.95813375841E+01 -0.74288718474E+01  0.30017646720E+02  0.00000000000E+00 0. -1.
</event>
<event>
 7    1  0.3919732E-008  0.4614232E+02  0.7816164E-02  0.1320468E+00
        -11   -1    0    0    0    0  0.00000000000E+00  0.00000000000E+00  0.45593999997E+02  0.45594000000E+02  0.51100000000E-03 0.  1.
         11   -1    0    0    0    0 -0.00000000000E+00 -0.00000000000E+00 -0.45593999997E+02  0.45594000000E+02  0.51100000000E-03 0. -1.
    9900012    2    1    2    0    0 -0.11221094576E+02  0.41737089956E+02 -0.12697078140E+02  0.46142318356E+02  0.10000005427E+02 0.  0.
        -12    1    1    2    0    0  0.11221094576E+02 -0.41737089956E+02  0.12697078140E+02  0.45045681644E+02  0.00000000000E+00 0.  1.
         11    1    3    3    0    0 -0.66199376797E-01  0.14548572958E+02 -0.32295846744E+01  0.14902871365E+02  0.51100000000E-03 0.  1.
        -11    1    3    3    0    0 -0.27009721086E+00  0.21282474093E+01 -0.19571570924E+01  0.29039376171E+01  0.51100000000E-03 0. -1.
         12    1    3    3    0    0 -0.10884797988E+02  0.25060269588E+02 -0.75103363737E+01  0.28335509375E+02  0.00000000000E+00 0. -1.
</event>
<event>
 7    1  0.3919732E-008  0.4614232E+02  0.7816164E-02  0.1320468E+00
        -11   -1    0    0    0    0  0.00000000000E+00  0.00000000000E+00  0.45593999997E+02  0.45594000000E+02  0.51100000000E-03 0. -1.
         11   -1    0    0    0    0 -0.00000000000E+00 -0.00000000000E+00 -0.45593999997E+02  0.45594000000E+02  0.51100000000E-03 0.  1.
    9900012    2    1    2    0    0 -0.38495538094E+02 -0.36778974856E+01  0.23101515521E+02  0.46142318715E+02  0.10000008700E+02 0.  0.
        -12    1    1    2    0    0  0.38495538094E+02  0.36778974856E+01 -0.23101515521E+02  0.45045681285E+02  0.00000000000E+00 0.  1.
         11    1    3    3    0    0 -0.98001954885E+01 -0.27165247576E+01  0.73847582037E+01  0.12568134005E+02  0.51100000000E-03 0. -1.
        -11    1    3    3    0    0 -0.27492401352E+02 -0.23042182511E+01  0.15755905482E+02  0.31770900391E+02  0.51100000000E-03 0.  1.
        -12    1    3    3    0    0 -0.12029412530E+01  0.13428455231E+01 -0.39148164541E-01  0.18032843192E+01  0.00000000000E+00 0.  1.
</event>
<event>
 7    1  0.3919732E-008  0.4614232E+02  0.7816164E-02  0.1320468E+00
        -11   -1    0    0    0    0  0.00000000000E+00  0.00000000000E+00  0.45593999997E+02  0.45594000000E+02  0.51100000000E-03 0. -1.
         11   -1    0    0    0    0 -0.00000000000E+00 -0.00000000000E+00 -0.45593999997E+02  0.45594000000E+02  0.51100000000E-03 0.  1.
    9900012    2    1    2    0    0 -0.34713836554E+02  0.24601934713E+02  0.14792147073E+02  0.46142320351E+02  0.10000023621E+02 0.  0.
        -12    1    1    2    0    0  0.34713836554E+02 -0.24601934713E+02 -0.14792147073E+02  0.45045679649E+02  0.00000000000E+00 0.  1.
         11    1    3    3    0    0 -0.16453947350E+02  0.14947780788E+02  0.57240599262E+01  0.22955029867E+02  0.51100000000E-03 0. -1.
        -11    1    3    3    0    0 -0.29707519655E+01 -0.13655847166E+00  0.19658908526E+00  0.29803796714E+01  0.51100000000E-03 0.  1.
         12    1    3    3    0    0 -0.15289137239E+02  0.97907123965E+01  0.88714980620E+01  0.20206910813E+02  0.00000000000E+00 0. -1.
</event>
<event>
 7    1  0.3919732E-008  0.4614232E+02  0.7816164E-02  0.1320468E+00
        -11   -1    0    0    0    0  0.00000000000E+00  0.00000000000E+00  0.45593999997E+02  0.45594000000E+02  0.51100000000E-03 0.  1.
         11   -1    0    0    0    0 -0.00000000000E+00 -0.00000000000E+00 -0.45593999997E+02  0.45594000000E+02  0.51100000000E-03 0. -1.
    9900012    2    1    2    0    0  0.13501680140E+01 -0.44976028653E+02 -0.21088921863E+01  0.46142317263E+02  0.99999954538E+01 0.  0.
        -12    1    1    2    0    0 -0.13501680140E+01  0.44976028653E+02  0.21088921863E+01  0.45045682737E+02  0.00000000000E+00 0.  1.
         11    1    3    3    0    0 -0.20370244976E+00 -0.11869147830E+02  0.40005837252E+00  0.11877634944E+02  0.51100000000E-03 0. -1.
        -11    1    3    3    0    0  0.19154175622E+01 -0.21109814668E+02  0.23284026161E+01  0.21324037112E+02  0.51100000000E-03 0.  1.
         12    1    3    3    0    0 -0.36154709845E+00 -0.11997066155E+02 -0.48373531749E+01  0.12940645207E+02  0.00000000000E+00 0. -1.
</event>
<event>
 7    1  0.3919732E-008  0.4614232E+02  0.7816164E-02  0.1320468E+00
        -11   -1    0    0    0    0  0.00000000000E+00  0.00000000000E+00  0.45593999997E+02  0.45594000000E+02  0.51100000000E-03 0. -1.
         11   -1    0    0    0    0 -0.00000000000E+00 -0.00000000000E+00 -0.45593999997E+02  0.45594000000E+02  0.51100000000E-03 0.  1.
    9900012    2    1    2    0    0  0.24988444032E+02  0.80941469875E+01  0.36594753424E+02  0.46142317313E+02  0.99999959098E+01 0.  0.
        -12    1    1    2    0    0 -0.24988444032E+02 -0.80941469875E+01 -0.36594753424E+02  0.45045682687E+02  0.00000000000E+00 0.  1.
         11    1    3    3    0    0  0.20530422207E+02  0.45598233773E+01  0.23949599348E+02  0.31872771050E+02  0.51100000000E-03 0. -1.
        -11    1    3    3    0    0 -0.17275505538E+00 -0.34501473667E+00  0.19357218124E+01  0.19738030991E+01  0.51100000000E-03 0.  1.
         12    1    3    3    0    0  0.46307768810E+01  0.38793383469E+01  0.10709432264E+02  0.12295743164E+02  0.00000000000E+00 0. -1.
</event>
<event>
 7    1  0.3919732E-008  0.4614232E+02  0.7816164E-02  0.1320468E+00
        -11   -1    0    0    0    0  0.00000000000E+00  0.00000000000E+00  0.45593999997E+02  0.45594000000E+02  0.51100000000E-03 0. -1.
         11   -1    0    0    0    0 -0.00000000000E+00 -0.00000000000E+00 -0.45593999997E+02  0.45594000000E+02  0.51100000000E-03 0.  1.
    9900012    2    1    2    0    0 -0.84412731448E+01  0.11132990478E+02  0.42824232737E+02  0.46142317868E+02  0.10000000971E+02 0.  0.
        -12    1    1    2    0    0  0.84412731448E+01 -0.11132990478E+02 -0.42824232737E+02  0.45045682132E+02  0.00000000000E+00 0.  1.
         11    1    3    3    0    0  0.93616889960E+00 -0.40649414471E+00  0.88987811341E+01  0.89571175962E+01  0.51100000000E-03 0. -1.
        -11    1    3    3    0    0 -0.49236174638E+00  0.31587391761E+00  0.36447487278E+01  0.36913940417E+01  0.51100000000E-03 0.  1.
        -12    1    3    3    0    0 -0.88850802980E+01  0.11223610705E+02  0.30280702875E+02  0.33493806230E+02  0.00000000000E+00 0.  1.
</event>
<event>
 7    1  0.3919732E-008  0.4614232E+02  0.7816164E-02  0.1320468E+00
        -11   -1    0    0    0    0  0.00000000000E+00  0.00000000000E+00  0.45593999997E+02  0.45594000000E+02  0.51100000000E-03 0. -1.
         11   -1    0    0    0    0 -0.00000000000E+00 -0.00000000000E+00 -0.45593999997E+02  0.45594000000E+02  0.51100000000E-03 0.  1.
    9900012    2    1    2    0    0  0.36055131669E+02 -0.27002524621E+02  0.67860336900E-01  0.46142318070E+02  0.10000002813E+02 0.  0.
        -12    1    1    2    0    0 -0.36055131669E+02  0.27002524621E+02 -0.67860336900E-01  0.45045681930E+02  0.00000000000E+00 0.  1.
         11    1    3    3    0    0  0.26300419320E+02 -0.17356516445E+02 -0.29399789651E+01  0.31648131004E+02  0.51100000000E-03 0. -1.
        -11    1    3    3    0    0  0.13303445983E+01 -0.24261637202E+00  0.10631561966E+01  0.17201688329E+01  0.51100000000E-03 0.  1.
         12    1    3    3    0    0  0.84243677508E+01 -0.94033918039E+01  0.19446831055E+01  0.12774018232E+02  0.00000000000E+00 0. -1.
</event>
<event>
 7    1  0.3919732E-008  0.4614232E+02  0.7816164E-02  0.1320468E+00
        -11   -1    0    0    0    0  0.00000000000E+00  0.00000000000E+00  0.45593999997E+02  0.45594000000E+02  0.51100000000E-03 0.  1.
         11   -1    0    0    0    0 -0.00000000000E+00 -0.00000000000E+00 -0.45593999997E+02  0.45594000000E+02  0.51100000000E-03 0. -1.
    9900012    2    1    2    0    0  0.24425139123E+02  0.33181664503E+00 -0.37847273466E+02  0.46142316164E+02  0.99999854389E+01 0.  0.
        -12    1    1    2    0    0 -0.24425139123E+02 -0.33181664503E+00  0.37847273466E+02  0.45045683836E+02  0.00000000000E+00 0.  1.
         11    1    3    3    0    0  0.14602810471E+02  0.47784703500E+01 -0.21482340668E+02  0.26411490178E+02  0.51100000000E-03 0. -1.
        -11    1    3    3    0    0  0.93850917004E+01 -0.35743468018E+01 -0.15061862701E+02  0.18102917156E+02  0.51100000000E-03 0.  1.
         12    1    3    3    0    0  0.43723695116E+00 -0.87230690316E+00 -0.13030700963E+01  0.16279088305E+01  0.00000000000E+00 0. -1.
</event>
<event>
 7    1  0.3919732E-008  0.4614232E+02  0.7816164E-02  0.1320468E+00
        -11   -1    0    0    0    0  0.00000000000E+00  0.00000000000E+00  0.45593999997E+02  0.45594000000E+02  0.51100000000E-03 0.  1.
         11   -1    0    0    0    0 -0.00000000000E+00 -0.00000000000E+00 -0.45593999997E+02  0.45594000000E+02  0.51100000000E-03 0. -1.
    9900012    2    1    2    0    0  0.31162796501E+02  0.20172317916E+02 -0.25516093801E+02  0.46142319422E+02  0.10000015145E+02 0.  0.
        -12    1    1    2    0    0 -0.31162796501E+02 -0.20172317916E+02  0.25516093801E+02  0.45045680578E+02  0.00000000000E+00 0.  1.
         11    1    3    3    0    0  0.15943055367E+02  0.10674399322E+02 -0.13896148466E+02  0.23690224941E+02  0.51100000000E-03 0. -1.
        -11    1    3    3    0    0  0.22787549725E+01  0.45541768056E+01 -0.15413905842E+01  0.53206330259E+01  0.51100000000E-03 0.  1.
         12    1    3    3    0    0  0.12940986162E+02  0.49437417881E+01 -0.10078554751E+02  0.17131461455E+02  0.00000000000E+00 0. -1.
</event>
<event>
 7    1  0.3919732E-008  0.4614232E+02  0.7816164E-02  0.1320468E+00
        -11   -1    0    0    0    0  0.00000000000E+00  0.00000000000E+00  0.45593999997E+02  0.45594000000E+02  0.51100000000E-03 0.  1.
         11   -1    0    0    0    0 -0.00000000000E+00 -0.00000000000E+00 -0.45593999997E+02  0.45594000000E+02  0.51100000000E-03 0. -1.
    9900012    2    1    2    0    0 -0.31836722174E+02 -0.12441711943E+02 -0.29338376797E+02  0.46142318432E+02  0.10000006116E+02 0.  0.
        -12    1    1    2    0    0  0.31836722174E+02  0.12441711943E+02  0.29338376797E+02  0.45045681568E+02  0.00000000000E+00 0.  1.
         11    1    3    3    0    0  0.10637518215E+00 -0.76947734290E+00 -0.97366776897E+00  0.12455682422E+01  0.51100000000E-03 0. -1.
        -11    1    3    3    0    0  0.80717798496E-01  0.33249055088E+00 -0.11207036573E+01  0.11717688672E+01  0.51100000000E-03 0.  1.
         12    1    3    3    0    0 -0.32023815155E+02 -0.12004725151E+02 -0.27244005370E+02  0.43724981322E+02  0.00000000000E+00 0. -1.
</event>
<event>
 7    1  0.3919732E-008  0.4614232E+02  0.7816164E-02  0.1320468E+00
        -11   -1    0    0    0    0  0.00000000000E+00  0.00000000000E+00  0.45593999997E+02  0.45594000000E+02  0.51100000000E-03 0.  1.
         11   -1    0    0    0    0 -0.00000000000E+00 -0.00000000000E+00 -0.45593999997E+02  0.45594000000E+02  0.51100000000E-03 0. -1.
    9900012    2    1    2    0    0 -0.11456207762E+02 -0.43548679792E+02 -0.11752830327E+01  0.46142317653E+02  0.99999990159E+01 0.  0.
        -12    1    1    2    0    0  0.11456207762E+02  0.43548679792E+02  0.11752830327E+01  0.45045682347E+02  0.00000000000E+00 0.  1.
         11    1    3    3    0    0 -0.53027274559E+01 -0.17040266181E+02  0.16657943773E+01  0.17923851739E+02  0.51100000000E-03 0. -1.
        -11    1    3    3    0    0  0.46364472673E+00 -0.10345079227E+02  0.76865423683E+00  0.10383952053E+02  0.51100000000E-03 0.  1.
        -12    1    3    3    0    0 -0.66171250333E+01 -0.16163334384E+02 -0.36097316468E+01  0.17834513861E+02  0.00000000000E+00 0.  1.
</event>
<event>
 7    1  0.3919732E-008  0.4614232E+02  0.7816164E-02  0.1320468E+00
        -11   -1    0    0    0    0  0.00000000000E+00  0.00000000000E+00  0.45593999997E+02  0.45594000000E+02  0.51100000000E-03 0.  1.
         11   -1    0    0    0    0 -0.00000000000E+00 -0.00000000000E+00 -0.45593999997E+02  0.45594000000E+02  0.51100000000E-03 0. -1.
    9900012    2    1    2    0    0 -0.15111048738E+01  0.16916549169E+02 -0.41721222816E+02  0.46142317554E+02  0.99999981126E+01 0.  0.
        -12    1    1    2    0    0  0.15111048738E+01 -0.16916549169E+02  0.41721222816E+02  0.45045682446E+02  0.00000000000E+00 0.  1.
         11    1    3    3    0    0  0.14111225506E+01  0.75115830640E+01 -0.18232930095E+02  0.19770050255E+02  0.51100000000E-03 0. -1.
        -11    1    3    3    0    0 -0.16159687481E+01  0.52775460158E+01 -0.20187056514E+02  0.20927997943E+02  0.51100000000E-03 0.  1.
        -12    1    3    3    0    0 -0.13062586763E+01  0.41274200895E+01 -0.33012362072E+01  0.54442693560E+01  0.00000000000E+00 0.  1.
</event>
<event>
 7    1  0.3919732E-008  0.4614232E+02  0.7816164E-02  0.1320468E+00
        -11   -1    0    0    0    0  0.00000000000E+00  0.00000000000E+00  0.45593999997E+02  0.45594000000E+02  0.51100000000E-03 0. -1.
         11   -1    0    0    0    0 -0.00000000000E+00 -0.00000000000E+00 -0.45593999997E+02  0.45594000000E+02  0.51100000000E-03 0.  1.
    9900012    2    1    2    0    0 -0.25342632176E+02 -0.28999286601E+02  0.23364630264E+02  0.46142316785E+02  0.99999910986E+01 0.  0.
        -12    1    1    2    0    0  0.25342632176E+02  0.28999286601E+02 -0.23364630264E+02  0.45045683215E+02  0.00000000000E+00 0.  1.
         11    1    3    3    0    0 -0.20266916863E+02 -0.23288607432E+02  0.16231607039E+02  0.34879395387E+02  0.51100000000E-03 0. -1.
        -11    1    3    3    0    0 -0.36665480915E+01 -0.10318724261E+01  0.35132974841E+01  0.51818524760E+01  0.51100000000E-03 0.  1.
        -12    1    3    3    0    0 -0.14091672216E+01 -0.46788067433E+01  0.36197257402E+01  0.60810689219E+01  0.00000000000E+00 0.  1.
</event>
<event>
 7    1  0.3919732E-008  0.4614232E+02  0.7816164E-02  0.1320468E+00
        -11   -1    0    0    0    0  0.00000000000E+00  0.00000000000E+00  0.45593999997E+02  0.45594000000E+02  0.51100000000E-03 0. -1.
         11   -1    0    0    0    0 -0.00000000000E+00 -0.00000000000E+00 -0.45593999997E+02  0.45594000000E+02  0.51100000000E-03 0.  1.
    9900012    2    1    2    0    0 -0.72504238816E+01  0.28463700712E+02  0.34152050679E+02  0.46142317962E+02  0.10000001828E+02 0.  0.
        -12    1    1    2    0    0  0.72504238816E+01 -0.28463700712E+02 -0.34152050679E+02  0.45045682038E+02  0.00000000000E+00 0.  1.
         11    1    3    3    0    0 -0.22154758035E+01  0.11529668472E+02  0.87921518213E+01  0.14667771542E+02  0.51100000000E-03 0. -1.
        -11    1    3    3    0    0 -0.93020919632E+00  0.13487377129E+01  0.27933598308E+00  0.16620503661E+01  0.51100000000E-03 0.  1.
         12    1    3    3    0    0 -0.41047388817E+01  0.15585294528E+02  0.25080562875E+02  0.29812496053E+02  0.00000000000E+00 0. -1.
</event>
<event>
 7    1  0.3919732E-008  0.4614232E+02  0.7816164E-02  0.1320468E+00
        -11   -1    0    0    0    0  0.00000000000E+00  0.00000000000E+00  0.45593999997E+02  0.45594000000E+02  0.51100000000E-03 0.  1.
         11   -1    0    0    0    0 -0.00000000000E+00 -0.00000000000E+00 -0.45593999997E+02  0.45594000000E+02  0.51100000000E-03 0. -1.
    9900012    2    1    2    0    0  0.21465133411E+02 -0.11324660732E+02 -0.37948830505E+02  0.46142316192E+02  0.99999856941E+01 0.  0.
        -12    1    1    2    0    0 -0.21465133411E+02  0.11324660732E+02  0.37948830505E+02  0.45045683808E+02  0.00000000000E+00 0.  1.
         11    1    3    3    0    0  0.61608685831E+01 -0.34581538394E+01 -0.61682365711E+01  0.93788204127E+01  0.51100000000E-03 0. -1.
        -11    1    3    3    0    0  0.67220724121E+01 -0.64484398669E+01 -0.20512943107E+02  0.22528858591E+02  0.51100000000E-03 0.  1.
         12    1    3    3    0    0  0.85821924155E+01 -0.14180670256E+01 -0.11267650826E+02  0.14234637189E+02  0.00000000000E+00 0. -1.
</event>
<event>
 7    1  0.3919732E-008  0.4614232E+02  0.7816164E-02  0.1320468E+00
        -11   -1    0    0    0    0  0.00000000000E+00  0.00000000000E+00  0.45593999997E+02  0.45594000000E+02  0.51100000000E-03 0.  1.
         11   -1    0    0    0    0 -0.00000000000E+00 -0.00000000000E+00 -0.45593999997E+02  0.45594000000E+02  0.51100000000E-03 0. -1.
    9900012    2    1    2    0    0  0.32528269337E+02  0.28913294675E+02  0.11620954019E+02  0.46142317773E+02  0.10000000104E+02 0.  0.
        -12    1    1    2    0    0 -0.32528269337E+02 -0.28913294675E+02 -0.11620954019E+02  0.45045682227E+02  0.00000000000E+00 0.  1.
         11    1    3    3    0    0  0.28605114015E+01  0.43031150104E+01 -0.11089599847E+01  0.52848005430E+01  0.51100000000E-03 0. -1.
        -11    1    3    3    0    0  0.11208287866E+02  0.10404908443E+02  0.72710356304E+01  0.16933865359E+02  0.51100000000E-03 0.  1.
        -12    1    3    3    0    0  0.18459470070E+02  0.14205271222E+02  0.54588783730E+01  0.23923651871E+02  0.00000000000E+00 0.  1.
</event>
<event>
 7    1  0.3919732E-008  0.4614232E+02  0.7816164E-02  0.1320468E+00
        -11   -1    0    0    0    0  0.00000000000E+00  0.00000000000E+00  0.45593999997E+02  0.45594000000E+02  0.51100000000E-03 0. -1.
         11   -1    0    0    0    0 -0.00000000000E+00 -0.00000000000E+00 -0.45593999997E+02  0.45594000000E+02  0.51100000000E-03 0.  1.
    9900012    2    1    2    0    0 -0.39119469563E+01 -0.16188002552E+02  0.41854016453E+02  0.46142318199E+02  0.10000003997E+02 0.  0.
        -12    1    1    2    0    0  0.39119469563E+01  0.16188002552E+02 -0.41854016453E+02  0.45045681801E+02  0.00000000000E+00 0.  1.
         11    1    3    3    0    0 -0.56139995829E+01 -0.86991415946E+01  0.25690599592E+02  0.27698356692E+02  0.51100000000E-03 0. -1.
        -11    1    3    3    0    0 -0.13416908102E+01 -0.32146274528E+01  0.48330706785E+01  0.59575612742E+01  0.51100000000E-03 0.  1.
         12    1    3    3    0    0  0.30437434367E+01 -0.42742335045E+01  0.11330346183E+02  0.12486400233E+02  0.00000000000E+00 0. -1.
</event>
<event>
 7    1  0.3919732E-008  0.4614232E+02  0.7816164E-02  0.1320468E+00
        -11   -1    0    0    0    0  0.00000000000E+00  0.00000000000E+00  0.45593999997E+02  0.45594000000E+02  0.51100000000E-03 0.  1.
         11   -1    0    0    0    0 -0.00000000000E+00 -0.00000000000E+00 -0.45593999997E+02  0.45594000000E+02  0.51100000000E-03 0. -1.
    9900012    2    1    2    0    0  0.34246650370E+02 -0.14433611993E+02 -0.25454886674E+02  0.46142317940E+02  0.10000001628E+02 0.  0.
        -12    1    1    2    0    0 -0.34246650370E+02  0.14433611993E+02  0.25454886674E+02  0.45045682060E+02  0.00000000000E+00 0.  1.
         11    1    3    3    0    0  0.29208730767E+02 -0.95448884012E+01 -0.22172276054E+02  0.37892805033E+02  0.51100000000E-03 0. -1.
        -11    1    3    3    0    0  0.16558580047E+01 -0.34765988673E+00  0.24878286926E-01  0.16921442962E+01  0.51100000000E-03 0.  1.
         12    1    3    3    0    0  0.33820615981E+01 -0.45410637048E+01 -0.33074889070E+01  0.65573686105E+01  0.00000000000E+00 0. -1.
</event>
<event>
 7    1  0.3919732E-008  0.4614232E+02  0.7816164E-02  0.1320468E+00
        -11   -1    0    0    0    0  0.00000000000E+00  0.00000000000E+00  0.45593999997E+02  0.45594000000E+02  0.51100000000E-03 0.  1.
         11   -1    0    0    0    0 -0.00000000000E+00 -0.00000000000E+00 -0.45593999997E+02  0.45594000000E+02  0.51100000000E-03 0. -1.
    9900012    2    1    2    0    0  0.36409712181E+02 -0.11475395046E+02 -0.23911538826E+02  0.46142317392E+02  0.99999966377E+01 0.  0.
        -12    1    1    2    0    0 -0.36409712181E+02  0.11475395046E+02  0.23911538826E+02  0.45045682608E+02  0.00000000000E+00 0.  1.
         11    1    3    3    0    0  0.78068556682E+01 -0.94540910361E+00 -0.66843700519E+01  0.10320930048E+02  0.51100000000E-03 0. -1.
        -11    1    3    3    0    0  0.14429261617E+02 -0.27671846008E+01 -0.48708676493E+01  0.15478574009E+02  0.51100000000E-03 0.  1.
         12    1    3    3    0    0  0.14173594896E+02 -0.77628013414E+01 -0.12356301125E+02  0.20342813336E+02  0.00000000000E+00 0. -1.
</event>
<event>
 7    1  0.3919732E-008  0.4614232E+02  0.7816164E-02  0.1320468E+00
        -11   -1    0    0    0    0  0.00000000000E+00  0.00000000000E+00  0.45593999997E+02  0.45594000000E+02  0.51100000000E-03 0. -1.
         11   -1    0    0    0    0 -0.00000000000E+00 -0.00000000000E+00 -0.45593999997E+02  0.45594000000E+02  0.51100000000E-03 0.  1.
    9900012    2    1    2    0    0  0.22942073057E+02  0.36553673530E+02  0.12907506492E+02  0.46142317759E+02  0.99999999772E+01 0.  0.
        -12    1    1    2    0    0 -0.22942073057E+02 -0.36553673530E+02 -0.12907506492E+02  0.45045682241E+02  0.00000000000E+00 0.  1.
         11    1    3    3    0    0  0.11991031132E+02  0.20257760790E+02  0.54549925019E+01  0.24164408606E+02  0.51100000000E-03 0. -1.
        -11    1    3    3    0    0  0.93314718176E+01  0.16585545957E+02  0.68395080878E+01  0.20222155477E+02  0.51100000000E-03 0.  1.
        -12    1    3    3    0    0  0.16195701078E+01 -0.28963321630E+00  0.61300590264E+00  0.17557536760E+01  0.00000000000E+00 0.  1.
</event>
<event>
 7    1  0.3919732E-008  0.4614232E+02  0.7816164E-02  0.1320468E+00
        -11   -1    0    0    0    0  0.00000000000E+00  0.00000000000E+00  0.45593999997E+02  0.45594000000E+02  0.51100000000E-03 0.  1.
         11   -1    0    0    0    0 -0.00000000000E+00 -0.00000000000E+00 -0.45593999997E+02  0.45594000000E+02  0.51100000000E-03 0. -1.
    9900012    2    1    2    0    0  0.18086828139E+02  0.33176678992E+01 -0.41121446310E+02  0.46142316310E+02  0.99999867706E+01 0.  0.
        -12    1    1    2    0    0 -0.18086828139E+02 -0.33176678992E+01  0.41121446310E+02  0.45045683690E+02  0.00000000000E+00 0.  1.
         11    1    3    3    0    0  0.43272617632E+01  0.99609869352E+00 -0.37236011267E+01  0.57950506975E+01  0.51100000000E-03 0. -1.
        -11    1    3    3    0    0  0.41079233480E+01 -0.19384054481E+01 -0.97940273756E+01  0.10796083661E+02  0.51100000000E-03 0.  1.
        -12    1    3    3    0    0  0.96516430274E+01  0.42599746538E+01 -0.27603817808E+02  0.29551181952E+02  0.00000000000E+00 0.  1.
</event>
<event>
 7    1  0.3919732E-008  0.4614232E+02  0.7816164E-02  0.1320468E+00
        -11   -1    0    0    0    0  0.00000000000E+00  0.00000000000E+00  0.45593999997E+02  0.45594000000E+02  0.51100000000E-03 0.  1.
         11   -1    0    0    0    0 -0.00000000000E+00 -0.00000000000E+00 -0.45593999997E+02  0.45594000000E+02  0.51100000000E-03 0. -1.
    9900012    2    1    2    0    0  0.85958766142E+01  0.31848772866E+02 -0.30673768304E+02  0.46142317746E+02  0.99999998595E+01 0.  0.
        -12    1    1    2    0    0 -0.85958766142E+01 -0.31848772866E+02  0.30673768304E+02  0.45045682254E+02  0.00000000000E+00 0.  1.
         11    1    3    3    0    0  0.61530390553E+01  0.14295214960E+02 -0.16599232220E+02  0.22754067130E+02  0.51100000000E-03 0. -1.
        -11    1    3    3    0    0  0.21871867154E+01  0.53136589173E+01 -0.76339709785E+01  0.95549081617E+01  0.51100000000E-03 0.  1.
        -12    1    3    3    0    0  0.25565084350E+00  0.12239898988E+02 -0.64405651049E+01  0.13833342454E+02  0.00000000000E+00 0.  1.
</event>
<event>
 7    1  0.3919732E-008  0.4614232E+02  0.7816164E-02  0.1320468E+00
        -11   -1    0    0    0    0  0.00000000000E+00  0.00000000000E+00  0.45593999997E+02  0.45594000000E+02  0.51100000000E-03 0. -1.
         11   -1    0    0    0    0 -0.00000000000E+00 -0.00000000000E+00 -0.45593999997E+02  0.45594000000E+02  0.51100000000E-03 0.  1.
    9900012    2    1    2    0    0 -0.22077955006E+02  0.38367453947E+02  0.83436149591E+01  0.46142317296E+02  0.99999957632E+01 0.  0.
        -12    1    1    2    0    0  0.22077955006E+02 -0.38367453947E+02 -0.83436149591E+01  0.45045682704E+02  0.00000000000E+00 0.  1.
         11    1    3    3    0    0 -0.53308629784E+01  0.12084473095E+02  0.61164964149E+01  0.14555552849E+02  0.51100000000E-03 0. -1.
        -11    1    3    3    0    0 -0.42947776594E+00 -0.12756328893E+00 -0.84775000441E-01  0.45597215478E+00  0.51100000000E-03 0.  1.
         12    1    3    3    0    0 -0.16317614261E+02  0.26410544142E+02  0.23118935446E+01  0.31130792293E+02  0.00000000000E+00 0. -1.
</event>
<event>
 7    1  0.3919732E-008  0.4614232E+02  0.7816164E-02  0.1320468E+00
        -11   -1    0    0    0    0  0.00000000000E+00  0.00000000000E+00  0.45593999997E+02  0.45594000000E+02  0.51100000000E-03 0. -1.
         11   -1    0    0    0    0 -0.00000000000E+00 -0.00000000000E+00 -0.45593999997E+02  0.45594000000E+02  0.51100000000E-03 0.  1.
    9900012    2    1    2    0    0 -0.10282429636E+02  0.14257048094E+02  0.41474350456E+02  0.46142317351E+02  0.99999962568E+01 0.  0.
        -12    1    1    2    0    0  0.10282429636E+02 -0.14257048094E+02 -0.41474350456E+02  0.45045682649E+02  0.00000000000E+00 0.  1.
         11    1    3    3    0    0 -0.35025839639E+01  0.29677517179E+01  0.96412410817E+01  0.10678444388E+02  0.51100000000E-03 0. -1.
        -11    1    3    3    0    0 -0.50856329845E+01  0.10335048010E+02  0.17190726384E+02  0.20692944549E+02  0.51100000000E-03 0.  1.
        -12    1    3    3    0    0 -0.16942126872E+01  0.95424836584E+00  0.14642382990E+02  0.14770928414E+02  0.00000000000E+00 0.  1.
</event>
<event>
 7    1  0.3919732E-008  0.4614232E+02  0.7816164E-02  0.1320468E+00
        -11   -1    0    0    0    0  0.00000000000E+00  0.00000000000E+00  0.45593999997E+02  0.45594000000E+02  0.51100000000E-03 0. -1.
         11   -1    0    0    0    0 -0.00000000000E+00 -0.00000000000E+00 -0.45593999997E+02  0.45594000000E+02  0.51100000000E-03 0.  1.
    9900012    2    1    2    0    0 -0.21734464028E+01 -0.44989800353E+02 -0.55454702621E+00  0.46142317327E+02  0.99999960433E+01 0.  0.
        -12    1    1    2    0    0  0.21734464028E+01  0.44989800353E+02  0.55454702621E+00  0.45045682673E+02  0.00000000000E+00 0.  1.
         11    1    3    3    0    0 -0.32473560763E+01 -0.54150362578E+01 -0.91059673843E+00  0.63794298993E+01  0.51100000000E-03 0. -1.
        -11    1    3    3    0    0 -0.44245984409E+00 -0.24137441225E+02  0.16471953171E+01  0.24197625757E+02  0.51100000000E-03 0.  1.
        -12    1    3    3    0    0  0.15163695176E+01 -0.15437322870E+02 -0.12911456049E+01  0.15565261670E+02  0.00000000000E+00 0.  1.
</event>
<event>
 7    1  0.3919732E-008  0.4614231E+02  0.7816164E-02  0.1320468E+00
        -11   -1    0    0    0    0  0.00000000000E+00  0.00000000000E+00  0.45593999997E+02  0.45594000000E+02  0.51100000000E-03 0.  1.
         11   -1    0    0    0    0 -0.00000000000E+00 -0.00000000000E+00 -0.45593999997E+02  0.45594000000E+02  0.51100000000E-03 0. -1.
    9900012    2    1    2    0    0 -0.38900089365E+02  0.22091569180E+02 -0.52782483677E+01  0.46142308893E+02  0.99999191347E+01 0.  0.
        -12    1    1    2    0    0  0.38900089365E+02 -0.22091569180E+02  0.52782483677E+01  0.45045691107E+02  0.00000000000E+00 0.  1.
         11    1    3    3    0    0 -0.94114969728E+01  0.36474626016E+01 -0.32435177026E+01  0.10601918036E+02  0.51100000000E-03 0. -1.
        -11    1    3    3    0    0 -0.25581579907E+01  0.32074346767E+01 -0.20769099000E+01  0.45984089101E+01  0.51100000000E-03 0.  1.
         12    1    3    3    0    0 -0.26930434402E+02  0.15236671901E+02  0.42179234966E-01  0.30941981947E+02  0.00000000000E+00 0. -1.
</event>
<event>
 7    1  0.3919732E-008  0.4614232E+02  0.7816164E-02  0.1320468E+00
        -11   -1    0    0    0    0  0.00000000000E+00  0.00000000000E+00  0.45593999997E+02  0.45594000000E+02  0.51100000000E-03 0.  1.
         11   -1    0    0    0    0 -0.00000000000E+00 -0.00000000000E+00 -0.45593999997E+02  0.45594000000E+02  0.51100000000E-03 0. -1.
    9900012    2    1    2    0    0 -0.25284675248E+02 -0.37253566333E+02 -0.14037071859E+01  0.46142318734E+02  0.10000008868E+02 0.  0.
        -12    1    1    2    0    0  0.25284675248E+02  0.37253566333E+02  0.14037071859E+01  0.45045681266E+02  0.00000000000E+00 0.  1.
         11    1    3    3    0    0 -0.11255486305E+02 -0.21788866183E+02 -0.39705459528E+01  0.24843628900E+02  0.51100000000E-03 0. -1.
        -11    1    3    3    0    0 -0.34684012807E-01 -0.98783770686E+00  0.31784486827E+00  0.10382927994E+01  0.51100000000E-03 0.  1.
         12    1    3    3    0    0 -0.13994504930E+02 -0.14476862443E+02  0.22489938986E+01  0.20260397034E+02  0.00000000000E+00 0. -1.
</event>
<event>
 7    1  0.3919732E-008  0.4614232E+02  0.7816164E-02  0.1320468E+00
        -11   -1    0    0    0    0  0.00000000000E+00  0.00000000000E+00  0.45593999997E+02  0.45594000000E+02  0.51100000000E-03 0.  1.
         11   -1    0    0    0    0 -0.00000000000E+00 -0.00000000000E+00 -0.45593999997E+02  0.45594000000E+02  0.51100000000E-03 0. -1.
    9900012    2    1    2    0    0  0.12388621000E+02  0.20644104432E+02 -0.38071728919E+02  0.46142317399E+02  0.99999966989E+01 0.  0.
        -12    1    1    2    0    0 -0.12388621000E+02 -0.20644104432E+02  0.38071728919E+02  0.45045682601E+02  0.00000000000E+00 0.  1.
         11    1    3    3    0    0  0.65749192397E+01  0.98715163343E+01 -0.20760756212E+02  0.23909943465E+02  0.51100000000E-03 0. -1.
        -11    1    3    3    0    0  0.70901147896E+01  0.73215076165E+01 -0.13716589844E+02  0.17088564560E+02  0.51100000000E-03 0.  1.
        -12    1    3    3    0    0 -0.12764130295E+01  0.34510804812E+01 -0.35943828634E+01  0.51438093742E+01  0.00000000000E+00 0.  1.
</event>
<event>
 7    1  0.3919732E-008  0.4614232E+02  0.7816164E-02  0.1320468E+00
        -11   -1    0    0    0    0  0.00000000000E+00  0.00000000000E+00  0.45593999997E+02  0.45594000000E+02  0.51100000000E-03 0.  1.
         11   -1    0    0    0    0 -0.00000000000E+00 -0.00000000000E+00 -0.45593999997E+02  0.45594000000E+02  0.51100000000E-03 0. -1.
    9900012    2    1    2    0    0  0.15902804375E+02  0.11591265270E+02 -0.40519831852E+02  0.46142318843E+02  0.10000009869E+02 0.  0.
        -12    1    1    2    0    0 -0.15902804375E+02 -0.11591265270E+02  0.40519831852E+02  0.45045681157E+02  0.00000000000E+00 0.  1.
         11    1    3    3    0    0  0.11769146277E+01  0.53679364532E+00  0.13613814547E+00  0.13006957040E+01  0.51100000000E-03 0. -1.
        -11    1    3    3    0    0  0.93137403952E+00  0.43948239030E+00 -0.56948222203E+01  0.57871929945E+01  0.51100000000E-03 0.  1.
         12    1    3    3    0    0  0.13794515708E+02  0.10614989234E+02 -0.34961147777E+02  0.39054430145E+02  0.00000000000E+00 0. -1.
</event>
<event>
 7    1  0.3919732E-008  0.4614232E+02  0.7816164E-02  0.1320468E+00
        -11   -1    0    0    0    0  0.00000000000E+00  0.00000000000E+00  0.45593999997E+02  0.45594000000E+02  0.51100000000E-03 0.  1.
         11   -1    0    0    0    0 -0.00000000000E+00 -0.00000000000E+00 -0.45593999997E+02  0.45594000000E+02  0.51100000000E-03 0. -1.
    9900012    2    1    2    0    0  0.12076940248E+02  0.10934405554E+02 -0.41996425636E+02  0.46142317890E+02  0.10000001175E+02 0.  0.
        -12    1    1    2    0    0 -0.12076940248E+02 -0.10934405554E+02  0.41996425636E+02  0.45045682110E+02  0.00000000000E+00 0.  1.
         11    1    3    3    0    0  0.76148938461E+01  0.98451914971E+01 -0.29150522675E+02  0.31696488392E+02  0.51100000000E-03 0. -1.
        -11    1    3    3    0    0 -0.62436557250E+00 -0.43570056890E+00 -0.29263463851E+00  0.81566086496E+00  0.51100000000E-03 0.  1.
        -12    1    3    3    0    0  0.50864119744E+01  0.15249146260E+01 -0.12553268323E+02  0.13630168633E+02  0.00000000000E+00 0.  1.
</event>
<event>
 7    1  0.4698399E-008  0.4614232E+02  0.7816164E-02  0.1320468E+00
        -11   -1    0    0    0    0  0.00000000000E+00  0.00000000000E+00  0.45593999997E+02  0.45594000000E+02  0.51100000000E-03 0. -1.
         11   -1    0    0    0    0 -0.00000000000E+00 -0.00000000000E+00 -0.45593999997E+02  0.45594000000E+02  0.51100000000E-03 0.  1.
    9900012    2    1    2    0    0  0.23100742858E+02 -0.19978997629E+02  0.33110554371E+02  0.46142317880E+02  0.10000001086E+02 0.  0.
        -12    1    1    2    0    0 -0.23100742858E+02  0.19978997629E+02 -0.33110554371E+02  0.45045682120E+02  0.00000000000E+00 0.  1.
         11    1    3    3    0    0  0.80252201258E+01 -0.94536611463E+01  0.15188887194E+02  0.19608114687E+02  0.51100000000E-03 0. -1.
        -11    1    3    3    0    0  0.88693702705E+00 -0.33145786310E+01  0.17791921389E+01  0.38650502868E+01  0.51100000000E-03 0.  1.
         12    1    3    3    0    0  0.14188585705E+02 -0.72107578515E+01  0.16142475038E+02  0.22669152906E+02  0.00000000000E+00 0. -1.
</event>
<event>
 7    1  0.3919732E-008  0.4614232E+02  0.7816164E-02  0.1320468E+00
        -11   -1    0    0    0    0  0.00000000000E+00  0.00000000000E+00  0.45593999997E+02  0.45594000000E+02  0.51100000000E-03 0.  1.
         11   -1    0    0    0    0 -0.00000000000E+00 -0.00000000000E+00 -0.45593999997E+02  0.45594000000E+02  0.51100000000E-03 0. -1.
    9900012    2    1    2    0    0 -0.15219875849E+02 -0.32178656464E+02 -0.27604400623E+02  0.46142317783E+02  0.10000000196E+02 0.  0.
        -12    1    1    2    0    0  0.15219875849E+02  0.32178656464E+02  0.27604400623E+02  0.45045682217E+02  0.00000000000E+00 0.  1.
         11    1    3    3    0    0 -0.11648627763E+02 -0.25096501580E+02 -0.22601526433E+02  0.35726095752E+02  0.51100000000E-03 0. -1.
        -11    1    3    3    0    0 -0.38391394317E+01 -0.40989465282E+01 -0.48444735033E+01  0.74168239835E+01  0.51100000000E-03 0.  1.
        -12    1    3    3    0    0  0.26789134513E+00 -0.29832083562E+01 -0.15840068631E+00  0.29993980474E+01  0.00000000000E+00 0.  1.
</event>
<event>
 7    1  0.3919732E-008  0.4614232E+02  0.7816164E-02  0.1320468E+00
        -11   -1    0    0    0    0  0.00000000000E+00  0.00000000000E+00  0.45593999997E+02  0.45594000000E+02  0.51100000000E-03 0. -1.
         11   -1    0    0    0    0 -0.00000000000E+00 -0.00000000000E+00 -0.45593999997E+02  0.45594000000E+02  0.51100000000E-03 0.  1.
    9900012    2    1    2    0    0  0.24678182600E+02  0.23889150618E+02 -0.29144626854E+02  0.46142317764E+02  0.10000000027E+02 0.  0.
        -12    1    1    2    0    0 -0.24678182600E+02 -0.23889150618E+02  0.29144626854E+02  0.45045682236E+02  0.00000000000E+00 0.  1.
         11    1    3    3    0    0  0.19856587768E+02  0.18896711923E+02 -0.18665664478E+02  0.33162883317E+02  0.51100000000E-03 0. -1.
        -11    1    3    3    0    0  0.51963240640E+00 -0.16732899053E+00 -0.16840023479E-01  0.54616909137E+00  0.51100000000E-03 0.  1.
         12    1    3    3    0    0  0.43019624257E+01  0.51597676855E+01 -0.10462122352E+02  0.12433265355E+02  0.00000000000E+00 0. -1.
</event>
<event>
 7    1  0.3919732E-008  0.4614232E+02  0.7816164E-02  0.1320468E+00
        -11   -1    0    0    0    0  0.00000000000E+00  0.00000000000E+00  0.45593999997E+02  0.45594000000E+02  0.51100000000E-03 0.  1.
         11   -1    0    0    0    0 -0.00000000000E+00 -0.00000000000E+00 -0.45593999997E+02  0.45594000000E+02  0.51100000000E-03 0. -1.
    9900012    2    1    2    0    0  0.14363304820E+02 -0.59810019251E+01 -0.42273356022E+02  0.46142317202E+02  0.99999949004E+01 0.  0.
        -12    1    1    2    0    0 -0.14363304820E+02  0.59810019251E+01  0.42273356022E+02  0.45045682798E+02  0.00000000000E+00 0.  1.
         11    1    3    3    0    0 -0.65289441500E-01  0.98372233645E+00 -0.50209555803E+01  0.51168317880E+01  0.51100000000E-03 0. -1.
        -11    1    3    3    0    0  0.26718003242E+01 -0.13073633454E+01 -0.24359902999E+01  0.38447060865E+01  0.51100000000E-03 0.  1.
         12    1    3    3    0    0  0.11756793937E+02 -0.56573609161E+01 -0.34816410142E+02  0.37180779327E+02  0.00000000000E+00 0. -1.
</event>
<event>
 7    1  0.3919732E-008  0.4614232E+02  0.7816164E-02  0.1320468E+00
        -11   -1    0    0    0    0  0.00000000000E+00  0.00000000000E+00  0.45593999997E+02  0.45594000000E+02  0.51100000000E-03 0. -1.
         11   -1    0    0    0    0 -0.00000000000E+00 -0.00000000000E+00 -0.45593999997E+02  0.45594000000E+02  0.51100000000E-03 0.  1.
    9900012    2    1    2    0    0 -0.14197863380E+00 -0.39569990546E+02  0.21524617208E+02  0.46142318123E+02  0.10000003304E+02 0.  0.
        -12    1    1    2    0    0  0.14197863380E+00  0.39569990546E+02 -0.21524617208E+02  0.45045681877E+02  0.00000000000E+00 0.  1.
         11    1    3    3    0    0 -0.15334806434E+01 -0.12710580350E+01  0.35524897107E+00  0.20232037724E+01  0.51100000000E-03 0. -1.
        -11    1    3    3    0    0  0.33207174804E+01 -0.24235293089E+02  0.12291481275E+02  0.27376214272E+02  0.51100000000E-03 0.  1.
         12    1    3    3    0    0 -0.19292154708E+01 -0.14063639422E+02  0.88778869617E+01  0.16742900079E+02  0.00000000000E+00 0. -1.
</event>
<event>
 7    1  0.3919732E-008  0.4614232E+02  0.7816164E-02  0.1320468E+00
        -11   -1    0    0    0    0  0.00000000000E+00  0.00000000000E+00  0.45593999997E+02  0.45594000000E+02  0.51100000000E-03 0.  1.
         11   -1    0    0    0    0 -0.00000000000E+00 -0.00000000000E+00 -0.45593999997E+02  0.45594000000E+02  0.51100000000E-03 0. -1.
    9900012    2    1    2    0    0 -0.37851687506E+01  0.38261343913E+01 -0.44722995390E+02  0.46142321811E+02  0.10000036929E+02 0.  0.
        -12    1    1    2    0    0  0.37851687506E+01 -0.38261343913E+01  0.44722995390E+02  0.45045678189E+02  0.00000000000E+00 0.  1.
         11    1    3    3    0    0 -0.16936003466E+01  0.37769608932E+01 -0.31882600676E+02  0.32150177944E+02  0.51100000000E-03 0. -1.
        -11    1    3    3    0    0  0.27817251839E+00  0.18620360440E+01 -0.19919419616E+01  0.27408741705E+01  0.51100000000E-03 0.  1.
         12    1    3    3    0    0 -0.23697409224E+01 -0.18128625459E+01 -0.10848452752E+02  0.11251269696E+02  0.00000000000E+00 0. -1.
</event>
<event>
 7    1  0.3919732E-008  0.4614232E+02  0.7816164E-02  0.1320468E+00
        -11   -1    0    0    0    0  0.00000000000E+00  0.00000000000E+00  0.45593999997E+02  0.45594000000E+02  0.51100000000E-03 0. -1.
         11   -1    0    0    0    0 -0.00000000000E+00 -0.00000000000E+00 -0.45593999997E+02  0.45594000000E+02  0.51100000000E-03 0.  1.
    9900012    2    1    2    0    0  0.28207327715E+02  0.12078593879E+01  0.35099874759E+02  0.46142317974E+02  0.10000001939E+02 0.  0.
        -12    1    1    2    0    0 -0.28207327715E+02 -0.12078593879E+01 -0.35099874759E+02  0.45045682026E+02  0.00000000000E+00 0.  1.
         11    1    3    3    0    0  0.14530671552E+02  0.45124283777E+00  0.15323410983E+02  0.21122285867E+02  0.51100000000E-03 0.  1.
        -11    1    3    3    0    0  0.11495764036E+02 -0.21469083091E+01  0.15163127205E+02  0.19148948612E+02  0.51100000000E-03 0. -1.
        -12    1    3    3    0    0  0.21808921273E+01  0.29035248592E+01  0.46133365712E+01  0.58710834944E+01  0.00000000000E+00 0.  1.
</event>
<event>
 7    1  0.3919732E-008  0.4614232E+02  0.7816164E-02  0.1320468E+00
        -11   -1    0    0    0    0  0.00000000000E+00  0.00000000000E+00  0.45593999997E+02  0.45594000000E+02  0.51100000000E-03 0. -1.
         11   -1    0    0    0    0 -0.00000000000E+00 -0.00000000000E+00 -0.45593999997E+02  0.45594000000E+02  0.51100000000E-03 0.  1.
    9900012    2    1    2    0    0  0.13826375123E+02 -0.22492069832E+02  0.36497282252E+02  0.46142318008E+02  0.10000002249E+02 0.  0.
        -12    1    1    2    0    0 -0.13826375123E+02  0.22492069832E+02 -0.36497282252E+02  0.45045681992E+02  0.00000000000E+00 0.  1.
         11    1    3    3    0    0  0.15773547511E+01 -0.86704209150E+01  0.14462848577E+02  0.16936299362E+02  0.51100000000E-03 0. -1.
        -11    1    3    3    0    0  0.68644347523E+01 -0.99277071545E+01  0.11028119846E+02  0.16349289324E+02  0.51100000000E-03 0.  1.
        -12    1    3    3    0    0  0.53845856199E+01 -0.38939417629E+01  0.11006313829E+02  0.12856729322E+02  0.00000000000E+00 0.  1.
</event>
<event>
 7    1  0.3919732E-008  0.4614232E+02  0.7816164E-02  0.1320468E+00
        -11   -1    0    0    0    0  0.00000000000E+00  0.00000000000E+00  0.45593999997E+02  0.45594000000E+02  0.51100000000E-03 0.  1.
         11   -1    0    0    0    0 -0.00000000000E+00 -0.00000000000E+00 -0.45593999997E+02  0.45594000000E+02  0.51100000000E-03 0. -1.
    9900012    2    1    2    0    0  0.32097243929E+02  0.16630671126E+02 -0.26875661898E+02  0.46142317716E+02  0.99999995882E+01 0.  0.
        -12    1    1    2    0    0 -0.32097243929E+02 -0.16630671126E+02  0.26875661898E+02  0.45045682284E+02  0.00000000000E+00 0.  1.
         11    1    3    3    0    0  0.24299807058E+02  0.12858230177E+02 -0.18161874768E+02  0.32949482570E+02  0.51100000000E-03 0.  1.
        -11    1    3    3    0    0  0.27006188119E+01  0.39181981246E+01 -0.48558944034E+01  0.67989211812E+01  0.51100000000E-03 0. -1.
        -12    1    3    3    0    0  0.50968180598E+01 -0.14575717526E+00 -0.38578927272E+01  0.63939139643E+01  0.00000000000E+00 0.  1.
</event>
<event>
 7    1  0.3919732E-008  0.4614232E+02  0.7816164E-02  0.1320468E+00
        -11   -1    0    0    0    0  0.00000000000E+00  0.00000000000E+00  0.45593999997E+02  0.45594000000E+02  0.51100000000E-03 0. -1.
         11   -1    0    0    0    0 -0.00000000000E+00 -0.00000000000E+00 -0.45593999997E+02  0.45594000000E+02  0.51100000000E-03 0.  1.
    9900012    2    1    2    0    0  0.25063394439E+02 -0.19351494171E+02 -0.32038405234E+02  0.46142317883E+02  0.10000001108E+02 0.  0.
        -12    1    1    2    0    0 -0.25063394439E+02  0.19351494171E+02  0.32038405234E+02  0.45045682117E+02  0.00000000000E+00 0.  1.
         11    1    3    3    0    0  0.15090169976E+01 -0.12289580947E+01 -0.52848463460E+01  0.56317911414E+01  0.51100000000E-03 0.  1.
        -11    1    3    3    0    0  0.21273777422E+01 -0.46290155317E+01 -0.42585617268E+01  0.66399449616E+01  0.51100000000E-03 0. -1.
         12    1    3    3    0    0  0.21426999700E+02 -0.13493520545E+02 -0.22494997161E+02  0.33870581780E+02  0.00000000000E+00 0. -1.
</event>
<event>
 7    1  0.3919732E-008  0.4614232E+02  0.7816164E-02  0.1320468E+00
        -11   -1    0    0    0    0  0.00000000000E+00  0.00000000000E+00  0.45593999997E+02  0.45594000000E+02  0.51100000000E-03 0. -1.
         11   -1    0    0    0    0 -0.00000000000E+00 -0.00000000000E+00 -0.45593999997E+02  0.45594000000E+02  0.51100000000E-03 0.  1.
    9900012    2    1    2    0    0 -0.19405358362E+02 -0.35726335301E+02 -0.19395218499E+02  0.46142317989E+02  0.10000002076E+02 0.  0.
        -12    1    1    2    0    0  0.19405358362E+02  0.35726335301E+02  0.19395218499E+02  0.45045682011E+02  0.00000000000E+00 0.  1.
         11    1    3    3    0    0 -0.57891548035E+01 -0.13837848970E+02 -0.28948253864E+01  0.15276792587E+02  0.51100000000E-03 0. -1.
        -11    1    3    3    0    0 -0.38286679888E+01 -0.37155288029E+01 -0.22900500709E+01  0.58058748214E+01  0.51100000000E-03 0.  1.
        -12    1    3    3    0    0 -0.97875355695E+01 -0.18172957528E+02 -0.14210343042E+02  0.25059650581E+02  0.00000000000E+00 0.  1.
</event>
<event>
 7    1  0.3919732E-008  0.4614232E+02  0.7816164E-02  0.1320468E+00
        -11   -1    0    0    0    0  0.00000000000E+00  0.00000000000E+00  0.45593999997E+02  0.45594000000E+02  0.51100000000E-03 0.  1.
         11   -1    0    0    0    0 -0.00000000000E+00 -0.00000000000E+00 -0.45593999997E+02  0.45594000000E+02  0.51100000000E-03 0. -1.
    9900012    2    1    2    0    0 -0.22965978594E+02  0.38272675903E+02 -0.60728543657E+01  0.46142318146E+02  0.10000003507E+02 0.  0.
        -12    1    1    2    0    0  0.22965978594E+02 -0.38272675903E+02  0.60728543657E+01  0.45045681854E+02  0.00000000000E+00 0.  1.
         11    1    3    3    0    0 -0.87076436669E+01  0.18447607762E+02 -0.36923991852E+01  0.20730921406E+02  0.51100000000E-03 0. -1.
        -11    1    3    3    0    0 -0.99077398621E+01  0.11174281860E+02  0.14365850176E+01  0.15003055057E+02  0.51100000000E-03 0.  1.
         12    1    3    3    0    0 -0.43505950654E+01  0.86507862809E+01 -0.38170401982E+01  0.10408341682E+02  0.00000000000E+00 0. -1.
</event>
<event>
 7    1  0.3919732E-008  0.4614232E+02  0.7816164E-02  0.1320468E+00
        -11   -1    0    0    0    0  0.00000000000E+00  0.00000000000E+00  0.45593999997E+02  0.45594000000E+02  0.51100000000E-03 0.  1.
         11   -1    0    0    0    0 -0.00000000000E+00 -0.00000000000E+00 -0.45593999997E+02  0.45594000000E+02  0.51100000000E-03 0. -1.
    9900012    2    1    2    0    0 -0.16118693443E+02 -0.40218180881E+02 -0.12320675269E+02  0.46142318845E+02  0.10000009883E+02 0.  0.
        -12    1    1    2    0    0  0.16118693443E+02  0.40218180881E+02  0.12320675269E+02  0.45045681155E+02  0.00000000000E+00 0.  1.
         11    1    3    3    0    0 -0.57570712571E+01 -0.14117002193E+02 -0.30389156418E+01  0.15545694867E+02  0.51100000000E-03 0. -1.
        -11    1    3    3    0    0 -0.94869546421E+01 -0.26528724594E+02 -0.90920321077E+01  0.29604739234E+02  0.51100000000E-03 0.  1.
        -12    1    3    3    0    0 -0.87466754352E+00  0.42754590648E+00 -0.18972751916E+00  0.99188474399E+00  0.00000000000E+00 0.  1.
</event>
<event>
 7    1  0.3919732E-008  0.4614232E+02  0.7816164E-02  0.1320468E+00
        -11   -1    0    0    0    0  0.00000000000E+00  0.00000000000E+00  0.45593999997E+02  0.45594000000E+02  0.51100000000E-03 0. -1.
         11   -1    0    0    0    0 -0.00000000000E+00 -0.00000000000E+00 -0.45593999997E+02  0.45594000000E+02  0.51100000000E-03 0.  1.
    9900012    2    1    2    0    0  0.19832075585E+02  0.28438070366E+02  0.28758966302E+02  0.46142320841E+02  0.10000028084E+02 0.  0.
        -12    1    1    2    0    0 -0.19832075585E+02 -0.28438070366E+02 -0.28758966302E+02  0.45045679159E+02  0.00000000000E+00 0.  1.
         11    1    3    3    0    0  0.77102434199E+01  0.13004409691E+02  0.10605801512E+02  0.18467418633E+02  0.51100000000E-03 0. -1.
        -11    1    3    3    0    0  0.46290374863E+01  0.10410332505E+02  0.71677783888E+01  0.13460314194E+02  0.51100000000E-03 0.  1.
         12    1    3    3    0    0  0.74927946787E+01  0.50233281699E+01  0.10985386402E+02  0.14214588013E+02  0.00000000000E+00 0. -1.
</event>
<event>
 7    1  0.3919732E-008  0.4614232E+02  0.7816164E-02  0.1320468E+00
        -11   -1    0    0    0    0  0.00000000000E+00  0.00000000000E+00  0.45593999997E+02  0.45594000000E+02  0.51100000000E-03 0.  1.
         11   -1    0    0    0    0 -0.00000000000E+00 -0.00000000000E+00 -0.45593999997E+02  0.45594000000E+02  0.51100000000E-03 0. -1.
    9900012    2    1    2    0    0 -0.27992194144E+02 -0.24349970200E+02 -0.25546615115E+02  0.46142317348E+02  0.99999962356E+01 0.  0.
        -12    1    1    2    0    0  0.27992194144E+02  0.24349970200E+02  0.25546615115E+02  0.45045682652E+02  0.00000000000E+00 0.  1.
         11    1    3    3    0    0 -0.69434066691E+01 -0.48314052552E+01 -0.93525477214E+01  0.12610452889E+02  0.51100000000E-03 0. -1.
        -11    1    3    3    0    0 -0.25908276221E+01 -0.79439631483E+00 -0.11441953411E+00  0.27122952206E+01  0.51100000000E-03 0.  1.
         12    1    3    3    0    0 -0.18457959853E+02 -0.18724168630E+02 -0.16079647859E+02  0.30819569239E+02  0.00000000000E+00 0. -1.
</event>
<event>
 7    1  0.3919732E-008  0.4614232E+02  0.7816164E-02  0.1320468E+00
        -11   -1    0    0    0    0  0.00000000000E+00  0.00000000000E+00  0.45593999997E+02  0.45594000000E+02  0.51100000000E-03 0.  1.
         11   -1    0    0    0    0 -0.00000000000E+00 -0.00000000000E+00 -0.45593999997E+02  0.45594000000E+02  0.51100000000E-03 0. -1.
    9900012    2    1    2    0    0  0.18429078235E+01 -0.39706479080E+02 -0.21192283441E+02  0.46142315772E+02  0.99999818599E+01 0.  0.
        -12    1    1    2    0    0 -0.18429078235E+01  0.39706479080E+02  0.21192283441E+02  0.45045684228E+02  0.00000000000E+00 0.  1.
         11    1    3    3    0    0 -0.14940534743E+01 -0.10847764184E+02 -0.79832108710E+01  0.13551303984E+02  0.51100000000E-03 0. -1.
        -11    1    3    3    0    0  0.21020515950E+01 -0.20782869096E+01 -0.88911709156E+00  0.30868150010E+01  0.51100000000E-03 0.  1.
         12    1    3    3    0    0  0.12349097028E+01 -0.26780427986E+02 -0.12319955478E+02  0.29504196787E+02  0.00000000000E+00 0. -1.
</event>
<event>
 7    1  0.3919732E-008  0.4614232E+02  0.7816164E-02  0.1320468E+00
        -11   -1    0    0    0    0  0.00000000000E+00  0.00000000000E+00  0.45593999997E+02  0.45594000000E+02  0.51100000000E-03 0. -1.
         11   -1    0    0    0    0 -0.00000000000E+00 -0.00000000000E+00 -0.45593999997E+02  0.45594000000E+02  0.51100000000E-03 0.  1.
    9900012    2    1    2    0    0  0.37252952824E+01  0.44319326292E+02  0.71437250676E+01  0.46142319677E+02  0.10000017473E+02 0.  0.
        -12    1    1    2    0    0 -0.37252952824E+01 -0.44319326292E+02 -0.71437250676E+01  0.45045680323E+02  0.00000000000E+00 0.  1.
         11    1    3    3    0    0 -0.28286264423E+00  0.15983492410E+02 -0.14183794073E+01  0.16048795634E+02  0.51100000000E-03 0. -1.
        -11    1    3    3    0    0  0.90492298073E+00  0.45084283634E+01  0.27996856565E+01  0.53835909898E+01  0.51100000000E-03 0.  1.
         12    1    3    3    0    0  0.31032349459E+01  0.23827405518E+02  0.57624188184E+01  0.24709933053E+02  0.00000000000E+00 0. -1.
</event>
<event>
 7    1  0.3919732E-008  0.4614232E+02  0.7816164E-02  0.1320468E+00
        -11   -1    0    0    0    0  0.00000000000E+00  0.00000000000E+00  0.45593999997E+02  0.45594000000E+02  0.51100000000E-03 0.  1.
         11   -1    0    0    0    0 -0.00000000000E+00 -0.00000000000E+00 -0.45593999997E+02  0.45594000000E+02  0.51100000000E-03 0. -1.
    9900012    2    1    2    0    0  0.22946716642E+02  0.30094550751E+02 -0.24431123451E+02  0.46142316715E+02  0.99999904602E+01 0.  0.
        -12    1    1    2    0    0 -0.22946716642E+02 -0.30094550751E+02  0.24431123451E+02  0.45045683285E+02  0.00000000000E+00 0.  1.
         11    1    3    3    0    0  0.12167021723E+02  0.16170472900E+02 -0.94660018932E+01  0.22341123596E+02  0.51100000000E-03 0. -1.
        -11    1    3    3    0    0  0.11078772075E+02  0.13114562076E+02 -0.12634015964E+02  0.21315470644E+02  0.51100000000E-03 0.  1.
        -12    1    3    3    0    0 -0.29907715659E+00  0.80951577559E+00 -0.23311055931E+01  0.24857224750E+01  0.00000000000E+00 0.  1.
</event>
<event>
 7    1  0.3919732E-008  0.4614232E+02  0.7816164E-02  0.1320468E+00
        -11   -1    0    0    0    0  0.00000000000E+00  0.00000000000E+00  0.45593999997E+02  0.45594000000E+02  0.51100000000E-03 0.  1.
         11   -1    0    0    0    0 -0.00000000000E+00 -0.00000000000E+00 -0.45593999997E+02  0.45594000000E+02  0.51100000000E-03 0. -1.
    9900012    2    1    2    0    0  0.34661441020E+02 -0.18541638205E+02  0.21997855545E+02  0.46142317749E+02  0.99999998854E+01 0.  0.
        -12    1    1    2    0    0 -0.34661441020E+02  0.18541638205E+02 -0.21997855545E+02  0.45045682251E+02  0.00000000000E+00 0.  1.
         11    1    3    3    0    0  0.95956236119E+01 -0.79268184048E+01  0.77653584486E+01  0.14670079571E+02  0.51100000000E-03 0. -1.
        -11    1    3    3    0    0  0.11769829772E+02 -0.70637542272E+01  0.39213934315E+01  0.14275953326E+02  0.51100000000E-03 0.  1.
         12    1    3    3    0    0  0.13295987636E+02 -0.35510655734E+01  0.10311103665E+02  0.17196284852E+02  0.00000000000E+00 0. -1.
</event>
<event>
 7    1  0.3919732E-008  0.4614232E+02  0.7816164E-02  0.1320468E+00
        -11   -1    0    0    0    0  0.00000000000E+00  0.00000000000E+00  0.45593999997E+02  0.45594000000E+02  0.51100000000E-03 0.  1.
         11   -1    0    0    0    0 -0.00000000000E+00 -0.00000000000E+00 -0.45593999997E+02  0.45594000000E+02  0.51100000000E-03 0. -1.
    9900012    2    1    2    0    0 -0.35465925694E+02  0.27618354340E+02 -0.29168810290E+01  0.46142316781E+02  0.99999910631E+01 0.  0.
        -12    1    1    2    0    0  0.35465925694E+02 -0.27618354340E+02  0.29168810290E+01  0.45045683219E+02  0.00000000000E+00 0.  1.
         11    1    3    3    0    0 -0.17499552066E+02  0.15414346120E+02 -0.98406647606E+00  0.23341053445E+02  0.51100000000E-03 0. -1.
        -11    1    3    3    0    0 -0.94399065750E+00  0.23111810297E+01  0.13546471725E+01  0.28403776750E+01  0.51100000000E-03 0.  1.
        -12    1    3    3    0    0 -0.17022382970E+02  0.98928271896E+01 -0.32874617255E+01  0.19960885661E+02  0.00000000000E+00 0.  1.
</event>
<event>
 7    1  0.3919732E-008  0.4614232E+02  0.7816164E-02  0.1320468E+00
        -11   -1    0    0    0    0  0.00000000000E+00  0.00000000000E+00  0.45593999997E+02  0.45594000000E+02  0.51100000000E-03 0.  1.
         11   -1    0    0    0    0 -0.00000000000E+00 -0.00000000000E+00 -0.45593999997E+02  0.45594000000E+02  0.51100000000E-03 0. -1.
    9900012    2    1    2    0    0 -0.15976451963E+02 -0.41899932846E+02  0.42734180901E+01  0.46142317721E+02  0.99999996319E+01 0.  0.
        -12    1    1    2    0    0  0.15976451963E+02  0.41899932846E+02 -0.42734180901E+01  0.45045682279E+02  0.00000000000E+00 0.  1.
         11    1    3    3    0    0 -0.90479003004E+01 -0.18317921648E+02 -0.75197693217E+00  0.20444466805E+02  0.51100000000E-03 0. -1.
        -11    1    3    3    0    0 -0.44791606097E+01 -0.20293098204E+02  0.26263086293E+01  0.20946842525E+02  0.51100000000E-03 0.  1.
        -12    1    3    3    0    0 -0.24493910532E+01 -0.32889129933E+01  0.23990863930E+01  0.47510083908E+01  0.00000000000E+00 0.  1.
</event>
<event>
 7    1  0.3919732E-008  0.4614232E+02  0.7816164E-02  0.1320468E+00
        -11   -1    0    0    0    0  0.00000000000E+00  0.00000000000E+00  0.45593999997E+02  0.45594000000E+02  0.51100000000E-03 0.  1.
         11   -1    0    0    0    0 -0.00000000000E+00 -0.00000000000E+00 -0.45593999997E+02  0.45594000000E+02  0.51100000000E-03 0. -1.
    9900012    2    1    2    0    0  0.11227801024E+02  0.82230800407E+00 -0.43616208109E+02  0.46142319674E+02  0.10000017439E+02 0.  0.
        -12    1    1    2    0    0 -0.11227801024E+02 -0.82230800407E+00  0.43616208109E+02  0.45045680326E+02  0.00000000000E+00 0.  1.
         11    1    3    3    0    0  0.18315516005E+01 -0.20794821515E+01 -0.53422381735E+01  0.60181671834E+01  0.51100000000E-03 0. -1.
        -11    1    3    3    0    0  0.63360600740E+01  0.58992171946E+00 -0.12105668514E+02  0.13676288799E+02  0.51100000000E-03 0.  1.
        -12    1    3    3    0    0  0.30601893499E+01  0.23118684361E+01 -0.26168301422E+02  0.26447863691E+02  0.00000000000E+00 0.  1.
</event>
<event>
 7    1  0.3919732E-008  0.4614232E+02  0.7816164E-02  0.1320468E+00
        -11   -1    0    0    0    0  0.00000000000E+00  0.00000000000E+00  0.45593999997E+02  0.45594000000E+02  0.51100000000E-03 0.  1.
         11   -1    0    0    0    0 -0.00000000000E+00 -0.00000000000E+00 -0.45593999997E+02  0.45594000000E+02  0.51100000000E-03 0. -1.
    9900012    2    1    2    0    0  0.11355152325E+02  0.24851072326E+02 -0.35813380112E+02  0.46142317908E+02  0.10000001343E+02 0.  0.
        -12    1    1    2    0    0 -0.11355152325E+02 -0.24851072326E+02  0.35813380112E+02  0.45045682092E+02  0.00000000000E+00 0.  1.
         11    1    3    3    0    0  0.10987509225E+01  0.13687522594E+02 -0.17190720625E+02  0.22001736391E+02  0.51100000000E-03 0.  1.
        -11    1    3    3    0    0  0.15058333483E+00  0.38242706483E+00 -0.13411319027E+01  0.14026977016E+01  0.51100000000E-03 0. -1.
         12    1    3    3    0    0  0.10105818068E+02  0.10781122667E+02 -0.17281527584E+02  0.22737883816E+02  0.00000000000E+00 0. -1.
</event>
<event>
 7    1  0.3919732E-008  0.4614232E+02  0.7816164E-02  0.1320468E+00
        -11   -1    0    0    0    0  0.00000000000E+00  0.00000000000E+00  0.45593999997E+02  0.45594000000E+02  0.51100000000E-03 0.  1.
         11   -1    0    0    0    0 -0.00000000000E+00 -0.00000000000E+00 -0.45593999997E+02  0.45594000000E+02  0.51100000000E-03 0. -1.
    9900012    2    1    2    0    0  0.24195863565E+02 -0.34985459986E+02  0.14821986498E+02  0.46142317545E+02  0.99999980279E+01 0.  0.
        -12    1    1    2    0    0 -0.24195863565E+02  0.34985459986E+02 -0.14821986498E+02  0.45045682455E+02  0.00000000000E+00 0.  1.
         11    1    3    3    0    0  0.65831476127E+01 -0.50555856093E+01  0.30783818688E+01  0.88528647078E+01  0.51100000000E-03 0. -1.
        -11    1    3    3    0    0  0.70863700780E+01 -0.16379583948E+02  0.87327868668E+01  0.19868794073E+02  0.51100000000E-03 0.  1.
        -12    1    3    3    0    0  0.10526345875E+02 -0.13550290428E+02  0.30108177624E+01  0.17420658764E+02  0.00000000000E+00 0.  1.
</event>
<event>
 7    1  0.3919732E-008  0.4614232E+02  0.7816164E-02  0.1320468E+00
        -11   -1    0    0    0    0  0.00000000000E+00  0.00000000000E+00  0.45593999997E+02  0.45594000000E+02  0.51100000000E-03 0. -1.
         11   -1    0    0    0    0 -0.00000000000E+00 -0.00000000000E+00 -0.45593999997E+02  0.45594000000E+02  0.51100000000E-03 0.  1.
    9900012    2    1    2    0    0  0.31713244117E+02  0.40855516360E+01  0.31728409905E+02  0.46142316747E+02  0.99999907556E+01 0.  0.
        -12    1    1    2    0    0 -0.31713244117E+02 -0.40855516360E+01 -0.31728409905E+02  0.45045683253E+02  0.00000000000E+00 0.  1.
         11    1    3    3    0    0  0.31814460977E+02  0.47125462804E+01  0.28951865389E+02  0.43273300422E+02  0.51100000000E-03 0. -1.
        -11    1    3    3    0    0  0.43163186159E-01 -0.39129229379E+00  0.21267287434E+01  0.21628564744E+01  0.51100000000E-03 0.  1.
         12    1    3    3    0    0 -0.14438004601E+00 -0.23570235069E+00  0.64981577296E+00  0.70615985060E+00  0.00000000000E+00 0. -1.
</event>
<event>
 7    1  0.3919732E-008  0.4614233E+02  0.7816164E-02  0.1320468E+00
        -11   -1    0    0    0    0  0.00000000000E+00  0.00000000000E+00  0.45593999997E+02  0.45594000000E+02  0.51100000000E-03 0.  1.
         11   -1    0    0    0    0 -0.00000000000E+00 -0.00000000000E+00 -0.45593999997E+02  0.45594000000E+02  0.51100000000E-03 0. -1.
    9900012    2    1    2    0    0 -0.33196883885E+02 -0.21464049875E+02  0.21595699926E+02  0.46142325490E+02  0.10000070482E+02 0.  0.
        -12    1    1    2    0    0  0.33196883885E+02  0.21464049875E+02 -0.21595699926E+02  0.45045674510E+02  0.00000000000E+00 0.  1.
         11    1    3    3    0    0 -0.37866788390E+01 -0.21575478755E+01  0.46505604164E+01  0.63735125255E+01  0.51100000000E-03 0.  1.
        -11    1    3    3    0    0 -0.15692718279E+02 -0.14419055216E+02  0.85689199778E+01  0.22969478665E+02  0.51100000000E-03 0. -1.
        -12    1    3    3    0    0 -0.13717486767E+02 -0.48874467840E+01  0.83762195315E+01  0.16799334300E+02  0.00000000000E+00 0.  1.
</event>
<event>
 7    1  0.3919732E-008  0.4614231E+02  0.7816164E-02  0.1320468E+00
        -11   -1    0    0    0    0  0.00000000000E+00  0.00000000000E+00  0.45593999997E+02  0.45594000000E+02  0.51100000000E-03 0. -1.
         11   -1    0    0    0    0 -0.00000000000E+00 -0.00000000000E+00 -0.45593999997E+02  0.45594000000E+02  0.51100000000E-03 0.  1.
    9900012    2    1    2    0    0 -0.12199932874E+02 -0.29566563421E+02  0.31718987553E+02  0.46142309795E+02  0.99999273567E+01 0.  0.
        -12    1    1    2    0    0  0.12199932874E+02  0.29566563421E+02 -0.31718987553E+02  0.45045690205E+02  0.00000000000E+00 0.  1.
         11    1    3    3    0    0 -0.62242420165E+01 -0.19115722122E+02  0.16955050086E+02  0.26298778386E+02  0.51100000000E-03 0. -1.
        -11    1    3    3    0    0 -0.18837683604E+01 -0.59590640943E+01  0.11127117427E+02  0.12762122496E+02  0.51100000000E-03 0.  1.
         12    1    3    3    0    0 -0.40919224971E+01 -0.44917772055E+01  0.36368200402E+01  0.70814089129E+01  0.00000000000E+00 0. -1.
</event>
<event>
 7    1  0.3919732E-008  0.4614231E+02  0.7816164E-02  0.1320468E+00
        -11   -1    0    0    0    0  0.00000000000E+00  0.00000000000E+00  0.45593999997E+02  0.45594000000E+02  0.51100000000E-03 0.  1.
         11   -1    0    0    0    0 -0.00000000000E+00 -0.00000000000E+00 -0.45593999997E+02  0.45594000000E+02  0.51100000000E-03 0. -1.
    9900012    2    1    2    0    0  0.20661285144E+02  0.14058454037E+02 -0.37477792307E+02  0.46142314858E+02  0.99999735243E+01 0.  0.
        -12    1    1    2    0    0 -0.20661285144E+02 -0.14058454037E+02  0.37477792307E+02  0.45045685142E+02  0.00000000000E+00 0.  1.
         11    1    3    3    0    0  0.58743637884E+01  0.14794651206E+01 -0.11924391856E+02  0.13374905172E+02  0.51100000000E-03 0. -1.
        -11    1    3    3    0    0  0.14631729290E+02  0.10164357182E+02 -0.20467120607E+02  0.27134934773E+02  0.51100000000E-03 0.  1.
         12    1    3    3    0    0  0.15519206612E+00  0.24146317344E+01 -0.50862798444E+01  0.56324749130E+01  0.00000000000E+00 0. -1.
</event>
<event>
 7    1  0.3919732E-008  0.4614232E+02  0.7816164E-02  0.1320468E+00
        -11   -1    0    0    0    0  0.00000000000E+00  0.00000000000E+00  0.45593999997E+02  0.45594000000E+02  0.51100000000E-03 0. -1.
         11   -1    0    0    0    0 -0.00000000000E+00 -0.00000000000E+00 -0.45593999997E+02  0.45594000000E+02  0.51100000000E-03 0.  1.
    9900012    2    1    2    0    0 -0.48433472416E+01  0.56331283520E+01  0.44428859061E+02  0.46142315800E+02  0.99999821205E+01 0.  0.
        -12    1    1    2    0    0  0.48433472416E+01 -0.56331283520E+01 -0.44428859061E+02  0.45045684200E+02  0.00000000000E+00 0.  1.
         11    1    3    3    0    0 -0.24457517111E+00 -0.93732709748E+00  0.11248452009E+02  0.11290087332E+02  0.51100000000E-03 0. -1.
        -11    1    3    3    0    0  0.65213032891E+00  0.51846667628E+00  0.14526079187E+02  0.14549950463E+02  0.51100000000E-03 0.  1.
         12    1    3    3    0    0 -0.52509023994E+01  0.60519887732E+01  0.18654327865E+02  0.20302278005E+02  0.00000000000E+00 0. -1.
</event>
<event>
 7    1  0.3919732E-008  0.4614232E+02  0.7816164E-02  0.1320468E+00
        -11   -1    0    0    0    0  0.00000000000E+00  0.00000000000E+00  0.45593999997E+02  0.45594000000E+02  0.51100000000E-03 0. -1.
         11   -1    0    0    0    0 -0.00000000000E+00 -0.00000000000E+00 -0.45593999997E+02  0.45594000000E+02  0.51100000000E-03 0.  1.
    9900012    2    1    2    0    0  0.83284461870E+01 -0.35230071936E+02 -0.26806575884E+02  0.46142317686E+02  0.99999993151E+01 0.  0.
        -12    1    1    2    0    0 -0.83284461870E+01  0.35230071936E+02  0.26806575884E+02  0.45045682314E+02  0.00000000000E+00 0.  1.
         11    1    3    3    0    0  0.15756136845E+01 -0.92599000045E+01 -0.25307212152E+01  0.97279420592E+01  0.51100000000E-03 0. -1.
        -11    1    3    3    0    0  0.21700630345E+00 -0.65272971913E+01 -0.72408771331E+01  0.97510513421E+01  0.51100000000E-03 0.  1.
         12    1    3    3    0    0  0.65358261990E+01 -0.19442874740E+02 -0.17034977536E+02  0.26663324285E+02  0.00000000000E+00 0. -1.
</event>
<event>
 7    1  0.3919732E-008  0.4614232E+02  0.7816164E-02  0.1320468E+00
        -11   -1    0    0    0    0  0.00000000000E+00  0.00000000000E+00  0.45593999997E+02  0.45594000000E+02  0.51100000000E-03 0.  1.
         11   -1    0    0    0    0 -0.00000000000E+00 -0.00000000000E+00 -0.45593999997E+02  0.45594000000E+02  0.51100000000E-03 0. -1.
    9900012    2    1    2    0    0  0.10137414039E+02 -0.41880469759E+02 -0.13129075512E+02  0.46142317250E+02  0.99999953358E+01 0.  0.
        -12    1    1    2    0    0 -0.10137414039E+02  0.41880469759E+02  0.13129075512E+02  0.45045682750E+02  0.00000000000E+00 0.  1.
         11    1    3    3    0    0  0.50207785937E+01 -0.24691219980E+02 -0.34277671764E+01  0.25428608885E+02  0.51100000000E-03 0. -1.
        -11    1    3    3    0    0  0.37848738060E+01 -0.15576154667E+02 -0.75686882368E+01  0.17726446509E+02  0.51100000000E-03 0.  1.
        -12    1    3    3    0    0  0.13317616394E+01 -0.16130951121E+01 -0.21326200992E+01  0.29872618553E+01  0.00000000000E+00 0.  1.
</event>
<event>
 7    1  0.3919732E-008  0.4614232E+02  0.7816164E-02  0.1320468E+00
        -11   -1    0    0    0    0  0.00000000000E+00  0.00000000000E+00  0.45593999997E+02  0.45594000000E+02  0.51100000000E-03 0.  1.
         11   -1    0    0    0    0 -0.00000000000E+00 -0.00000000000E+00 -0.45593999997E+02  0.45594000000E+02  0.51100000000E-03 0. -1.
    9900012    2    1    2    0    0  0.14877681022E+02  0.33419798639E+02 -0.26284695083E+02  0.46142317307E+02  0.99999958635E+01 0.  0.
        -12    1    1    2    0    0 -0.14877681022E+02 -0.33419798639E+02  0.26284695083E+02  0.45045682693E+02  0.00000000000E+00 0.  1.
         11    1    3    3    0    0  0.43185559903E+01  0.11213764515E+02 -0.43912565253E+01  0.12793810010E+02  0.51100000000E-03 0.  1.
        -11    1    3    3    0    0  0.95300879757E+01  0.14692107233E+02 -0.14206832927E+02  0.22550270372E+02  0.51100000000E-03 0. -1.
        -12    1    3    3    0    0  0.10290370556E+01  0.75139268909E+01 -0.76866056307E+01  0.10798236926E+02  0.00000000000E+00 0.  1.
</event>
<event>
 7    1  0.3919732E-008  0.4614232E+02  0.7816164E-02  0.1320468E+00
        -11   -1    0    0    0    0  0.00000000000E+00  0.00000000000E+00  0.45593999997E+02  0.45594000000E+02  0.51100000000E-03 0.  1.
         11   -1    0    0    0    0 -0.00000000000E+00 -0.00000000000E+00 -0.45593999997E+02  0.45594000000E+02  0.51100000000E-03 0. -1.
    9900012    2    1    2    0    0  0.16213840061E+02  0.21293884788E+02 -0.36232517324E+02  0.46142318182E+02  0.10000003836E+02 0.  0.
        -12    1    1    2    0    0 -0.16213840061E+02 -0.21293884788E+02  0.36232517324E+02  0.45045681818E+02  0.00000000000E+00 0.  1.
         11    1    3    3    0    0  0.69852348928E+01  0.14855011106E+02 -0.22650498245E+02  0.27973378997E+02  0.51100000000E-03 0. -1.
        -11    1    3    3    0    0  0.14429006375E+01  0.83721287748E+00 -0.50969281383E+01  0.53629809211E+01  0.51100000000E-03 0.  1.
        -12    1    3    3    0    0  0.77857045303E+01  0.56016608042E+01 -0.84850909399E+01  0.12805958264E+02  0.00000000000E+00 0.  1.
</event>
<event>
 7    1  0.3919732E-008  0.4614232E+02  0.7816164E-02  0.1320468E+00
        -11   -1    0    0    0    0  0.00000000000E+00  0.00000000000E+00  0.45593999997E+02  0.45594000000E+02  0.51100000000E-03 0.  1.
         11   -1    0    0    0    0 -0.00000000000E+00 -0.00000000000E+00 -0.45593999997E+02  0.45594000000E+02  0.51100000000E-03 0. -1.
    9900012    2    1    2    0    0 -0.37701922364E+02 -0.19530577984E+02 -0.15041118662E+02  0.46142315668E+02  0.99999809143E+01 0.  0.
        -12    1    1    2    0    0  0.37701922364E+02  0.19530577984E+02  0.15041118662E+02  0.45045684332E+02  0.00000000000E+00 0.  1.
         11    1    3    3    0    0 -0.16266207323E+02 -0.10207138386E+02 -0.55379526594E+01  0.19986097534E+02  0.51100000000E-03 0. -1.
        -11    1    3    3    0    0 -0.95908452821E+01 -0.72550178229E+01 -0.26431237909E+01  0.12312826665E+02  0.51100000000E-03 0.  1.
        -12    1    3    3    0    0 -0.11844869759E+02 -0.20684217752E+01 -0.68600422121E+01  0.13843391470E+02  0.00000000000E+00 0.  1.
</event>
<event>
 7    1  0.3919732E-008  0.4614232E+02  0.7816164E-02  0.1320468E+00
        -11   -1    0    0    0    0  0.00000000000E+00  0.00000000000E+00  0.45593999997E+02  0.45594000000E+02  0.51100000000E-03 0.  1.
         11   -1    0    0    0    0 -0.00000000000E+00 -0.00000000000E+00 -0.45593999997E+02  0.45594000000E+02  0.51100000000E-03 0. -1.
    9900012    2    1    2    0    0 -0.18199643856E+02 -0.29519349479E+02 -0.28748816135E+02  0.46142318084E+02  0.10000002945E+02 0.  0.
        -12    1    1    2    0    0  0.18199643856E+02  0.29519349479E+02  0.28748816135E+02  0.45045681916E+02  0.00000000000E+00 0.  1.
         11    1    3    3    0    0 -0.39724446747E+01 -0.38709237393E+01 -0.39692084163E+01  0.68204826076E+01  0.51100000000E-03 0. -1.
        -11    1    3    3    0    0 -0.14635820398E+01 -0.79291937660E+01 -0.33671916902E+01  0.87379726657E+01  0.51100000000E-03 0.  1.
         12    1    3    3    0    0 -0.12763617141E+02 -0.17719231974E+02 -0.21412416028E+02  0.30583862811E+02  0.00000000000E+00 0. -1.
</event>
<event>
 7    1  0.3919732E-008  0.4614232E+02  0.7816164E-02  0.1320468E+00
        -11   -1    0    0    0    0  0.00000000000E+00  0.00000000000E+00  0.45593999997E+02  0.45594000000E+02  0.51100000000E-03 0. -1.
         11   -1    0    0    0    0 -0.00000000000E+00 -0.00000000000E+00 -0.45593999997E+02  0.45594000000E+02  0.51100000000E-03 0.  1.
    9900012    2    1    2    0    0  0.60406673365E+00 -0.44956598088E+02  0.27664187204E+01  0.46142315625E+02  0.99999805256E+01 0.  0.
        -12    1    1    2    0    0 -0.60406673365E+00  0.44956598088E+02 -0.27664187204E+01  0.45045684375E+02  0.00000000000E+00 0.  1.
         11    1    3    3    0    0  0.11346653712E+01 -0.12366628374E+02  0.73277354568E+00  0.12440173639E+02  0.51100000000E-03 0. -1.
        -11    1    3    3    0    0  0.45173513894E+00 -0.58756308746E+01 -0.28195766807E+01  0.65327724383E+01  0.51100000000E-03 0.  1.
        -12    1    3    3    0    0 -0.98233377652E+00 -0.26714338839E+02  0.48532218554E+01  0.27169369548E+02  0.00000000000E+00 0.  1.
</event>
<event>
 7    1  0.3919732E-008  0.4614232E+02  0.7816164E-02  0.1320468E+00
        -11   -1    0    0    0    0  0.00000000000E+00  0.00000000000E+00  0.45593999997E+02  0.45594000000E+02  0.51100000000E-03 0. -1.
         11   -1    0    0    0    0 -0.00000000000E+00 -0.00000000000E+00 -0.45593999997E+02  0.45594000000E+02  0.51100000000E-03 0.  1.
    9900012    2    1    2    0    0 -0.41230901866E+02 -0.99962586244E+01  0.15139387618E+02  0.46142317492E+02  0.99999975456E+01 0.  0.
        -12    1    1    2    0    0  0.41230901866E+02  0.99962586244E+01 -0.15139387618E+02  0.45045682508E+02  0.00000000000E+00 0.  1.
         11    1    3    3    0    0 -0.15886743703E+02 -0.51076052036E+01  0.41396848788E+01  0.17193407096E+02  0.51100000000E-03 0. -1.
        -11    1    3    3    0    0 -0.46380065305E+01 -0.23582369206E+01 -0.32440625790E+00  0.52132164383E+01  0.51100000000E-03 0.  1.
         12    1    3    3    0    0 -0.20706151633E+02 -0.25304165002E+01  0.11324108997E+02  0.23735693958E+02  0.00000000000E+00 0. -1.
</event>
<event>
 7    1  0.3919732E-008  0.4614232E+02  0.7816164E-02  0.1320468E+00
        -11   -1    0    0    0    0  0.00000000000E+00  0.00000000000E+00  0.45593999997E+02  0.45594000000E+02  0.51100000000E-03 0.  1.
         11   -1    0    0    0    0 -0.00000000000E+00 -0.00000000000E+00 -0.45593999997E+02  0.45594000000E+02  0.51100000000E-03 0. -1.
    9900012    2    1    2    0    0 -0.42612625923E+01 -0.38430016552E+02 -0.23110360927E+02  0.46142319705E+02  0.10000017726E+02 0.  0.
        -12    1    1    2    0    0  0.42612625923E+01  0.38430016552E+02  0.23110360927E+02  0.45045680295E+02  0.00000000000E+00 0.  1.
         11    1    3    3    0    0 -0.20810944791E+01 -0.10685457709E+02 -0.28535332843E+01  0.11254004316E+02  0.51100000000E-03 0. -1.
        -11    1    3    3    0    0 -0.11310328503E+01 -0.83644407311E+00 -0.51355305354E+00  0.14975349732E+01  0.51100000000E-03 0.  1.
         12    1    3    3    0    0 -0.10491352629E+01 -0.26908114770E+02 -0.19743274589E+02  0.33390780416E+02  0.00000000000E+00 0. -1.
</event>
<event>
 7    1  0.3919732E-008  0.4614232E+02  0.7816164E-02  0.1320468E+00
        -11   -1    0    0    0    0  0.00000000000E+00  0.00000000000E+00  0.45593999997E+02  0.45594000000E+02  0.51100000000E-03 0. -1.
         11   -1    0    0    0    0 -0.00000000000E+00 -0.00000000000E+00 -0.45593999997E+02  0.45594000000E+02  0.51100000000E-03 0.  1.
    9900012    2    1    2    0    0 -0.15140788263E+01  0.37962713963E+02  0.24200276081E+02  0.46142318203E+02  0.10000004030E+02 0.  0.
        -12    1    1    2    0    0  0.15140788263E+01 -0.37962713963E+02 -0.24200276081E+02  0.45045681797E+02  0.00000000000E+00 0.  1.
         11    1    3    3    0    0 -0.88423204836E+00  0.11326186769E+02  0.71754819469E+01  0.13436960760E+02  0.51100000000E-03 0. -1.
        -11    1    3    3    0    0  0.22431105245E+01  0.20997726011E+02  0.10384564291E+02  0.23532429076E+02  0.51100000000E-03 0.  1.
         12    1    3    3    0    0 -0.28729573025E+01  0.56388011837E+01  0.66402298431E+01  0.91729283667E+01  0.00000000000E+00 0. -1.
</event>
<event>
 7    1  0.3919732E-008  0.4614232E+02  0.7816164E-02  0.1320468E+00
        -11   -1    0    0    0    0  0.00000000000E+00  0.00000000000E+00  0.45593999997E+02  0.45594000000E+02  0.51100000000E-03 0. -1.
         11   -1    0    0    0    0 -0.00000000000E+00 -0.00000000000E+00 -0.45593999997E+02  0.45594000000E+02  0.51100000000E-03 0.  1.
    9900012    2    1    2    0    0 -0.20017285907E+02  0.37650516315E+02  0.14521029516E+02  0.46142318608E+02  0.10000007724E+02 0.  0.
        -12    1    1    2    0    0  0.20017285907E+02 -0.37650516315E+02 -0.14521029516E+02  0.45045681392E+02  0.00000000000E+00 0.  1.
         11    1    3    3    0    0 -0.21745302445E+01  0.10910859094E+02  0.52263166824E+01  0.12291859676E+02  0.51100000000E-03 0.  1.
        -11    1    3    3    0    0 -0.23330927323E+01  0.69517545199E+01  0.30700070372E+01  0.79495381043E+01  0.51100000000E-03 0. -1.
        -12    1    3    3    0    0 -0.15509662930E+02  0.19787902701E+02  0.62247057966E+01  0.25900920828E+02  0.00000000000E+00 0.  1.
</event>
<event>
 7    1  0.3919732E-008  0.4614232E+02  0.7816164E-02  0.1320468E+00
        -11   -1    0    0    0    0  0.00000000000E+00  0.00000000000E+00  0.45593999997E+02  0.45594000000E+02  0.51100000000E-03 0. -1.
         11   -1    0    0    0    0 -0.00000000000E+00 -0.00000000000E+00 -0.45593999997E+02  0.45594000000E+02  0.51100000000E-03 0.  1.
    9900012    2    1    2    0    0 -0.13733078629E+02  0.42493641129E+02  0.58997057280E+01  0.46142317491E+02  0.99999975345E+01 0.  0.
        -12    1    1    2    0    0  0.13733078629E+02 -0.42493641129E+02 -0.58997057280E+01  0.45045682509E+02  0.00000000000E+00 0.  1.
         11    1    3    3    0    0 -0.41573022373E+01  0.16570328672E+02  0.62049848300E+01  0.18175829863E+02  0.51100000000E-03 0. -1.
        -11    1    3    3    0    0 -0.95485723918E+00  0.22293985916E+01 -0.12636898146E+01  0.27347545843E+01  0.51100000000E-03 0.  1.
        -12    1    3    3    0    0 -0.86209191527E+01  0.23693913865E+02  0.95841071256E+00  0.25231733044E+02  0.00000000000E+00 0.  1.
</event>
<event>
 7    1  0.3919732E-008  0.4614232E+02  0.7816164E-02  0.1320468E+00
        -11   -1    0    0    0    0  0.00000000000E+00  0.00000000000E+00  0.45593999997E+02  0.45594000000E+02  0.51100000000E-03 0.  1.
         11   -1    0    0    0    0 -0.00000000000E+00 -0.00000000000E+00 -0.45593999997E+02  0.45594000000E+02  0.51100000000E-03 0. -1.
    9900012    2    1    2    0    0  0.44306969211E+01 -0.44722203614E+02  0.30670625610E+01  0.46142318253E+02  0.10000004484E+02 0.  0.
        -12    1    1    2    0    0 -0.44306969211E+01  0.44722203614E+02 -0.30670625610E+01  0.45045681747E+02  0.00000000000E+00 0.  1.
         11    1    3    3    0    0 -0.91896140018E+00 -0.93466384201E+01 -0.11076457666E+01  0.94567975137E+01  0.51100000000E-03 0. -1.
        -11    1    3    3    0    0  0.89796609054E+00 -0.94617060292E+00 -0.92198930635E+00  0.15973873831E+01  0.51100000000E-03 0.  1.
        -12    1    3    3    0    0  0.44516922307E+01 -0.34429394591E+02  0.50966976339E+01  0.35088133356E+02  0.00000000000E+00 0.  1.
</event>
<event>
 7    1  0.3919732E-008  0.4614232E+02  0.7816164E-02  0.1320468E+00
        -11   -1    0    0    0    0  0.00000000000E+00  0.00000000000E+00  0.45593999997E+02  0.45594000000E+02  0.51100000000E-03 0.  1.
         11   -1    0    0    0    0 -0.00000000000E+00 -0.00000000000E+00 -0.45593999997E+02  0.45594000000E+02  0.51100000000E-03 0. -1.
    9900012    2    1    2    0    0 -0.20063245952E+02  0.89965422747E+01 -0.39314651469E+02  0.46142318396E+02  0.10000005789E+02 0.  0.
        -12    1    1    2    0    0  0.20063245952E+02 -0.89965422747E+01  0.39314651469E+02  0.45045681604E+02  0.00000000000E+00 0.  1.
         11    1    3    3    0    0 -0.29137111549E+01  0.99877762144E+00 -0.10484254759E+02  0.10927344945E+02  0.51100000000E-03 0.  1.
        -11    1    3    3    0    0 -0.10140439332E+02  0.13658710524E+01 -0.11609678582E+02  0.15475100989E+02  0.51100000000E-03 0. -1.
         12    1    3    3    0    0 -0.70090954647E+01  0.66318936008E+01 -0.17220718129E+02  0.19739872462E+02  0.00000000000E+00 0. -1.
</event>
<event>
 7    1  0.3919732E-008  0.4614232E+02  0.7816164E-02  0.1320468E+00
        -11   -1    0    0    0    0  0.00000000000E+00  0.00000000000E+00  0.45593999997E+02  0.45594000000E+02  0.51100000000E-03 0.  1.
         11   -1    0    0    0    0 -0.00000000000E+00 -0.00000000000E+00 -0.45593999997E+02  0.45594000000E+02  0.51100000000E-03 0. -1.
    9900012    2    1    2    0    0 -0.42330831118E+02  0.10226074915E+02 -0.11517014170E+02  0.46142317779E+02  0.10000000167E+02 0.  0.
        -12    1    1    2    0    0  0.42330831118E+02 -0.10226074915E+02  0.11517014170E+02  0.45045682221E+02  0.00000000000E+00 0.  1.
         11    1    3    3    0    0 -0.19481400593E+02  0.16990521384E+01 -0.72805603712E+01  0.20866679343E+02  0.51100000000E-03 0. -1.
        -11    1    3    3    0    0 -0.36335304138E+01  0.22988190143E+01 -0.25648641367E+01  0.50065597399E+01  0.51100000000E-03 0.  1.
         12    1    3    3    0    0 -0.19215900112E+02  0.62282037628E+01 -0.16715896623E+01  0.20269078697E+02  0.00000000000E+00 0. -1.
</event>
<event>
 7    1  0.3919732E-008  0.4614232E+02  0.7816164E-02  0.1320468E+00
        -11   -1    0    0    0    0  0.00000000000E+00  0.00000000000E+00  0.45593999997E+02  0.45594000000E+02  0.51100000000E-03 0.  1.
         11   -1    0    0    0    0 -0.00000000000E+00 -0.00000000000E+00 -0.45593999997E+02  0.45594000000E+02  0.51100000000E-03 0. -1.
    9900012    2    1    2    0    0 -0.22007218078E+02 -0.12001188169E+01 -0.39285564360E+02  0.46142317635E+02  0.99999988463E+01 0.  0.
        -12    1    1    2    0    0  0.22007218078E+02  0.12001188169E+01  0.39285564360E+02  0.45045682365E+02  0.00000000000E+00 0.  1.
         11    1    3    3    0    0 -0.22186069790E+01  0.79444187075E+00 -0.23417972406E+01  0.33222536614E+01  0.51100000000E-03 0. -1.
        -11    1    3    3    0    0 -0.90145708818E+00 -0.17162635074E+01 -0.92324668097E+00  0.21472237899E+01  0.51100000000E-03 0.  1.
         12    1    3    3    0    0 -0.18887154011E+02 -0.27829718027E+00 -0.36020520438E+02  0.40672840183E+02  0.00000000000E+00 0. -1.
</event>
<event>
 7    1  0.3919732E-008  0.4614232E+02  0.7816164E-02  0.1320468E+00
        -11   -1    0    0    0    0  0.00000000000E+00  0.00000000000E+00  0.45593999997E+02  0.45594000000E+02  0.51100000000E-03 0.  1.
         11   -1    0    0    0    0 -0.00000000000E+00 -0.00000000000E+00 -0.45593999997E+02  0.45594000000E+02  0.51100000000E-03 0. -1.
    9900012    2    1    2    0    0  0.10591711992E+02 -0.91692932217E+01 -0.42811833452E+02  0.46142318913E+02  0.10000010504E+02 0.  0.
        -12    1    1    2    0    0 -0.10591711992E+02  0.91692932217E+01  0.42811833452E+02  0.45045681087E+02  0.00000000000E+00 0.  1.
         11    1    3    3    0    0  0.38398994142E+00 -0.22940118035E+01 -0.90971385058E+01  0.93897746344E+01  0.51100000000E-03 0. -1.
        -11    1    3    3    0    0  0.14101363232E+01  0.27999515257E+00 -0.13483622179E+02  0.13560049744E+02  0.51100000000E-03 0.  1.
         12    1    3    3    0    0  0.87975857278E+01 -0.71552765707E+01 -0.20231072767E+02  0.23192494535E+02  0.00000000000E+00 0. -1.
</event>
<event>
 7    1  0.3919732E-008  0.4614232E+02  0.7816164E-02  0.1320468E+00
        -11   -1    0    0    0    0  0.00000000000E+00  0.00000000000E+00  0.45593999997E+02  0.45594000000E+02  0.51100000000E-03 0. -1.
         11   -1    0    0    0    0 -0.00000000000E+00 -0.00000000000E+00 -0.45593999997E+02  0.45594000000E+02  0.51100000000E-03 0.  1.
    9900012    2    1    2    0    0 -0.21671132398E+02 -0.26284901106E+02  0.29471673307E+02  0.46142317265E+02  0.99999954800E+01 0.  0.
        -12    1    1    2    0    0  0.21671132398E+02  0.26284901106E+02 -0.29471673307E+02  0.45045682735E+02  0.00000000000E+00 0.  1.
         11    1    3    3    0    0 -0.72545731103E+00 -0.52764422322E+01  0.45680152552E+01  0.70166868658E+01  0.51100000000E-03 0. -1.
        -11    1    3    3    0    0 -0.15804346072E+02 -0.12159751041E+02  0.16658331394E+02  0.25983396722E+02  0.51100000000E-03 0.  1.
        -12    1    3    3    0    0 -0.51413290146E+01 -0.88487078320E+01  0.82453266579E+01  0.13142233677E+02  0.00000000000E+00 0.  1.
</event>
<event>
 7    1  0.4337266E-008  0.4614232E+02  0.7816164E-02  0.1320468E+00
        -11   -1    0    0    0    0  0.00000000000E+00  0.00000000000E+00  0.45593999997E+02  0.45594000000E+02  0.51100000000E-03 0.  1.
         11   -1    0    0    0    0 -0.00000000000E+00 -0.00000000000E+00 -0.45593999997E+02  0.45594000000E+02  0.51100000000E-03 0. -1.
    9900012    2    1    2    0    0  0.36804106104E+02 -0.25131907117E+02 -0.65542749836E+01  0.46142317610E+02  0.99999986227E+01 0.  0.
        -12    1    1    2    0    0 -0.36804106104E+02  0.25131907117E+02  0.65542749836E+01  0.45045682390E+02  0.00000000000E+00 0.  1.
         11    1    3    3    0    0  0.15446283149E+02 -0.12401299551E+02 -0.29757731047E+01  0.20030854188E+02  0.51100000000E-03 0. -1.
        -11    1    3    3    0    0  0.20270346018E+02 -0.10066745527E+02 -0.45292469061E+01  0.23081169186E+02  0.51100000000E-03 0.  1.
        -12    1    3    3    0    0  0.10874769367E+01 -0.26638620392E+01  0.95074502713E+00  0.30302942363E+01  0.00000000000E+00 0.  1.
</event>
<event>
 7    1  0.3919732E-008  0.4614232E+02  0.7816164E-02  0.1320468E+00
        -11   -1    0    0    0    0  0.00000000000E+00  0.00000000000E+00  0.45593999997E+02  0.45594000000E+02  0.51100000000E-03 0.  1.
         11   -1    0    0    0    0 -0.00000000000E+00 -0.00000000000E+00 -0.45593999997E+02  0.45594000000E+02  0.51100000000E-03 0. -1.
    9900012    2    1    2    0    0 -0.38946219559E+02 -0.21040601998E+02  0.83425712745E+01  0.46142318233E+02  0.10000004305E+02 0.  0.
        -12    1    1    2    0    0  0.38946219559E+02  0.21040601998E+02 -0.83425712745E+01  0.45045681767E+02  0.00000000000E+00 0.  1.
         11    1    3    3    0    0 -0.13272941817E+02 -0.47376039482E+01  0.18953367626E+01  0.14219992171E+02  0.51100000000E-03 0. -1.
        -11    1    3    3    0    0 -0.30708228630E+01 -0.27639932588E+01 -0.15114243446E+01  0.43993199021E+01  0.51100000000E-03 0.  1.
        -12    1    3    3    0    0 -0.22602454879E+02 -0.13539004791E+02  0.79586588564E+01  0.27523006160E+02  0.00000000000E+00 0.  1.
</event>
<event>
 7    1  0.3919732E-008  0.4614232E+02  0.7816164E-02  0.1320468E+00
        -11   -1    0    0    0    0  0.00000000000E+00  0.00000000000E+00  0.45593999997E+02  0.45594000000E+02  0.51100000000E-03 0.  1.
         11   -1    0    0    0    0 -0.00000000000E+00 -0.00000000000E+00 -0.45593999997E+02  0.45594000000E+02  0.51100000000E-03 0. -1.
    9900012    2    1    2    0    0  0.22712799268E+02  0.13746357938E+02 -0.36390657537E+02  0.46142316932E+02  0.99999924381E+01 0.  0.
        -12    1    1    2    0    0 -0.22712799268E+02 -0.13746357938E+02  0.36390657537E+02  0.45045683068E+02  0.00000000000E+00 0.  1.
         11    1    3    3    0    0  0.13902806395E+02  0.80826187664E+01 -0.23617130394E+02  0.28572462268E+02  0.51100000000E-03 0. -1.
        -11    1    3    3    0    0  0.56919227927E+01  0.57057139584E+01 -0.11825308266E+02  0.14310523145E+02  0.51100000000E-03 0.  1.
        -12    1    3    3    0    0  0.31180700801E+01 -0.41974786995E-01 -0.94821887733E+00  0.32593315183E+01  0.00000000000E+00 0.  1.
</event>
<event>
 7    1  0.3919732E-008  0.4614232E+02  0.7816164E-02  0.1320468E+00
        -11   -1    0    0    0    0  0.00000000000E+00  0.00000000000E+00  0.45593999997E+02  0.45594000000E+02  0.51100000000E-03 0.  1.
         11   -1    0    0    0    0 -0.00000000000E+00 -0.00000000000E+00 -0.45593999997E+02  0.45594000000E+02  0.51100000000E-03 0. -1.
    9900012    2    1    2    0    0 -0.12144932148E+02  0.30956098008E+02 -0.30386416323E+02  0.46142315660E+02  0.99999808366E+01 0.  0.
        -12    1    1    2    0    0  0.12144932148E+02 -0.30956098008E+02  0.30386416323E+02  0.45045684340E+02  0.00000000000E+00 0.  1.
         11    1    3    3    0    0 -0.61484707068E+01  0.20921455749E+02 -0.21468377223E+02  0.30600689919E+02  0.51100000000E-03 0. -1.
        -11    1    3    3    0    0  0.22709489762E+00  0.40347425096E+01 -0.34430489826E+01  0.53089834967E+01  0.51100000000E-03 0.  1.
         12    1    3    3    0    0 -0.62235563384E+01  0.59998997493E+01 -0.54749901178E+01  0.10232642244E+02  0.00000000000E+00 0. -1.
</event>
<event>
 7    1  0.3919732E-008  0.4614232E+02  0.7816164E-02  0.1320468E+00
        -11   -1    0    0    0    0  0.00000000000E+00  0.00000000000E+00  0.45593999997E+02  0.45594000000E+02  0.51100000000E-03 0.  1.
         11   -1    0    0    0    0 -0.00000000000E+00 -0.00000000000E+00 -0.45593999997E+02  0.45594000000E+02  0.51100000000E-03 0. -1.
    9900012    2    1    2    0    0 -0.22779082430E+02 -0.38848711127E+02 -0.10022879545E+01  0.46142317258E+02  0.99999954128E+01 0.  0.
        -12    1    1    2    0    0  0.22779082430E+02  0.38848711127E+02  0.10022879545E+01  0.45045682742E+02  0.00000000000E+00 0.  1.
         11    1    3    3    0    0 -0.13529046711E+01 -0.87433899993E+00 -0.11288407037E+00  0.16147949747E+01  0.51100000000E-03 0.  1.
        -11    1    3    3    0    0 -0.16123226116E+02 -0.32320757358E+02  0.21932062124E+01  0.36185631546E+02  0.51100000000E-03 0. -1.
         12    1    3    3    0    0 -0.53029516423E+01 -0.56536147682E+01 -0.30826100965E+01  0.83418907374E+01  0.00000000000E+00 0. -1.
</event>
<event>
 7    1  0.3919732E-008  0.4614232E+02  0.7816164E-02  0.1320468E+00
        -11   -1    0    0    0    0  0.00000000000E+00  0.00000000000E+00  0.45593999997E+02  0.45594000000E+02  0.51100000000E-03 0. -1.
         11   -1    0    0    0    0 -0.00000000000E+00 -0.00000000000E+00 -0.45593999997E+02  0.45594000000E+02  0.51100000000E-03 0.  1.
    9900012    2    1    2    0    0 -0.15146280952E+02 -0.51603454908E+01  0.42107891504E+02  0.46142317420E+02  0.99999968855E+01 0.  0.
        -12    1    1    2    0    0  0.15146280952E+02  0.51603454908E+01 -0.42107891504E+02  0.45045682580E+02  0.00000000000E+00 0.  1.
         11    1    3    3    0    0 -0.36339512881E+01  0.14947101639E-01  0.13410089272E+02  0.13893751111E+02  0.51100000000E-03 0. -1.
        -11    1    3    3    0    0 -0.62758300245E+01 -0.59891242627E+01  0.22379897249E+02  0.24002405152E+02  0.51100000000E-03 0.  1.
        -12    1    3    3    0    0 -0.52364996394E+01  0.81383167030E+00  0.63179049823E+01  0.82461611569E+01  0.00000000000E+00 0.  1.
</event>
<event>
 7    1  0.7512053E-008  0.4614232E+02  0.7816164E-02  0.1320468E+00
        -11   -1    0    0    0    0  0.00000000000E+00  0.00000000000E+00  0.45593999997E+02  0.45594000000E+02  0.51100000000E-03 0.  1.
         11   -1    0    0    0    0 -0.00000000000E+00 -0.00000000000E+00 -0.45593999997E+02  0.45594000000E+02  0.51100000000E-03 0. -1.
    9900012    2    1    2    0    0  0.78474544700E+01 -0.44272127852E+02  0.27403582215E+01  0.46142318638E+02  0.10000007996E+02 0.  0.
        -12    1    1    2    0    0 -0.78474544700E+01  0.44272127852E+02 -0.27403582215E+01  0.45045681362E+02  0.00000000000E+00 0.  1.
         11    1    3    3    0    0  0.46149976184E+01 -0.26630463686E+02  0.70004195239E+00  0.27036454245E+02  0.51100000000E-03 0.  1.
        -11    1    3    3    0    0  0.14886158270E+01 -0.13994397642E+02 -0.90745748107E+00  0.14102575005E+02  0.51100000000E-03 0. -1.
        -12    1    3    3    0    0  0.17438410247E+01 -0.36472665244E+01  0.29477737502E+01  0.50032893881E+01  0.00000000000E+00 0.  1.
</event>
<event>
 7    1  0.3919732E-008  0.4614232E+02  0.7816164E-02  0.1320468E+00
        -11   -1    0    0    0    0  0.00000000000E+00  0.00000000000E+00  0.45593999997E+02  0.45594000000E+02  0.51100000000E-03 0.  1.
         11   -1    0    0    0    0 -0.00000000000E+00 -0.00000000000E+00 -0.45593999997E+02  0.45594000000E+02  0.51100000000E-03 0. -1.
    9900012    2    1    2    0    0 -0.14201689855E+01  0.26094890641E+02 -0.36689958737E+02  0.46142320189E+02  0.10000022136E+02 0.  0.
        -12    1    1    2    0    0  0.14201689855E+01 -0.26094890641E+02  0.36689958737E+02  0.45045679811E+02  0.00000000000E+00 0.  1.
         11    1    3    3    0    0 -0.13217887149E+01  0.31535956766E+01 -0.48972224725E+01  0.59728619023E+01  0.51100000000E-03 0.  1.
        -11    1    3    3    0    0 -0.40165213882E+01  0.13324138010E+02 -0.15324261613E+02  0.20700195458E+02  0.51100000000E-03 0. -1.
         12    1    3    3    0    0  0.39181411176E+01  0.96171569550E+01 -0.16468474652E+02  0.19469262828E+02  0.00000000000E+00 0. -1.
</event>
<event>
 7    1  0.3919732E-008  0.4614232E+02  0.7816164E-02  0.1320468E+00
        -11   -1    0    0    0    0  0.00000000000E+00  0.00000000000E+00  0.45593999997E+02  0.45594000000E+02  0.51100000000E-03 0.  1.
         11   -1    0    0    0    0 -0.00000000000E+00 -0.00000000000E+00 -0.45593999997E+02  0.45594000000E+02  0.51100000000E-03 0. -1.
    9900012    2    1    2    0    0  0.44336866374E+02 -0.15858593077E+01 -0.78000560694E+01  0.46142317140E+02  0.99999943363E+01 0.  0.
        -12    1    1    2    0    0 -0.44336866374E+02  0.15858593077E+01  0.78000560694E+01  0.45045682860E+02  0.00000000000E+00 0.  1.
         11    1    3    3    0    0  0.92992034416E+01 -0.25486120246E+01 -0.41179780020E+00  0.96509163083E+01  0.51100000000E-03 0. -1.
        -11    1    3    3    0    0  0.72153065578E+01 -0.20486819619E+01  0.17487246581E+00  0.75025547079E+01  0.51100000000E-03 0.  1.
        -12    1    3    3    0    0  0.27822356375E+02  0.30114346789E+01 -0.75631307350E+01  0.28988846124E+02  0.00000000000E+00 0.  1.
</event>
<event>
 7    1  0.3919732E-008  0.4614232E+02  0.7816164E-02  0.1320468E+00
        -11   -1    0    0    0    0  0.00000000000E+00  0.00000000000E+00  0.45593999997E+02  0.45594000000E+02  0.51100000000E-03 0.  1.
         11   -1    0    0    0    0 -0.00000000000E+00 -0.00000000000E+00 -0.45593999997E+02  0.45594000000E+02  0.51100000000E-03 0. -1.
    9900012    2    1    2    0    0  0.33438917812E+02 -0.21424452451E+02 -0.21259000362E+02  0.46142317813E+02  0.10000000477E+02 0.  0.
        -12    1    1    2    0    0 -0.33438917812E+02  0.21424452451E+02  0.21259000362E+02  0.45045682187E+02  0.00000000000E+00 0.  1.
         11    1    3    3    0    0  0.11355483103E+02 -0.53453543768E+01 -0.59171441006E+01  0.13875604653E+02  0.51100000000E-03 0. -1.
        -11    1    3    3    0    0  0.97726664767E+01 -0.35147090904E+01 -0.31085179196E+01  0.10840713721E+02  0.51100000000E-03 0.  1.
        -12    1    3    3    0    0  0.12310768232E+02 -0.12564388984E+02 -0.12233338342E+02  0.21425999440E+02  0.00000000000E+00 0.  1.
</event>
<event>
 7    1  0.3919732E-008  0.4614232E+02  0.7816164E-02  0.1320468E+00
        -11   -1    0    0    0    0  0.00000000000E+00  0.00000000000E+00  0.45593999997E+02  0.45594000000E+02  0.51100000000E-03 0.  1.
         11   -1    0    0    0    0 -0.00000000000E+00 -0.00000000000E+00 -0.45593999997E+02  0.45594000000E+02  0.51100000000E-03 0. -1.
    9900012    2    1    2    0    0 -0.91883243446E+01  0.15363494424E+02 -0.41335834015E+02  0.46142318310E+02  0.10000005008E+02 0.  0.
        -12    1    1    2    0    0  0.91883243446E+01 -0.15363494424E+02  0.41335834015E+02  0.45045681690E+02  0.00000000000E+00 0.  1.
         11    1    3    3    0    0 -0.56515340228E+01  0.73384456847E+01 -0.16988734829E+02  0.19349670106E+02  0.51100000000E-03 0. -1.
        -11    1    3    3    0    0 -0.54145832673E+01  0.54422514023E+01 -0.19800912235E+02  0.21237041646E+02  0.51100000000E-03 0.  1.
        -12    1    3    3    0    0  0.18777929455E+01  0.25827973365E+01 -0.45461869517E+01  0.55556065580E+01  0.00000000000E+00 0.  1.
</event>
<event>
 7    1  0.3919732E-008  0.4614232E+02  0.7816164E-02  0.1320468E+00
        -11   -1    0    0    0    0  0.00000000000E+00  0.00000000000E+00  0.45593999997E+02  0.45594000000E+02  0.51100000000E-03 0. -1.
         11   -1    0    0    0    0 -0.00000000000E+00 -0.00000000000E+00 -0.45593999997E+02  0.45594000000E+02  0.51100000000E-03 0.  1.
    9900012    2    1    2    0    0  0.23652250749E+02 -0.34732399543E+01  0.38178805771E+02  0.46142316840E+02  0.99999915973E+01 0.  0.
        -12    1    1    2    0    0 -0.23652250749E+02  0.34732399543E+01 -0.38178805771E+02  0.45045683160E+02  0.00000000000E+00 0.  1.
         11    1    3    3    0    0  0.43842752312E+01 -0.23563468225E+01  0.72988291537E+01  0.88344296322E+01  0.51100000000E-03 0. -1.
        -11    1    3    3    0    0 -0.67059294881E+00 -0.17460175885E+00  0.22798488681E+00  0.72949163595E+00  0.51100000000E-03 0.  1.
         12    1    3    3    0    0  0.19938568466E+02 -0.94229137299E+00  0.30651991731E+02  0.36578395571E+02  0.00000000000E+00 0. -1.
</event>
<event>
 7    1  0.3919732E-008  0.4614232E+02  0.7816164E-02  0.1320468E+00
        -11   -1    0    0    0    0  0.00000000000E+00  0.00000000000E+00  0.45593999997E+02  0.45594000000E+02  0.51100000000E-03 0.  1.
         11   -1    0    0    0    0 -0.00000000000E+00 -0.00000000000E+00 -0.45593999997E+02  0.45594000000E+02  0.51100000000E-03 0. -1.
    9900012    2    1    2    0    0  0.14947138277E+02  0.42412234986E+02  0.26265879265E+01  0.46142316707E+02  0.99999903915E+01 0.  0.
        -12    1    1    2    0    0 -0.14947138277E+02 -0.42412234986E+02 -0.26265879265E+01  0.45045683293E+02  0.00000000000E+00 0.  1.
         11    1    3    3    0    0  0.30767094874E+01  0.59824942660E+01 -0.11601008649E+01  0.68265813691E+01  0.51100000000E-03 0. -1.
        -11    1    3    3    0    0  0.37329133780E+01  0.19335442823E+02 -0.12272688290E+01  0.19730691333E+02  0.51100000000E-03 0.  1.
         12    1    3    3    0    0  0.81375154119E+01  0.17094297897E+02  0.50139576203E+01  0.19585044005E+02  0.00000000000E+00 0. -1.
</event>
<event>
 7    1  0.3919732E-008  0.4614232E+02  0.7816164E-02  0.1320468E+00
        -11   -1    0    0    0    0  0.00000000000E+00  0.00000000000E+00  0.45593999997E+02  0.45594000000E+02  0.51100000000E-03 0.  1.
         11   -1    0    0    0    0 -0.00000000000E+00 -0.00000000000E+00 -0.45593999997E+02  0.45594000000E+02  0.51100000000E-03 0. -1.
    9900012    2    1    2    0    0  0.16609823101E+02  0.15976316488E+02 -0.38703800507E+02  0.46142322231E+02  0.10000040760E+02 0.  0.
        -12    1    1    2    0    0 -0.16609823101E+02 -0.15976316488E+02  0.38703800507E+02  0.45045677769E+02  0.00000000000E+00 0.  1.
         11    1    3    3    0    0  0.55206942473E+01  0.10622207799E+02 -0.21020687161E+02  0.24190466148E+02  0.51100000000E-03 0. -1.
        -11    1    3    3    0    0  0.23725723612E+01  0.87831270333E-01 -0.14294607855E+01  0.27713123858E+01  0.51100000000E-03 0.  1.
         12    1    3    3    0    0  0.87165564927E+01  0.52662774183E+01 -0.16253652561E+02  0.19180543697E+02  0.00000000000E+00 0. -1.
</event>
<event>
 7    1  0.3919732E-008  0.4614232E+02  0.7816164E-02  0.1320468E+00
        -11   -1    0    0    0    0  0.00000000000E+00  0.00000000000E+00  0.45593999997E+02  0.45594000000E+02  0.51100000000E-03 0. -1.
         11   -1    0    0    0    0 -0.00000000000E+00 -0.00000000000E+00 -0.45593999997E+02  0.45594000000E+02  0.51100000000E-03 0.  1.
    9900012    2    1    2    0    0 -0.36816519168E+02  0.23489816179E+02  0.11040197514E+02  0.46142317533E+02  0.99999979171E+01 0.  0.
        -12    1    1    2    0    0  0.36816519168E+02 -0.23489816179E+02 -0.11040197514E+02  0.45045682467E+02  0.00000000000E+00 0.  1.
         11    1    3    3    0    0 -0.85969296097E+01  0.44535259780E+01  0.14959376974E+01  0.97968832904E+01  0.51100000000E-03 0. -1.
        -11    1    3    3    0    0 -0.11985357266E+02  0.13083452971E+02  0.56492104946E+01  0.18620932036E+02  0.51100000000E-03 0.  1.
        -12    1    3    3    0    0 -0.16234232293E+02  0.59528372306E+01  0.38950493218E+01  0.17724502206E+02  0.00000000000E+00 0.  1.
</event>
<event>
 7    1  0.3919732E-008  0.4614231E+02  0.7816164E-02  0.1320468E+00
        -11   -1    0    0    0    0  0.00000000000E+00  0.00000000000E+00  0.45593999997E+02  0.45594000000E+02  0.51100000000E-03 0.  1.
         11   -1    0    0    0    0 -0.00000000000E+00 -0.00000000000E+00 -0.45593999997E+02  0.45594000000E+02  0.51100000000E-03 0. -1.
    9900012    2    1    2    0    0  0.10818583875E+02  0.42773568445E+02 -0.90826179740E+01  0.46142313593E+02  0.99999619951E+01 0.  0.
        -12    1    1    2    0    0 -0.10818583875E+02 -0.42773568445E+02  0.90826179740E+01  0.45045686407E+02  0.00000000000E+00 0.  1.
         11    1    3    3    0    0  0.10154153922E+02  0.29394059483E+02 -0.54224032130E+01  0.31567705517E+02  0.51100000000E-03 0. -1.
        -11    1    3    3    0    0  0.41605797103E+00  0.11865965083E+02 -0.15619904387E+01  0.11975560361E+02  0.51100000000E-03 0.  1.
        -12    1    3    3    0    0  0.24837198238E+00  0.15135438791E+01 -0.20982243223E+01  0.25990477145E+01  0.00000000000E+00 0.  1.
</event>
<event>
 7    1  0.3919732E-008  0.4614232E+02  0.7816164E-02  0.1320468E+00
        -11   -1    0    0    0    0  0.00000000000E+00  0.00000000000E+00  0.45593999997E+02  0.45594000000E+02  0.51100000000E-03 0. -1.
         11   -1    0    0    0    0 -0.00000000000E+00 -0.00000000000E+00 -0.45593999997E+02  0.45594000000E+02  0.51100000000E-03 0.  1.
    9900012    2    1    2    0    0  0.13678569172E+02  0.20585334946E+02  0.37659714437E+02  0.46142319175E+02  0.10000012897E+02 0.  0.
        -12    1    1    2    0    0 -0.13678569172E+02 -0.20585334946E+02 -0.37659714437E+02  0.45045680825E+02  0.00000000000E+00 0.  1.
         11    1    3    3    0    0  0.48065559601E+01  0.77635066436E+01  0.13695029083E+02  0.16459916082E+02  0.51100000000E-03 0. -1.
        -11    1    3    3    0    0  0.81975898163E+00  0.79344531391E+01  0.92888492090E+01  0.12243785007E+02  0.51100000000E-03 0.  1.
        -12    1    3    3    0    0  0.80522542304E+01  0.48873751632E+01  0.14675836146E+02  0.17438618086E+02  0.00000000000E+00 0.  1.
</event>
<event>
 7    1  0.3919732E-008  0.4614231E+02  0.7816164E-02  0.1320468E+00
        -11   -1    0    0    0    0  0.00000000000E+00  0.00000000000E+00  0.45593999997E+02  0.45594000000E+02  0.51100000000E-03 0.  1.
         11   -1    0    0    0    0 -0.00000000000E+00 -0.00000000000E+00 -0.45593999997E+02  0.45594000000E+02  0.51100000000E-03 0. -1.
    9900012    2    1    2    0    0  0.11080249213E+02  0.22623031417E+02 -0.37343544270E+02  0.46142314615E+02  0.99999713137E+01 0.  0.
        -12    1    1    2    0    0 -0.11080249213E+02 -0.22623031417E+02  0.37343544270E+02  0.45045685385E+02  0.00000000000E+00 0.  1.
         11    1    3    3    0    0  0.59750769598E+01  0.76505431779E+01 -0.16638216245E+02  0.19262985118E+02  0.51100000000E-03 0. -1.
        -11    1    3    3    0    0  0.59068185627E+01  0.78547663705E+01 -0.13698630132E+02  0.16859428461E+02  0.51100000000E-03 0.  1.
         12    1    3    3    0    0 -0.80164630994E+00  0.71177218690E+01 -0.70066978933E+01  0.10019901036E+02  0.00000000000E+00 0. -1.
</event>
<event>
 7    1  0.3919732E-008  0.4614232E+02  0.7816164E-02  0.1320468E+00
        -11   -1    0    0    0    0  0.00000000000E+00  0.00000000000E+00  0.45593999997E+02  0.45594000000E+02  0.51100000000E-03 0.  1.
         11   -1    0    0    0    0 -0.00000000000E+00 -0.00000000000E+00 -0.45593999997E+02  0.45594000000E+02  0.51100000000E-03 0. -1.
    9900012    2    1    2    0    0  0.21557731467E+02 -0.57912528378E+01 -0.39125938358E+02  0.46142318211E+02  0.10000004106E+02 0.  0.
        -12    1    1    2    0    0 -0.21557731467E+02  0.57912528378E+01  0.39125938358E+02  0.45045681789E+02  0.00000000000E+00 0.  1.
         11    1    3    3    0    0  0.31712445283E+01 -0.98723595882E+00 -0.20344493073E+01  0.38949211727E+01  0.51100000000E-03 0. -1.
        -11    1    3    3    0    0  0.29281557679E+01  0.70860688001E+00 -0.11154108626E+02  0.11553802812E+02  0.51100000000E-03 0.  1.
         12    1    3    3    0    0  0.15458331171E+02 -0.55126237590E+01 -0.25937380424E+02  0.30693594227E+02  0.00000000000E+00 0. -1.
</event>
<event>
 7    1  0.3919732E-008  0.4614232E+02  0.7816164E-02  0.1320468E+00
        -11   -1    0    0    0    0  0.00000000000E+00  0.00000000000E+00  0.45593999997E+02  0.45594000000E+02  0.51100000000E-03 0. -1.
         11   -1    0    0    0    0 -0.00000000000E+00 -0.00000000000E+00 -0.45593999997E+02  0.45594000000E+02  0.51100000000E-03 0.  1.
    9900012    2    1    2    0    0 -0.24469226247E+01 -0.21823516958E+02  0.39330143678E+02  0.46142317360E+02  0.99999963433E+01 0.  0.
        -12    1    1    2    0    0  0.24469226247E+01  0.21823516958E+02 -0.39330143678E+02  0.45045682640E+02  0.00000000000E+00 0.  1.
         11    1    3    3    0    0 -0.22461588339E+01 -0.65269373689E+01  0.16510238274E+02  0.17895086170E+02  0.51100000000E-03 0. -1.
        -11    1    3    3    0    0  0.84854246333E+00 -0.13273024813E+02  0.14746959113E+02  0.19858650894E+02  0.51100000000E-03 0.  1.
        -12    1    3    3    0    0 -0.10493062541E+01 -0.20235547754E+01  0.80729462917E+01  0.83885802955E+01  0.00000000000E+00 0.  1.
</event>
<event>
 7    1  0.3919732E-008  0.4614232E+02  0.7816164E-02  0.1320468E+00
        -11   -1    0    0    0    0  0.00000000000E+00  0.00000000000E+00  0.45593999997E+02  0.45594000000E+02  0.51100000000E-03 0. -1.
         11   -1    0    0    0    0 -0.00000000000E+00 -0.00000000000E+00 -0.45593999997E+02  0.45594000000E+02  0.51100000000E-03 0.  1.
    9900012    2    1    2    0    0 -0.10056954006E+02 -0.39321717833E+02  0.19539027648E+02  0.46142318535E+02  0.10000007057E+02 0.  0.
        -12    1    1    2    0    0  0.10056954006E+02  0.39321717833E+02 -0.19539027648E+02  0.45045681465E+02  0.00000000000E+00 0.  1.
         11    1    3    3    0    0 -0.43461353243E+01 -0.24578162153E+02  0.14562737879E+02  0.28897201973E+02  0.51100000000E-03 0. -1.
        -11    1    3    3    0    0 -0.51381256315E+01 -0.13800162807E+02  0.30697776046E+01  0.15042219361E+02  0.51100000000E-03 0.  1.
         12    1    3    3    0    0 -0.57269304988E+00 -0.94339287238E+00  0.19065121647E+01  0.22028972003E+01  0.00000000000E+00 0. -1.
</event>
<event>
 7    1  0.3919732E-008  0.4614232E+02  0.7816164E-02  0.1320468E+00
        -11   -1    0    0    0    0  0.00000000000E+00  0.00000000000E+00  0.45593999997E+02  0.45594000000E+02  0.51100000000E-03 0.  1.
         11   -1    0    0    0    0 -0.00000000000E+00 -0.00000000000E+00 -0.45593999997E+02  0.45594000000E+02  0.51100000000E-03 0. -1.
    9900012    2    1    2    0    0  0.12591409785E+02  0.93019162796E+01 -0.42237947226E+02  0.46142318379E+02  0.10000005637E+02 0.  0.
        -12    1    1    2    0    0 -0.12591409785E+02 -0.93019162796E+01  0.42237947226E+02  0.45045681621E+02  0.00000000000E+00 0.  1.
         11    1    3    3    0    0  0.13522659363E+01 -0.51247739551E+00 -0.12808334809E+02  0.12889712840E+02  0.51100000000E-03 0. -1.
        -11    1    3    3    0    0  0.11173062226E+01 -0.24574479251E+00 -0.30975125947E+01  0.33020218402E+01  0.51100000000E-03 0.  1.
         12    1    3    3    0    0  0.10121837626E+02  0.10060138468E+02 -0.26332099822E+02  0.29950583699E+02  0.00000000000E+00 0. -1.
</event>
<event>
 7    1  0.3919732E-008  0.4614232E+02  0.7816164E-02  0.1320468E+00
        -11   -1    0    0    0    0  0.00000000000E+00  0.00000000000E+00  0.45593999997E+02  0.45594000000E+02  0.51100000000E-03 0.  1.
         11   -1    0    0    0    0 -0.00000000000E+00 -0.00000000000E+00 -0.45593999997E+02  0.45594000000E+02  0.51100000000E-03 0. -1.
    9900012    2    1    2    0    0  0.53924697464E+01  0.42376920038E+02 -0.14290949722E+02  0.46142319565E+02  0.10000016448E+02 0.  0.
        -12    1    1    2    0    0 -0.53924697464E+01 -0.42376920038E+02  0.14290949722E+02  0.45045680435E+02  0.00000000000E+00 0.  1.
         11    1    3    3    0    0  0.25885508345E+01  0.60456464915E+01 -0.87791061385E+00  0.66348447028E+01  0.51100000000E-03 0.  1.
        -11    1    3    3    0    0  0.93846581354E+00  0.22515957511E+00 -0.66293493527E+00  0.11708534951E+01  0.51100000000E-03 0. -1.
         12    1    3    3    0    0  0.18654530983E+01  0.36106113972E+02 -0.12750104173E+02  0.38336621367E+02  0.00000000000E+00 0. -1.
</event>
<event>
 7    1  0.3919732E-008  0.4614231E+02  0.7816164E-02  0.1320468E+00
        -11   -1    0    0    0    0  0.00000000000E+00  0.00000000000E+00  0.45593999997E+02  0.45594000000E+02  0.51100000000E-03 0. -1.
         11   -1    0    0    0    0 -0.00000000000E+00 -0.00000000000E+00 -0.45593999997E+02  0.45594000000E+02  0.51100000000E-03 0.  1.
    9900012    2    1    2    0    0  0.36336007568E+02  0.22500203291E+02 -0.14231980805E+02  0.46142313506E+02  0.99999611961E+01 0.  0.
        -12    1    1    2    0    0 -0.36336007568E+02 -0.22500203291E+02  0.14231980805E+02  0.45045686494E+02  0.00000000000E+00 0.  1.
         11    1    3    3    0    0  0.15494281889E+02  0.10037658209E+02 -0.44953924101E+01  0.19000944891E+02  0.51100000000E-03 0. -1.
        -11    1    3    3    0    0  0.23450090641E+01  0.27974225936E+00  0.95507627041E+00  0.25474485639E+01  0.51100000000E-03 0.  1.
         12    1    3    3    0    0  0.18496716615E+02  0.12182802823E+02 -0.10691664665E+02  0.24593920051E+02  0.00000000000E+00 0. -1.
</event>
<event>
 7    1  0.3919732E-008  0.4614232E+02  0.7816164E-02  0.1320468E+00
        -11   -1    0    0    0    0  0.00000000000E+00  0.00000000000E+00  0.45593999997E+02  0.45594000000E+02  0.51100000000E-03 0.  1.
         11   -1    0    0    0    0 -0.00000000000E+00 -0.00000000000E+00 -0.45593999997E+02  0.45594000000E+02  0.51100000000E-03 0. -1.
    9900012    2    1    2    0    0  0.87115222916E+00 -0.20082779714E+02 -0.40311734873E+02  0.46142324118E+02  0.10000057966E+02 0.  0.
        -12    1    1    2    0    0 -0.87115222916E+00  0.20082779714E+02  0.40311734873E+02  0.45045675882E+02  0.00000000000E+00 0.  1.
         11    1    3    3    0    0  0.25855185664E+01 -0.50406482066E+01 -0.10451910360E+02  0.11888459574E+02  0.51100000000E-03 0. -1.
        -11    1    3    3    0    0 -0.31645572866E+01 -0.93448572470E+01 -0.24020397411E+02  0.25967677444E+02  0.51100000000E-03 0.  1.
        -12    1    3    3    0    0  0.14501909494E+01 -0.56972742600E+01 -0.58394271011E+01  0.82861870998E+01  0.00000000000E+00 0.  1.
</event>
<event>
 7    1  0.3919732E-008  0.4614232E+02  0.7816164E-02  0.1320468E+00
        -11   -1    0    0    0    0  0.00000000000E+00  0.00000000000E+00  0.45593999997E+02  0.45594000000E+02  0.51100000000E-03 0.  1.
         11   -1    0    0    0    0 -0.00000000000E+00 -0.00000000000E+00 -0.45593999997E+02  0.45594000000E+02  0.51100000000E-03 0. -1.
    9900012    2    1    2    0    0 -0.27996314702E+02  0.22837712288E+02 -0.26902764587E+02  0.46142317833E+02  0.10000000653E+02 0.  0.
        -12    1    1    2    0    0  0.27996314702E+02 -0.22837712288E+02  0.26902764587E+02  0.45045682167E+02  0.00000000000E+00 0.  1.
         11    1    3    3    0    0 -0.48341044211E+01  0.40803781744E+01 -0.79426550722E+01  0.10154005193E+02  0.51100000000E-03 0. -1.
        -11    1    3    3    0    0 -0.44619810738E+01  0.80899211048E+00 -0.40850124809E+01  0.61033655116E+01  0.51100000000E-03 0.  1.
        -12    1    3    3    0    0 -0.18700229208E+02  0.17948342003E+02 -0.14875097034E+02  0.29884947128E+02  0.00000000000E+00 0.  1.
</event>
<event>
 7    1  0.3919732E-008  0.4614232E+02  0.7816164E-02  0.1320468E+00
        -11   -1    0    0    0    0  0.00000000000E+00  0.00000000000E+00  0.45593999997E+02  0.45594000000E+02  0.51100000000E-03 0.  1.
         11   -1    0    0    0    0 -0.00000000000E+00 -0.00000000000E+00 -0.45593999997E+02  0.45594000000E+02  0.51100000000E-03 0. -1.
    9900012    2    1    2    0    0 -0.11828015906E+02  0.16408382899E+02 -0.40248931847E+02  0.46142317583E+02  0.99999983736E+01 0.  0.
        -12    1    1    2    0    0  0.11828015906E+02 -0.16408382899E+02  0.40248931847E+02  0.45045682417E+02  0.00000000000E+00 0.  1.
         11    1    3    3    0    0 -0.23134119089E+01  0.56838333657E+01 -0.70564374442E+01  0.93515317491E+01  0.51100000000E-03 0. -1.
        -11    1    3    3    0    0 -0.18428394310E+01  0.18430627772E+00 -0.11062284826E+01  0.21572593004E+01  0.51100000000E-03 0.  1.
         12    1    3    3    0    0 -0.76717645666E+01  0.10540243256E+02 -0.32086265920E+02  0.34633526533E+02  0.00000000000E+00 0. -1.
</event>
<event>
 7    1  0.3919732E-008  0.4614232E+02  0.7816164E-02  0.1320468E+00
        -11   -1    0    0    0    0  0.00000000000E+00  0.00000000000E+00  0.45593999997E+02  0.45594000000E+02  0.51100000000E-03 0.  1.
         11   -1    0    0    0    0 -0.00000000000E+00 -0.00000000000E+00 -0.45593999997E+02  0.45594000000E+02  0.51100000000E-03 0. -1.
    9900012    2    1    2    0    0  0.29832621686E+02  0.92886168220E+01 -0.32447646336E+02  0.46142317944E+02  0.10000001671E+02 0.  0.
        -12    1    1    2    0    0 -0.29832621686E+02 -0.92886168220E+01  0.32447646336E+02  0.45045682056E+02  0.00000000000E+00 0.  1.
         11    1    3    3    0    0  0.10284444642E+02  0.10872907772E+01 -0.10572568882E+02  0.14789564424E+02  0.51100000000E-03 0. -1.
        -11    1    3    3    0    0  0.42733487871E+00 -0.10688539583E+01 -0.66565697320E+00  0.13297230350E+01  0.51100000000E-03 0.  1.
         12    1    3    3    0    0  0.19120842165E+02  0.92701800031E+01 -0.21209420481E+02  0.30023030485E+02  0.00000000000E+00 0. -1.
</event>
<event>
 7    1  0.3919732E-008  0.4614232E+02  0.7816164E-02  0.1320468E+00
        -11   -1    0    0    0    0  0.00000000000E+00  0.00000000000E+00  0.45593999997E+02  0.45594000000E+02  0.51100000000E-03 0.  1.
         11   -1    0    0    0    0 -0.00000000000E+00 -0.00000000000E+00 -0.45593999997E+02  0.45594000000E+02  0.51100000000E-03 0. -1.
    9900012    2    1    2    0    0 -0.25168127315E+02  0.24239616439E+01 -0.37280063528E+02  0.46142319194E+02  0.10000013069E+02 0.  0.
        -12    1    1    2    0    0  0.25168127315E+02 -0.24239616439E+01  0.37280063528E+02  0.45045680806E+02  0.00000000000E+00 0.  1.
         11    1    3    3    0    0 -0.17697674240E+02  0.12868638889E+01 -0.26853536997E+02  0.32186583256E+02  0.51100000000E-03 0. -1.
        -11    1    3    3    0    0 -0.66688698571E+01 -0.11694583675E+01 -0.69066113405E+01  0.96717495064E+01  0.51100000000E-03 0.  1.
        -12    1    3    3    0    0 -0.80158321766E+00  0.23065561225E+01 -0.35199151901E+01  0.42839864317E+01  0.00000000000E+00 0.  1.
</event>
<event>
 7    1  0.3919732E-008  0.4614232E+02  0.7816164E-02  0.1320468E+00
        -11   -1    0    0    0    0  0.00000000000E+00  0.00000000000E+00  0.45593999997E+02  0.45594000000E+02  0.51100000000E-03 0.  1.
         11   -1    0    0    0    0 -0.00000000000E+00 -0.00000000000E+00 -0.45593999997E+02  0.45594000000E+02  0.51100000000E-03 0. -1.
    9900012    2    1    2    0    0 -0.35056980571E+02 -0.11207031188E+02 -0.25971597704E+02  0.46142319607E+02  0.10000016829E+02 0.  0.
        -12    1    1    2    0    0  0.35056980571E+02  0.11207031188E+02  0.25971597704E+02  0.45045680393E+02  0.00000000000E+00 0.  1.
         11    1    3    3    0    0 -0.23236989231E+02 -0.56773759619E+01 -0.17336237710E+02  0.29542095466E+02  0.51100000000E-03 0. -1.
        -11    1    3    3    0    0 -0.49095836629E+01 -0.26013574283E+01 -0.57367092061E+00  0.55857113065E+01  0.51100000000E-03 0.  1.
         12    1    3    3    0    0 -0.69104076772E+01 -0.29282977980E+01 -0.80616890734E+01  0.11014512834E+02  0.00000000000E+00 0. -1.
</event>
<event>
 7    1  0.3919732E-008  0.4614232E+02  0.7816164E-02  0.1320468E+00
        -11   -1    0    0    0    0  0.00000000000E+00  0.00000000000E+00  0.45593999997E+02  0.45594000000E+02  0.51100000000E-03 0.  1.
         11   -1    0    0    0    0 -0.00000000000E+00 -0.00000000000E+00 -0.45593999997E+02  0.45594000000E+02  0.51100000000E-03 0. -1.
    9900012    2    1    2    0    0  0.78189250292E+01 -0.75407541474E+01 -0.43716300496E+02  0.46142317735E+02  0.99999997599E+01 0.  0.
        -12    1    1    2    0    0 -0.78189250292E+01  0.75407541474E+01  0.43716300496E+02  0.45045682265E+02  0.00000000000E+00 0.  1.
         11    1    3    3    0    0 -0.67955489975E+00 -0.25178938209E+00 -0.77222140042E+00  0.10590178974E+01  0.51100000000E-03 0. -1.
        -11    1    3    3    0    0 -0.21832612151E+00 -0.20283855684E+01 -0.18743047964E+01  0.27703849986E+01  0.51100000000E-03 0.  1.
         12    1    3    3    0    0  0.87168060504E+01 -0.52605791969E+01 -0.41069774299E+02  0.42312914839E+02  0.00000000000E+00 0. -1.
</event>
<event>
 7    1  0.3919732E-008  0.4614232E+02  0.7816164E-02  0.1320468E+00
        -11   -1    0    0    0    0  0.00000000000E+00  0.00000000000E+00  0.45593999997E+02  0.45594000000E+02  0.51100000000E-03 0. -1.
         11   -1    0    0    0    0 -0.00000000000E+00 -0.00000000000E+00 -0.45593999997E+02  0.45594000000E+02  0.51100000000E-03 0.  1.
    9900012    2    1    2    0    0  0.79067595640E+01  0.40642759476E+02 -0.17741556214E+02  0.46142316949E+02  0.99999925954E+01 0.  0.
        -12    1    1    2    0    0 -0.79067595640E+01 -0.40642759476E+02  0.17741556214E+02  0.45045683051E+02  0.00000000000E+00 0.  1.
         11    1    3    3    0    0  0.22289070091E+01  0.12395596482E+02 -0.53201724168E+01  0.13671981327E+02  0.51100000000E-03 0. -1.
        -11    1    3    3    0    0 -0.18719472683E+01  0.26484309455E+01 -0.20520675065E+01  0.38378840994E+01  0.51100000000E-03 0.  1.
        -12    1    3    3    0    0  0.75497998232E+01  0.25598732048E+02 -0.10369316291E+02  0.28632451523E+02  0.00000000000E+00 0.  1.
</event>
<event>
 7    1  0.3919732E-008  0.4614232E+02  0.7816164E-02  0.1320468E+00
        -11   -1    0    0    0    0  0.00000000000E+00  0.00000000000E+00  0.45593999997E+02  0.45594000000E+02  0.51100000000E-03 0. -1.
         11   -1    0    0    0    0 -0.00000000000E+00 -0.00000000000E+00 -0.45593999997E+02  0.45594000000E+02  0.51100000000E-03 0.  1.
    9900012    2    1    2    0    0  0.25070902708E+02  0.24389545509E+02  0.28385090166E+02  0.46142318337E+02  0.10000005250E+02 0.  0.
        -12    1    1    2    0    0 -0.25070902708E+02 -0.24389545509E+02 -0.28385090166E+02  0.45045681663E+02  0.00000000000E+00 0.  1.
         11    1    3    3    0    0  0.83292920700E+01  0.11193674503E+02  0.67800226240E+01  0.15512709702E+02  0.51100000000E-03 0. -1.
        -11    1    3    3    0    0  0.49858020761E+01  0.30001921392E+01  0.36466616467E+01  0.68671330729E+01  0.51100000000E-03 0.  1.
         12    1    3    3    0    0  0.11755808562E+02  0.10195678867E+02  0.17958405895E+02  0.23762475562E+02  0.00000000000E+00 0. -1.
</event>
<event>
 7    1  0.3919732E-008  0.4614232E+02  0.7816164E-02  0.1320468E+00
        -11   -1    0    0    0    0  0.00000000000E+00  0.00000000000E+00  0.45593999997E+02  0.45594000000E+02  0.51100000000E-03 0. -1.
         11   -1    0    0    0    0 -0.00000000000E+00 -0.00000000000E+00 -0.45593999997E+02  0.45594000000E+02  0.51100000000E-03 0.  1.
    9900012    2    1    2    0    0  0.38125486878E+02  0.13008110689E+02  0.20158119512E+02  0.46142317903E+02  0.10000001290E+02 0.  0.
        -12    1    1    2    0    0 -0.38125486878E+02 -0.13008110689E+02 -0.20158119512E+02  0.45045682097E+02  0.00000000000E+00 0.  1.
         11    1    3    3    0    0  0.17587855944E+02  0.43573593322E+01  0.14160157570E+02  0.22996289260E+02  0.51100000000E-03 0. -1.
        -11    1    3    3    0    0  0.14418556817E+02  0.69359814031E+01  0.42231619731E+01  0.16548042664E+02  0.51100000000E-03 0.  1.
         12    1    3    3    0    0  0.61190741167E+01  0.17147699536E+01  0.17747999690E+01  0.65979859783E+01  0.00000000000E+00 0. -1.
</event>
<event>
 7    1  0.3919732E-008  0.4614232E+02  0.7816164E-02  0.1320468E+00
        -11   -1    0    0    0    0  0.00000000000E+00  0.00000000000E+00  0.45593999997E+02  0.45594000000E+02  0.51100000000E-03 0. -1.
         11   -1    0    0    0    0 -0.00000000000E+00 -0.00000000000E+00 -0.45593999997E+02  0.45594000000E+02  0.51100000000E-03 0.  1.
    9900012    2    1    2    0    0 -0.16332775221E+02  0.41905641433E+02 -0.25042261379E+01  0.46142317867E+02  0.10000000963E+02 0.  0.
        -12    1    1    2    0    0  0.16332775221E+02 -0.41905641433E+02  0.25042261379E+01  0.45045682133E+02  0.00000000000E+00 0.  1.
         11    1    3    3    0    0 -0.11705776412E+01  0.11588484628E+02 -0.32358626663E+01  0.12088591127E+02  0.51100000000E-03 0.  1.
        -11    1    3    3    0    0 -0.68566531323E+01  0.15392194677E+02  0.17631177697E+01  0.16942311934E+02  0.51100000000E-03 0. -1.
        -12    1    3    3    0    0 -0.83055444473E+01  0.14924962128E+02 -0.10314812413E+01  0.17111414805E+02  0.00000000000E+00 0.  1.
</event>
<event>
 7    1  0.3919732E-008  0.4614232E+02  0.7816164E-02  0.1320468E+00
        -11   -1    0    0    0    0  0.00000000000E+00  0.00000000000E+00  0.45593999997E+02  0.45594000000E+02  0.51100000000E-03 0. -1.
         11   -1    0    0    0    0 -0.00000000000E+00 -0.00000000000E+00 -0.45593999997E+02  0.45594000000E+02  0.51100000000E-03 0.  1.
    9900012    2    1    2    0    0  0.45766140409E+01  0.23678710770E+02  0.38045850176E+02  0.46142318126E+02  0.10000003331E+02 0.  0.
        -12    1    1    2    0    0 -0.45766140409E+01 -0.23678710770E+02 -0.38045850176E+02  0.45045681874E+02  0.00000000000E+00 0.  1.
         11    1    3    3    0    0  0.95419397337E-01  0.17956905829E+02  0.27769295346E+02  0.33069522767E+02  0.51100000000E-03 0. -1.
        -11    1    3    3    0    0  0.20838640567E+01  0.44215197402E+01  0.43273924370E+01  0.65282962391E+01  0.51100000000E-03 0.  1.
         12    1    3    3    0    0  0.23973305868E+01  0.13002852017E+01  0.59491623933E+01  0.65444991198E+01  0.00000000000E+00 0. -1.
</event>
<event>
 7    1  0.3919732E-008  0.4614232E+02  0.7816164E-02  0.1320468E+00
        -11   -1    0    0    0    0  0.00000000000E+00  0.00000000000E+00  0.45593999997E+02  0.45594000000E+02  0.51100000000E-03 0. -1.
         11   -1    0    0    0    0 -0.00000000000E+00 -0.00000000000E+00 -0.45593999997E+02  0.45594000000E+02  0.51100000000E-03 0.  1.
    9900012    2    1    2    0    0 -0.39570570341E+02  0.21048539224E+02 -0.44991713817E+01  0.46142316703E+02  0.99999903511E+01 0.  0.
        -12    1    1    2    0    0  0.39570570341E+02 -0.21048539224E+02  0.44991713817E+01  0.45045683297E+02  0.00000000000E+00 0.  1.
         11    1    3    3    0    0 -0.55027222198E+01  0.55044420054E+01 -0.43094662968E+00  0.77951618892E+01  0.51100000000E-03 0. -1.
        -11    1    3    3    0    0 -0.20536888669E+02  0.12563313305E+02 -0.44680270681E+01  0.24485994028E+02  0.51100000000E-03 0.  1.
         12    1    3    3    0    0 -0.13530959452E+02  0.29807839136E+01  0.39980231612E+00  0.13861160785E+02  0.00000000000E+00 0. -1.
</event>
<event>
 7    1  0.3919732E-008  0.4614232E+02  0.7816164E-02  0.1320468E+00
        -11   -1    0    0    0    0  0.00000000000E+00  0.00000000000E+00  0.45593999997E+02  0.45594000000E+02  0.51100000000E-03 0.  1.
         11   -1    0    0    0    0 -0.00000000000E+00 -0.00000000000E+00 -0.45593999997E+02  0.45594000000E+02  0.51100000000E-03 0. -1.
    9900012    2    1    2    0    0 -0.15321223190E+02  0.19398216373E+02 -0.37657439149E+02  0.46142318722E+02  0.10000008765E+02 0.  0.
        -12    1    1    2    0    0  0.15321223190E+02 -0.19398216373E+02  0.37657439149E+02  0.45045681278E+02  0.00000000000E+00 0.  1.
         11    1    3    3    0    0 -0.28060437261E+01  0.59697264359E+00 -0.72090665213E+01  0.77589237720E+01  0.51100000000E-03 0. -1.
        -11    1    3    3    0    0 -0.24817400890E+01  0.43761302703E+01 -0.11441764691E+02  0.12498941136E+02  0.51100000000E-03 0.  1.
         12    1    3    3    0    0 -0.10033439375E+02  0.14425113459E+02 -0.19006607937E+02  0.25884453814E+02  0.00000000000E+00 0. -1.
</event>
<event>
 7    1  0.3919732E-008  0.4614232E+02  0.7816164E-02  0.1320468E+00
        -11   -1    0    0    0    0  0.00000000000E+00  0.00000000000E+00  0.45593999997E+02  0.45594000000E+02  0.51100000000E-03 0. -1.
         11   -1    0    0    0    0 -0.00000000000E+00 -0.00000000000E+00 -0.45593999997E+02  0.45594000000E+02  0.51100000000E-03 0.  1.
    9900012    2    1    2    0    0  0.21831259669E+02  0.35384256657E+02 -0.17333897835E+02  0.46142317276E+02  0.99999955755E+01 0.  0.
        -12    1    1    2    0    0 -0.21831259669E+02 -0.35384256657E+02  0.17333897835E+02  0.45045682724E+02  0.00000000000E+00 0.  1.
         11    1    3    3    0    0  0.10232168811E+02  0.11242808498E+02 -0.75998825278E+01  0.16995771127E+02  0.51100000000E-03 0. -1.
        -11    1    3    3    0    0 -0.21740459013E+00  0.39230574022E+01 -0.44843173266E+00  0.39545841016E+01  0.51100000000E-03 0.  1.
        -12    1    3    3    0    0  0.11816495449E+02  0.20218390757E+02 -0.92855835742E+01  0.25191962047E+02  0.00000000000E+00 0.  1.
</event>
<event>
 7    1  0.3919732E-008  0.4614232E+02  0.7816164E-02  0.1320468E+00
        -11   -1    0    0    0    0  0.00000000000E+00  0.00000000000E+00  0.45593999997E+02  0.45594000000E+02  0.51100000000E-03 0.  1.
         11   -1    0    0    0    0 -0.00000000000E+00 -0.00000000000E+00 -0.45593999997E+02  0.45594000000E+02  0.51100000000E-03 0. -1.
    9900012    2    1    2    0    0 -0.22112285686E+02  0.99607564559E+00 -0.39232232297E+02  0.46142318787E+02  0.10000009352E+02 0.  0.
        -12    1    1    2    0    0  0.22112285686E+02 -0.99607564559E+00  0.39232232297E+02  0.45045681213E+02  0.00000000000E+00 0.  1.
         11    1    3    3    0    0 -0.52005667991E+01  0.31541232773E+01 -0.10405318357E+02  0.12052594702E+02  0.51100000000E-03 0. -1.
        -11    1    3    3    0    0 -0.11005712090E+02  0.14549056461E+01 -0.15417799002E+02  0.18998709834E+02  0.51100000000E-03 0.  1.
        -12    1    3    3    0    0 -0.59060067978E+01 -0.36129532779E+01 -0.13409114939E+02  0.15091014251E+02  0.00000000000E+00 0.  1.
</event>
<event>
 7    1  0.4182445E-008  0.4614232E+02  0.7816164E-02  0.1320468E+00
        -11   -1    0    0    0    0  0.00000000000E+00  0.00000000000E+00  0.45593999997E+02  0.45594000000E+02  0.51100000000E-03 0.  1.
         11   -1    0    0    0    0 -0.00000000000E+00 -0.00000000000E+00 -0.45593999997E+02  0.45594000000E+02  0.51100000000E-03 0. -1.
    9900012    2    1    2    0    0 -0.30829865718E+02  0.11232132382E+02 -0.30862147875E+02  0.46142316639E+02  0.99999897635E+01 0.  0.
        -12    1    1    2    0    0  0.30829865718E+02 -0.11232132382E+02  0.30862147875E+02  0.45045683361E+02  0.00000000000E+00 0.  1.
         11    1    3    3    0    0 -0.17215207932E+02  0.89124223748E+01 -0.16568889281E+02  0.25501426411E+02  0.51100000000E-03 0. -1.
        -11    1    3    3    0    0 -0.99351118129E+01  0.38711364433E+01 -0.11930886596E+02  0.16001193684E+02  0.51100000000E-03 0.  1.
        -12    1    3    3    0    0 -0.36795459736E+01 -0.15514264359E+01 -0.23623719977E+01  0.46396965433E+01  0.00000000000E+00 0.  1.
</event>
<event>
 7    1  0.3919732E-008  0.4614233E+02  0.7816164E-02  0.1320468E+00
        -11   -1    0    0    0    0  0.00000000000E+00  0.00000000000E+00  0.45593999997E+02  0.45594000000E+02  0.51100000000E-03 0. -1.
         11   -1    0    0    0    0 -0.00000000000E+00 -0.00000000000E+00 -0.45593999997E+02  0.45594000000E+02  0.51100000000E-03 0.  1.
    9900012    2    1    2    0    0 -0.37483981483E+02  0.16886266879E+02  0.18409706379E+02  0.46142332441E+02  0.10000133864E+02 0.  0.
        -12    1    1    2    0    0  0.37483981483E+02 -0.16886266879E+02 -0.18409706379E+02  0.45045667559E+02  0.00000000000E+00 0.  1.
         11    1    3    3    0    0 -0.22536354713E+02  0.13142254080E+02  0.10508657185E+02  0.28125397814E+02  0.51100000000E-03 0. -1.
        -11    1    3    3    0    0 -0.93981631265E+01  0.32875370329E+01  0.74407654363E+01  0.12429736941E+02  0.51100000000E-03 0.  1.
        -12    1    3    3    0    0 -0.55494636429E+01  0.45647576550E+00  0.46028375690E+00  0.55871976862E+01  0.00000000000E+00 0.  1.
</event>
<event>
 7    1  0.3919732E-008  0.4614232E+02  0.7816164E-02  0.1320468E+00
        -11   -1    0    0    0    0  0.00000000000E+00  0.00000000000E+00  0.45593999997E+02  0.45594000000E+02  0.51100000000E-03 0. -1.
         11   -1    0    0    0    0 -0.00000000000E+00 -0.00000000000E+00 -0.45593999997E+02  0.45594000000E+02  0.51100000000E-03 0.  1.
    9900012    2    1    2    0    0  0.17987032682E+02  0.15181863713E+02  0.38406915736E+02  0.46142317555E+02  0.99999981237E+01 0.  0.
        -12    1    1    2    0    0 -0.17987032682E+02 -0.15181863713E+02 -0.38406915736E+02  0.45045682445E+02  0.00000000000E+00 0.  1.
         11    1    3    3    0    0  0.77258278490E+01  0.75192019382E+01  0.22465870424E+02  0.24918710799E+02  0.51100000000E-03 0. -1.
        -11    1    3    3    0    0  0.16752929361E+01  0.40242219390E+01  0.73446628299E+01  0.85407869065E+01  0.51100000000E-03 0.  1.
        -12    1    3    3    0    0  0.85859118972E+01  0.36384398361E+01  0.85963824827E+01  0.12682819850E+02  0.00000000000E+00 0.  1.
</event>
<event>
 7    1  0.3919732E-008  0.4614232E+02  0.7816164E-02  0.1320468E+00
        -11   -1    0    0    0    0  0.00000000000E+00  0.00000000000E+00  0.45593999997E+02  0.45594000000E+02  0.51100000000E-03 0.  1.
         11   -1    0    0    0    0 -0.00000000000E+00 -0.00000000000E+00 -0.45593999997E+02  0.45594000000E+02  0.51100000000E-03 0. -1.
    9900012    2    1    2    0    0  0.28483100256E+02  0.21938171605E+02 -0.27139330849E+02  0.46142315939E+02  0.99999833884E+01 0.  0.
        -12    1    1    2    0    0 -0.28483100256E+02 -0.21938171605E+02  0.27139330849E+02  0.45045684061E+02  0.00000000000E+00 0.  1.
         11    1    3    3    0    0  0.22749774658E+02  0.16419443886E+02 -0.21116656365E+02  0.35115004782E+02  0.51100000000E-03 0. -1.
        -11    1    3    3    0    0  0.50777009364E+01  0.61212033059E+01 -0.62421883415E+01  0.10110246894E+02  0.51100000000E-03 0.  1.
        -12    1    3    3    0    0  0.65562466118E+00 -0.60247558683E+00  0.21951385782E+00  0.91706426320E+00  0.00000000000E+00 0.  1.
</event>
<event>
 7    1  0.3919732E-008  0.4614232E+02  0.7816164E-02  0.1320468E+00
        -11   -1    0    0    0    0  0.00000000000E+00  0.00000000000E+00  0.45593999997E+02  0.45594000000E+02  0.51100000000E-03 0.  1.
         11   -1    0    0    0    0 -0.00000000000E+00 -0.00000000000E+00 -0.45593999997E+02  0.45594000000E+02  0.51100000000E-03 0. -1.
    9900012    2    1    2    0    0  0.22321002223E+02 -0.16540607661E+02 -0.35458350628E+02  0.46142317951E+02  0.10000001728E+02 0.  0.
        -12    1    1    2    0    0 -0.22321002223E+02  0.16540607661E+02  0.35458350628E+02  0.45045682049E+02  0.00000000000E+00 0.  1.
         11    1    3    3    0    0  0.90707676655E+01 -0.55960404322E+01 -0.15002077841E+02  0.18402631181E+02  0.51100000000E-03 0. -1.
        -11    1    3    3    0    0  0.58695394335E+01 -0.92944851506E+01 -0.13969339414E+02  0.17775865417E+02  0.51100000000E-03 0.  1.
        -12    1    3    3    0    0  0.73806951238E+01 -0.16500820778E+01 -0.64869333729E+01  0.99638213532E+01  0.00000000000E+00 0.  1.
</event>
<event>
 7    1  0.3919732E-008  0.4614232E+02  0.7816164E-02  0.1320468E+00
        -11   -1    0    0    0    0  0.00000000000E+00  0.00000000000E+00  0.45593999997E+02  0.45594000000E+02  0.51100000000E-03 0.  1.
         11   -1    0    0    0    0 -0.00000000000E+00 -0.00000000000E+00 -0.45593999997E+02  0.45594000000E+02  0.51100000000E-03 0. -1.
    9900012    2    1    2    0    0 -0.33131904588E+02  0.34397493172E+01 -0.30324223554E+02  0.46142317509E+02  0.99999976972E+01 0.  0.
        -12    1    1    2    0    0  0.33131904588E+02 -0.34397493172E+01  0.30324223554E+02  0.45045682491E+02  0.00000000000E+00 0.  1.
         11    1    3    3    0    0 -0.46754180785E+01 -0.11300352747E+01 -0.77842766210E+01  0.91504905172E+01  0.51100000000E-03 0.  1.
        -11    1    3    3    0    0 -0.48030473511E+01  0.32996676778E-01 -0.15579621997E+01  0.50495147405E+01  0.51100000000E-03 0. -1.
         12    1    3    3    0    0 -0.23653439158E+02  0.45367879151E+01 -0.20981984733E+02  0.31942312251E+02  0.00000000000E+00 0. -1.
</event>
<event>
 7    1  0.3919732E-008  0.4614232E+02  0.7816164E-02  0.1320468E+00
        -11   -1    0    0    0    0  0.00000000000E+00  0.00000000000E+00  0.45593999997E+02  0.45594000000E+02  0.51100000000E-03 0.  1.
         11   -1    0    0    0    0 -0.00000000000E+00 -0.00000000000E+00 -0.45593999997E+02  0.45594000000E+02  0.51100000000E-03 0. -1.
    9900012    2    1    2    0    0 -0.23592507166E+02 -0.34619912674E+02 -0.16552008440E+02  0.46142315065E+02  0.99999754117E+01 0.  0.
        -12    1    1    2    0    0  0.23592507166E+02  0.34619912674E+02  0.16552008440E+02  0.45045684935E+02  0.00000000000E+00 0.  1.
         11    1    3    3    0    0 -0.80463527933E+01 -0.17204934459E+02 -0.99796514120E+01  0.21455698674E+02  0.51100000000E-03 0. -1.
        -11    1    3    3    0    0 -0.12847116988E+01 -0.51132312699E+00 -0.14123535419E+01  0.19765318812E+01  0.51100000000E-03 0.  1.
         12    1    3    3    0    0 -0.14261442674E+02 -0.16903655088E+02 -0.51600034856E+01  0.22710084509E+02  0.00000000000E+00 0. -1.
</event>
<event>
 7    1  0.3919732E-008  0.4614232E+02  0.7816164E-02  0.1320468E+00
        -11   -1    0    0    0    0  0.00000000000E+00  0.00000000000E+00  0.45593999997E+02  0.45594000000E+02  0.51100000000E-03 0. -1.
         11   -1    0    0    0    0 -0.00000000000E+00 -0.00000000000E+00 -0.45593999997E+02  0.45594000000E+02  0.51100000000E-03 0.  1.
    9900012    2    1    2    0    0  0.12789340482E+02 -0.23769273802E+02  0.36063387916E+02  0.46142317022E+02  0.99999932559E+01 0.  0.
        -12    1    1    2    0    0 -0.12789340482E+02  0.23769273802E+02 -0.36063387916E+02  0.45045682978E+02  0.00000000000E+00 0.  1.
         11    1    3    3    0    0  0.11638348855E+02 -0.16762880744E+02  0.30094979362E+02  0.36361423486E+02  0.51100000000E-03 0. -1.
        -11    1    3    3    0    0  0.74536380135E+00 -0.69897430987E+01  0.61464416268E+01  0.93376025143E+01  0.51100000000E-03 0.  1.
        -12    1    3    3    0    0  0.40562782622E+00 -0.16649959614E-01 -0.17803307274E+00  0.44329102128E+00  0.00000000000E+00 0.  1.
</event>
<event>
 7    1  0.3919732E-008  0.4614232E+02  0.7816164E-02  0.1320468E+00
        -11   -1    0    0    0    0  0.00000000000E+00  0.00000000000E+00  0.45593999997E+02  0.45594000000E+02  0.51100000000E-03 0.  1.
         11   -1    0    0    0    0 -0.00000000000E+00 -0.00000000000E+00 -0.45593999997E+02  0.45594000000E+02  0.51100000000E-03 0. -1.
    9900012    2    1    2    0    0  0.19430507855E+02  0.29044082782E+02 -0.28425518487E+02  0.46142317838E+02  0.10000000704E+02 0.  0.
        -12    1    1    2    0    0 -0.19430507855E+02 -0.29044082782E+02  0.28425518487E+02  0.45045682162E+02  0.00000000000E+00 0.  1.
         11    1    3    3    0    0  0.88411130244E+01  0.10186851025E+02 -0.12950269675E+02  0.18698842163E+02  0.51100000000E-03 0.  1.
        -11    1    3    3    0    0 -0.66691427467E+00  0.34059657551E+01 -0.15975303609E+01  0.38206649801E+01  0.51100000000E-03 0. -1.
         12    1    3    3    0    0  0.11256309106E+02  0.15451266002E+02 -0.13877718451E+02  0.23622810695E+02  0.00000000000E+00 0. -1.
</event>
<event>
 7    1  0.3919732E-008  0.4614232E+02  0.7816164E-02  0.1320468E+00
        -11   -1    0    0    0    0  0.00000000000E+00  0.00000000000E+00  0.45593999997E+02  0.45594000000E+02  0.51100000000E-03 0. -1.
         11   -1    0    0    0    0 -0.00000000000E+00 -0.00000000000E+00 -0.45593999997E+02  0.45594000000E+02  0.51100000000E-03 0.  1.
    9900012    2    1    2    0    0  0.82763153448E+00  0.15384989138E+02  0.42328840927E+02  0.46142316089E+02  0.99999847542E+01 0.  0.
        -12    1    1    2    0    0 -0.82763153448E+00 -0.15384989138E+02 -0.42328840927E+02  0.45045683911E+02  0.00000000000E+00 0.  1.
         11    1    3    3    0    0 -0.17650553501E+01  0.99734495814E+00  0.96812467250E+01  0.98912413663E+01  0.51100000000E-03 0. -1.
        -11    1    3    3    0    0  0.16402826896E+01  0.14396641723E+02  0.31912359851E+02  0.35047860586E+02  0.51100000000E-03 0.  1.
        -12    1    3    3    0    0  0.95240419492E+00 -0.89975425801E-02  0.73523435172E+00  0.12032141365E+01  0.00000000000E+00 0.  1.
</event>
<event>
 7    1  0.3919732E-008  0.4614232E+02  0.7816164E-02  0.1320468E+00
        -11   -1    0    0    0    0  0.00000000000E+00  0.00000000000E+00  0.45593999997E+02  0.45594000000E+02  0.51100000000E-03 0. -1.
         11   -1    0    0    0    0 -0.00000000000E+00 -0.00000000000E+00 -0.45593999997E+02  0.45594000000E+02  0.51100000000E-03 0.  1.
    9900012    2    1    2    0    0  0.47308676254E+01  0.41815047561E+02 -0.16069664295E+02  0.46142318503E+02  0.10000006765E+02 0.  0.
        -12    1    1    2    0    0 -0.47308676254E+01 -0.41815047561E+02  0.16069664295E+02  0.45045681497E+02  0.00000000000E+00 0.  1.
         11    1    3    3    0    0  0.26694728754E+01  0.11909448216E+02 -0.78674624299E+01  0.14520950644E+02  0.51100000000E-03 0.  1.
        -11    1    3    3    0    0  0.41032930937E+01  0.18213597956E+02 -0.50325135133E+01  0.19336451516E+02  0.51100000000E-03 0. -1.
         12    1    3    3    0    0 -0.20418983437E+01  0.11692001388E+02 -0.31696883520E+01  0.12284916343E+02  0.00000000000E+00 0. -1.
</event>
<event>
 7    1  0.3919732E-008  0.4614232E+02  0.7816164E-02  0.1320468E+00
        -11   -1    0    0    0    0  0.00000000000E+00  0.00000000000E+00  0.45593999997E+02  0.45594000000E+02  0.51100000000E-03 0. -1.
         11   -1    0    0    0    0 -0.00000000000E+00 -0.00000000000E+00 -0.45593999997E+02  0.45594000000E+02  0.51100000000E-03 0.  1.
    9900012    2    1    2    0    0  0.44363088060E+02 -0.13857338380E+01 -0.76882825340E+01  0.46142317313E+02  0.99999959100E+01 0.  0.
        -12    1    1    2    0    0 -0.44363088060E+02  0.13857338380E+01  0.76882825340E+01  0.45045682687E+02  0.00000000000E+00 0.  1.
         11    1    3    3    0    0  0.99139297982E+01 -0.46193091477E+00  0.82625869501E+00  0.99590204291E+01  0.51100000000E-03 0. -1.
        -11    1    3    3    0    0  0.27480371575E+02 -0.41214391502E+00 -0.37785178008E+01  0.27741987700E+02  0.51100000000E-03 0.  1.
        -12    1    3    3    0    0  0.69687866860E+01 -0.51165900826E+00 -0.47360234282E+01  0.84413091833E+01  0.00000000000E+00 0.  1.
</event>
<event>
 7    1  0.3919732E-008  0.4614232E+02  0.7816164E-02  0.1320468E+00
        -11   -1    0    0    0    0  0.00000000000E+00  0.00000000000E+00  0.45593999997E+02  0.45594000000E+02  0.51100000000E-03 0.  1.
         11   -1    0    0    0    0 -0.00000000000E+00 -0.00000000000E+00 -0.45593999997E+02  0.45594000000E+02  0.51100000000E-03 0. -1.
    9900012    2    1    2    0    0  0.24828194104E+02 -0.55575827772E+01 -0.37172402914E+02  0.46142317774E+02  0.10000000117E+02 0.  0.
        -12    1    1    2    0    0 -0.24828194104E+02  0.55575827772E+01  0.37172402914E+02  0.45045682226E+02  0.00000000000E+00 0.  1.
         11    1    3    3    0    0  0.69347794066E+01 -0.11379958058E+01 -0.89689616986E+01  0.11394229859E+02  0.51100000000E-03 0. -1.
        -11    1    3    3    0    0  0.17147809538E+02 -0.21783136333E+01 -0.21181400588E+02  0.27339424891E+02  0.51100000000E-03 0.  1.
        -12    1    3    3    0    0  0.74560516009E+00 -0.22412733380E+01 -0.70220406272E+01  0.74086630238E+01  0.00000000000E+00 0.  1.
</event>
<event>
 7    1  0.3919732E-008  0.4614232E+02  0.7816164E-02  0.1320468E+00
        -11   -1    0    0    0    0  0.00000000000E+00  0.00000000000E+00  0.45593999997E+02  0.45594000000E+02  0.51100000000E-03 0.  1.
         11   -1    0    0    0    0 -0.00000000000E+00 -0.00000000000E+00 -0.45593999997E+02  0.45594000000E+02  0.51100000000E-03 0. -1.
    9900012    2    1    2    0    0  0.12636833591E+02 -0.14561265044E+02 -0.40711097912E+02  0.46142317675E+02  0.99999992185E+01 0.  0.
        -12    1    1    2    0    0 -0.12636833591E+02  0.14561265044E+02  0.40711097912E+02  0.45045682325E+02  0.00000000000E+00 0.  1.
         11    1    3    3    0    0  0.88288564388E+01 -0.48556250778E+01 -0.16527824627E+02  0.19357034589E+02  0.51100000000E-03 0.  1.
        -11    1    3    3    0    0  0.36803258046E+01 -0.59182546181E+01 -0.10619935873E+02  0.12702502665E+02  0.51100000000E-03 0. -1.
         12    1    3    3    0    0  0.12765134772E+00 -0.37873853478E+01 -0.13563337413E+02  0.14082780422E+02  0.00000000000E+00 0. -1.
</event>
<event>
 7    1  0.3919732E-008  0.4614232E+02  0.7816164E-02  0.1320468E+00
        -11   -1    0    0    0    0  0.00000000000E+00  0.00000000000E+00  0.45593999997E+02  0.45594000000E+02  0.51100000000E-03 0. -1.
         11   -1    0    0    0    0 -0.00000000000E+00 -0.00000000000E+00 -0.45593999997E+02  0.45594000000E+02  0.51100000000E-03 0.  1.
    9900012    2    1    2    0    0  0.38571427616E+01 -0.43032704004E+02  0.12744502715E+02  0.46142317481E+02  0.99999974464E+01 0.  0.
        -12    1    1    2    0    0 -0.38571427616E+01  0.43032704004E+02 -0.12744502715E+02  0.45045682519E+02  0.00000000000E+00 0.  1.
         11    1    3    3    0    0  0.63044322106E+01 -0.20077062859E+02  0.61855514568E+01  0.21933886241E+02  0.51100000000E-03 0. -1.
        -11    1    3    3    0    0 -0.23656146211E+01 -0.78876387710E+01  0.23223119791E+01  0.85559401066E+01  0.51100000000E-03 0.  1.
         12    1    3    3    0    0 -0.81674827891E-01 -0.15068002374E+02  0.42366392789E+01  0.15652491134E+02  0.00000000000E+00 0. -1.
</event>
<event>
 7    1  0.4383151E-008  0.4614232E+02  0.7816164E-02  0.1320468E+00
        -11   -1    0    0    0    0  0.00000000000E+00  0.00000000000E+00  0.45593999997E+02  0.45594000000E+02  0.51100000000E-03 0. -1.
         11   -1    0    0    0    0 -0.00000000000E+00 -0.00000000000E+00 -0.45593999997E+02  0.45594000000E+02  0.51100000000E-03 0.  1.
    9900012    2    1    2    0    0  0.81633938750E+01 -0.24037994287E+02  0.37210850410E+02  0.46142316998E+02  0.99999930376E+01 0.  0.
        -12    1    1    2    0    0 -0.81633938750E+01  0.24037994287E+02 -0.37210850410E+02  0.45045683002E+02  0.00000000000E+00 0.  1.
         11    1    3    3    0    0  0.14189214871E+01 -0.52531340810E+00  0.99846877156E+00  0.18127968756E+01  0.51100000000E-03 0. -1.
        -11    1    3    3    0    0  0.27019513499E+01 -0.18196724372E+01  0.28414954933E+01  0.43227127797E+01  0.51100000000E-03 0.  1.
         12    1    3    3    0    0  0.40425210380E+01 -0.21693008442E+02  0.33370886145E+02  0.40006807342E+02  0.00000000000E+00 0. -1.
</event>
<event>
 7    1  0.3919732E-008  0.4614232E+02  0.7816164E-02  0.1320468E+00
        -11   -1    0    0    0    0  0.00000000000E+00  0.00000000000E+00  0.45593999997E+02  0.45594000000E+02  0.51100000000E-03 0. -1.
         11   -1    0    0    0    0 -0.00000000000E+00 -0.00000000000E+00 -0.45593999997E+02  0.45594000000E+02  0.51100000000E-03 0.  1.
    9900012    2    1    2    0    0  0.57586923897E+01 -0.17522760411E+02  0.41096274172E+02  0.46142318506E+02  0.10000006794E+02 0.  0.
        -12    1    1    2    0    0 -0.57586923897E+01  0.17522760411E+02 -0.41096274172E+02  0.45045681494E+02  0.00000000000E+00 0.  1.
         11    1    3    3    0    0 -0.94613171058E+00 -0.17393202568E+01  0.45893936979E+01  0.49982932031E+01  0.51100000000E-03 0. -1.
        -11    1    3    3    0    0 -0.67605624779E+00 -0.63365839444E+01  0.80648165717E+01  0.10278648488E+02  0.51100000000E-03 0.  1.
         12    1    3    3    0    0  0.73808803481E+01 -0.94468562097E+01  0.28442063902E+02  0.30865376816E+02  0.00000000000E+00 0. -1.
</event>
<event>
 7    1  0.3919732E-008  0.4614231E+02  0.7816164E-02  0.1320468E+00
        -11   -1    0    0    0    0  0.00000000000E+00  0.00000000000E+00  0.45593999997E+02  0.45594000000E+02  0.51100000000E-03 0. -1.
         11   -1    0    0    0    0 -0.00000000000E+00 -0.00000000000E+00 -0.45593999997E+02  0.45594000000E+02  0.51100000000E-03 0.  1.
    9900012    2    1    2    0    0  0.44245349879E+02 -0.64271632272E+01 -0.54913076512E+01  0.46142313494E+02  0.99999610876E+01 0.  0.
        -12    1    1    2    0    0 -0.44245349879E+02  0.64271632272E+01  0.54913076512E+01  0.45045686506E+02  0.00000000000E+00 0.  1.
         11    1    3    3    0    0 -0.21030883176E+00 -0.42280931459E+00 -0.17246831224E+00  0.50273561747E+00  0.51100000000E-03 0. -1.
        -11    1    3    3    0    0  0.25414788468E+01 -0.15857704697E+01 -0.14141665772E+01  0.33126500087E+01  0.51100000000E-03 0.  1.
         12    1    3    3    0    0  0.41914179864E+02 -0.44185834430E+01 -0.39046727617E+01  0.42326927868E+02  0.00000000000E+00 0. -1.
</event>
<event>
 7    1  0.3919732E-008  0.4614232E+02  0.7816164E-02  0.1320468E+00
        -11   -1    0    0    0    0  0.00000000000E+00  0.00000000000E+00  0.45593999997E+02  0.45594000000E+02  0.51100000000E-03 0.  1.
         11   -1    0    0    0    0 -0.00000000000E+00 -0.00000000000E+00 -0.45593999997E+02  0.45594000000E+02  0.51100000000E-03 0. -1.
    9900012    2    1    2    0    0  0.44487056212E+02 -0.70322816994E+01 -0.74991959568E+00  0.46142317236E+02  0.99999952083E+01 0.  0.
        -12    1    1    2    0    0 -0.44487056212E+02  0.70322816994E+01  0.74991959568E+00  0.45045682764E+02  0.00000000000E+00 0.  1.
         11    1    3    3    0    0  0.12053106977E+02 -0.41788090270E+01  0.10497878034E+00  0.12757384273E+02  0.51100000000E-03 0. -1.
        -11    1    3    3    0    0  0.28213538668E+02 -0.19935987715E+01  0.17730475793E+01  0.28339405397E+02  0.51100000000E-03 0.  1.
        -12    1    3    3    0    0  0.42204105671E+01 -0.85987390095E+00 -0.26279459553E+01  0.50455275665E+01  0.00000000000E+00 0.  1.
</event>
<event>
 7    1  0.3919732E-008  0.4614232E+02  0.7816164E-02  0.1320468E+00
        -11   -1    0    0    0    0  0.00000000000E+00  0.00000000000E+00  0.45593999997E+02  0.45594000000E+02  0.51100000000E-03 0.  1.
         11   -1    0    0    0    0 -0.00000000000E+00 -0.00000000000E+00 -0.45593999997E+02  0.45594000000E+02  0.51100000000E-03 0. -1.
    9900012    2    1    2    0    0  0.11287728616E+02 -0.24329844291E+01 -0.43540570343E+02  0.46142317673E+02  0.99999991931E+01 0.  0.
        -12    1    1    2    0    0 -0.11287728616E+02  0.24329844291E+01  0.43540570343E+02  0.45045682327E+02  0.00000000000E+00 0.  1.
         11    1    3    3    0    0  0.99877997094E+01 -0.77646467802E+00 -0.32812545845E+02  0.34307757220E+02  0.51100000000E-03 0. -1.
        -11    1    3    3    0    0  0.26235262194E+01  0.19962370839E+00 -0.68238371396E+01  0.73135144095E+01  0.51100000000E-03 0.  1.
         12    1    3    3    0    0 -0.13235973125E+01 -0.18561434595E+01 -0.39041873588E+01  0.45210460427E+01  0.00000000000E+00 0. -1.
</event>
<event>
 7    1  0.3919732E-008  0.4614232E+02  0.7816164E-02  0.1320468E+00
        -11   -1    0    0    0    0  0.00000000000E+00  0.00000000000E+00  0.45593999997E+02  0.45594000000E+02  0.51100000000E-03 0. -1.
         11   -1    0    0    0    0 -0.00000000000E+00 -0.00000000000E+00 -0.45593999997E+02  0.45594000000E+02  0.51100000000E-03 0.  1.
    9900012    2    1    2    0    0 -0.37195769938E+02  0.19425154550E+01  0.25334064997E+02  0.46142317445E+02  0.99999971191E+01 0.  0.
        -12    1    1    2    0    0  0.37195769938E+02 -0.19425154550E+01 -0.25334064997E+02  0.45045682555E+02  0.00000000000E+00 0.  1.
         11    1    3    3    0    0 -0.15882639417E+02 -0.58050895166E+00  0.98400272392E+01  0.18692815781E+02  0.51100000000E-03 0. -1.
        -11    1    3    3    0    0 -0.95949084353E+01  0.38323523045E+01  0.42999703632E+01  0.11191020394E+02  0.51100000000E-03 0.  1.
        -12    1    3    3    0    0 -0.11718222086E+02 -0.13093278978E+01  0.11194067394E+02  0.16258481270E+02  0.00000000000E+00 0.  1.
</event>
<event>
 7    1  0.3919732E-008  0.4614232E+02  0.7816164E-02  0.1320468E+00
        -11   -1    0    0    0    0  0.00000000000E+00  0.00000000000E+00  0.45593999997E+02  0.45594000000E+02  0.51100000000E-03 0.  1.
         11   -1    0    0    0    0 -0.00000000000E+00 -0.00000000000E+00 -0.45593999997E+02  0.45594000000E+02  0.51100000000E-03 0. -1.
    9900012    2    1    2    0    0 -0.97794764057E+01  0.98245684795E+01 -0.42859691649E+02  0.46142317933E+02  0.10000001571E+02 0.  0.
        -12    1    1    2    0    0  0.97794764057E+01 -0.98245684795E+01  0.42859691649E+02  0.45045682067E+02  0.00000000000E+00 0.  1.
         11    1    3    3    0    0  0.40455561653E+00  0.16471275890E+01 -0.17507490757E+02  0.17589455006E+02  0.51100000000E-03 0. -1.
        -11    1    3    3    0    0 -0.48654157081E+01  0.32281483937E+01 -0.12277349767E+02  0.13595092115E+02  0.51100000000E-03 0.  1.
        -12    1    3    3    0    0 -0.53186163141E+01  0.49492924968E+01 -0.13074851125E+02  0.14957770812E+02  0.00000000000E+00 0.  1.
</event>
<event>
 7    1  0.3919732E-008  0.4614232E+02  0.7816164E-02  0.1320468E+00
        -11   -1    0    0    0    0  0.00000000000E+00  0.00000000000E+00  0.45593999997E+02  0.45594000000E+02  0.51100000000E-03 0.  1.
         11   -1    0    0    0    0 -0.00000000000E+00 -0.00000000000E+00 -0.45593999997E+02  0.45594000000E+02  0.51100000000E-03 0. -1.
    9900012    2    1    2    0    0 -0.25427082280E+02 -0.96519142141E+01 -0.35908460729E+02  0.46142317485E+02  0.99999974846E+01 0.  0.
        -12    1    1    2    0    0  0.25427082280E+02  0.96519142141E+01  0.35908460729E+02  0.45045682515E+02  0.00000000000E+00 0.  1.
         11    1    3    3    0    0 -0.13562983546E+02 -0.38035474083E+01 -0.14507132502E+02  0.20220741560E+02  0.51100000000E-03 0. -1.
        -11    1    3    3    0    0 -0.38237126938E+01 -0.52640230279E+01 -0.10712850208E+02  0.12533789413E+02  0.51100000000E-03 0.  1.
        -12    1    3    3    0    0 -0.80403860398E+01 -0.58434377784E+00 -0.10688478019E+02  0.13387786512E+02  0.00000000000E+00 0.  1.
</event>
<event>
 7    1  0.3919732E-008  0.4614232E+02  0.7816164E-02  0.1320468E+00
        -11   -1    0    0    0    0  0.00000000000E+00  0.00000000000E+00  0.45593999997E+02  0.45594000000E+02  0.51100000000E-03 0.  1.
         11   -1    0    0    0    0 -0.00000000000E+00 -0.00000000000E+00 -0.45593999997E+02  0.45594000000E+02  0.51100000000E-03 0. -1.
    9900012    2    1    2    0    0 -0.12024503136E+02 -0.10737124795E+02 -0.42062321166E+02  0.46142318893E+02  0.10000010321E+02 0.  0.
        -12    1    1    2    0    0  0.12024503136E+02  0.10737124795E+02  0.42062321166E+02  0.45045681107E+02  0.00000000000E+00 0.  1.
         11    1    3    3    0    0 -0.34394409748E+01 -0.36368426537E+01 -0.73828976687E+01  0.89198406350E+01  0.51100000000E-03 0. -1.
        -11    1    3    3    0    0 -0.74260684740E+00  0.12655646433E+01 -0.14205959551E+01  0.20423545053E+01  0.51100000000E-03 0.  1.
         12    1    3    3    0    0 -0.78424553141E+01 -0.83658467848E+01 -0.33258827542E+02  0.35180123753E+02  0.00000000000E+00 0. -1.
</event>
<event>
 7    1  0.3919732E-008  0.4614232E+02  0.7816164E-02  0.1320468E+00
        -11   -1    0    0    0    0  0.00000000000E+00  0.00000000000E+00  0.45593999997E+02  0.45594000000E+02  0.51100000000E-03 0.  1.
         11   -1    0    0    0    0 -0.00000000000E+00 -0.00000000000E+00 -0.45593999997E+02  0.45594000000E+02  0.51100000000E-03 0. -1.
    9900012    2    1    2    0    0 -0.49437969277E+01 -0.19588067087E+02 -0.40261394294E+02  0.46142319067E+02  0.10000011904E+02 0.  0.
        -12    1    1    2    0    0  0.49437969277E+01  0.19588067087E+02  0.40261394294E+02  0.45045680933E+02  0.00000000000E+00 0.  1.
         11    1    3    3    0    0  0.13066499495E+01 -0.43257072342E+01 -0.10305245415E+02  0.11252429093E+02  0.51100000000E-03 0. -1.
        -11    1    3    3    0    0  0.10123717409E+01 -0.47027305554E+00 -0.71676205638E+00  0.13265750620E+01  0.51100000000E-03 0.  1.
        -12    1    3    3    0    0 -0.72628186181E+01 -0.14792086798E+02 -0.29239386822E+02  0.33563314911E+02  0.00000000000E+00 0.  1.
</event>
<event>
 7    1  0.3919732E-008  0.4614232E+02  0.7816164E-02  0.1320468E+00
        -11   -1    0    0    0    0  0.00000000000E+00  0.00000000000E+00  0.45593999997E+02  0.45594000000E+02  0.51100000000E-03 0.  1.
         11   -1    0    0    0    0 -0.00000000000E+00 -0.00000000000E+00 -0.45593999997E+02  0.45594000000E+02  0.51100000000E-03 0. -1.
    9900012    2    1    2    0    0 -0.23215060261E+02  0.34875205779E+02 -0.16549757553E+02  0.46142317898E+02  0.10000001244E+02 0.  0.
        -12    1    1    2    0    0  0.23215060261E+02 -0.34875205779E+02  0.16549757553E+02  0.45045682102E+02  0.00000000000E+00 0.  1.
         11    1    3    3    0    0 -0.18119397455E+02  0.26692452700E+02 -0.84574053321E+01  0.33351571185E+02  0.51100000000E-03 0. -1.
        -11    1    3    3    0    0  0.22109619219E+00  0.29081937547E+00 -0.14618461933E+00  0.39348397604E+00  0.51100000000E-03 0.  1.
         12    1    3    3    0    0 -0.53167589982E+01  0.78919337030E+01 -0.79461676012E+01  0.12397262737E+02  0.00000000000E+00 0. -1.
</event>
<event>
 7    1  0.3919732E-008  0.4614232E+02  0.7816164E-02  0.1320468E+00
        -11   -1    0    0    0    0  0.00000000000E+00  0.00000000000E+00  0.45593999997E+02  0.45594000000E+02  0.51100000000E-03 0.  1.
         11   -1    0    0    0    0 -0.00000000000E+00 -0.00000000000E+00 -0.45593999997E+02  0.45594000000E+02  0.51100000000E-03 0. -1.
    9900012    2    1    2    0    0 -0.24988250564E+02  0.27582623572E+02 -0.25375179779E+02  0.46142317208E+02  0.99999949578E+01 0.  0.
        -12    1    1    2    0    0  0.24988250564E+02 -0.27582623572E+02  0.25375179779E+02  0.45045682792E+02  0.00000000000E+00 0.  1.
         11    1    3    3    0    0 -0.75336100450E+01  0.68722267168E+01 -0.75074710941E+01  0.12662736783E+02  0.51100000000E-03 0. -1.
        -11    1    3    3    0    0 -0.77637046908E+01  0.34314995776E+01 -0.48837103000E+01  0.97929018392E+01  0.51100000000E-03 0.  1.
         12    1    3    3    0    0 -0.96909358287E+01  0.17278897278E+02 -0.12983998385E+02  0.23686678586E+02  0.00000000000E+00 0. -1.
</event>
<event>
 7    1  0.3919732E-008  0.4614232E+02  0.7816164E-02  0.1320468E+00
        -11   -1    0    0    0    0  0.00000000000E+00  0.00000000000E+00  0.45593999997E+02  0.45594000000E+02  0.51100000000E-03 0.  1.
         11   -1    0    0    0    0 -0.00000000000E+00 -0.00000000000E+00 -0.45593999997E+02  0.45594000000E+02  0.51100000000E-03 0. -1.
    9900012    2    1    2    0    0  0.39070250479E+02  0.12416756712E+02 -0.18666899231E+02  0.46142318225E+02  0.10000004226E+02 0.  0.
        -12    1    1    2    0    0 -0.39070250479E+02 -0.12416756712E+02  0.18666899231E+02  0.45045681775E+02  0.00000000000E+00 0.  1.
         11    1    3    3    0    0  0.34545123274E+01  0.14925231506E+01 -0.45221223562E+01  0.58831005126E+01  0.51100000000E-03 0. -1.
        -11    1    3    3    0    0  0.14734136027E+02  0.61769161415E+01 -0.35453809619E+01  0.16365169841E+02  0.51100000000E-03 0.  1.
         12    1    3    3    0    0  0.20881602124E+02  0.47473174199E+01 -0.10599395913E+02  0.23894047871E+02  0.00000000000E+00 0. -1.
</event>
<event>
 7    1  0.3919732E-008  0.4614232E+02  0.7816164E-02  0.1320468E+00
        -11   -1    0    0    0    0  0.00000000000E+00  0.00000000000E+00  0.45593999997E+02  0.45594000000E+02  0.51100000000E-03 0.  1.
         11   -1    0    0    0    0 -0.00000000000E+00 -0.00000000000E+00 -0.45593999997E+02  0.45594000000E+02  0.51100000000E-03 0. -1.
    9900012    2    1    2    0    0  0.17377523392E+02 -0.77627384422E+01 -0.40827381740E+02  0.46142317331E+02  0.99999960785E+01 0.  0.
        -12    1    1    2    0    0 -0.17377523392E+02  0.77627384422E+01  0.40827381740E+02  0.45045682669E+02  0.00000000000E+00 0.  1.
         11    1    3    3    0    0  0.33367697171E+01  0.57793738268E+00 -0.11794996595E+02  0.12271511264E+02  0.51100000000E-03 0. -1.
        -11    1    3    3    0    0  0.12793659212E+02 -0.50839083623E+01 -0.20953418315E+02  0.25071289947E+02  0.51100000000E-03 0.  1.
        -12    1    3    3    0    0  0.12470944630E+01 -0.32567674625E+01 -0.80789668298E+01  0.87995161198E+01  0.00000000000E+00 0.  1.
</event>
<event>
 7    1  0.4939690E-008  0.4614232E+02  0.7816164E-02  0.1320468E+00
        -11   -1    0    0    0    0  0.00000000000E+00  0.00000000000E+00  0.45593999997E+02  0.45594000000E+02  0.51100000000E-03 0.  1.
         11   -1    0    0    0    0 -0.00000000000E+00 -0.00000000000E+00 -0.45593999997E+02  0.45594000000E+02  0.51100000000E-03 0. -1.
    9900012    2    1    2    0    0  0.44982565443E+02  0.18756338697E+01  0.14711521523E+01  0.46142317799E+02  0.10000000349E+02 0.  0.
        -12    1    1    2    0    0 -0.44982565443E+02 -0.18756338697E+01 -0.14711521523E+01  0.45045682201E+02  0.00000000000E+00 0.  1.
         11    1    3    3    0    0  0.36236197702E+02  0.73250522535E+00 -0.11364542544E+00  0.36243778823E+02  0.51100000000E-03 0. -1.
        -11    1    3    3    0    0  0.91082868011E+01  0.11498581971E+01  0.10328735012E+01  0.92385004333E+01  0.51100000000E-03 0.  1.
        -12    1    3    3    0    0 -0.36191905982E+00 -0.67295527319E-02  0.55192407657E+00  0.66003854360E+00  0.00000000000E+00 0.  1.
</event>
<event>
 7    1  0.3919732E-008  0.4614232E+02  0.7816164E-02  0.1320468E+00
        -11   -1    0    0    0    0  0.00000000000E+00  0.00000000000E+00  0.45593999997E+02  0.45594000000E+02  0.51100000000E-03 0. -1.
         11   -1    0    0    0    0 -0.00000000000E+00 -0.00000000000E+00 -0.45593999997E+02  0.45594000000E+02  0.51100000000E-03 0.  1.
    9900012    2    1    2    0    0 -0.12946624109E+02 -0.37232732315E+02 -0.21799592305E+02  0.46142315899E+02  0.99999830186E+01 0.  0.
        -12    1    1    2    0    0  0.12946624109E+02  0.37232732315E+02  0.21799592305E+02  0.45045684101E+02  0.00000000000E+00 0.  1.
         11    1    3    3    0    0 -0.59612962615E+01 -0.12388072657E+02 -0.10140242355E+02  0.17082912883E+02  0.51100000000E-03 0. -1.
        -11    1    3    3    0    0 -0.60163890794E+01 -0.23433852578E+02 -0.12409449568E+02  0.27190748851E+02  0.51100000000E-03 0.  1.
         12    1    3    3    0    0 -0.96893876771E+00 -0.14108070798E+01  0.75009961840E+00  0.18686541653E+01  0.00000000000E+00 0. -1.
</event>
<event>
 7    1  0.3919732E-008  0.4614232E+02  0.7816164E-02  0.1320468E+00
        -11   -1    0    0    0    0  0.00000000000E+00  0.00000000000E+00  0.45593999997E+02  0.45594000000E+02  0.51100000000E-03 0.  1.
         11   -1    0    0    0    0 -0.00000000000E+00 -0.00000000000E+00 -0.45593999997E+02  0.45594000000E+02  0.51100000000E-03 0. -1.
    9900012    2    1    2    0    0 -0.33002347512E+02 -0.30106815451E+02 -0.57912182203E+01  0.46142317783E+02  0.10000000203E+02 0.  0.
        -12    1    1    2    0    0  0.33002347512E+02  0.30106815451E+02  0.57912182203E+01  0.45045682217E+02  0.00000000000E+00 0.  1.
         11    1    3    3    0    0 -0.11995361172E+02 -0.11023086748E+02  0.12652160277E+01  0.16340070470E+02  0.51100000000E-03 0.  1.
        -11    1    3    3    0    0 -0.16615844288E+02 -0.16447577721E+02 -0.36793494244E+01  0.23667418675E+02  0.51100000000E-03 0. -1.
         12    1    3    3    0    0 -0.43911420508E+01 -0.26361509822E+01 -0.33770848236E+01  0.61348286379E+01  0.00000000000E+00 0. -1.
</event>
<event>
 7    1  0.3919732E-008  0.4614232E+02  0.7816164E-02  0.1320468E+00
        -11   -1    0    0    0    0  0.00000000000E+00  0.00000000000E+00  0.45593999997E+02  0.45594000000E+02  0.51100000000E-03 0.  1.
         11   -1    0    0    0    0 -0.00000000000E+00 -0.00000000000E+00 -0.45593999997E+02  0.45594000000E+02  0.51100000000E-03 0. -1.
    9900012    2    1    2    0    0 -0.26943911572E+02  0.34576602673E+02 -0.10372931528E+02  0.46142317280E+02  0.99999956119E+01 0.  0.
        -12    1    1    2    0    0  0.26943911572E+02 -0.34576602673E+02  0.10372931528E+02  0.45045682720E+02  0.00000000000E+00 0.  1.
         11    1    3    3    0    0 -0.92317054670E+01  0.13279116405E+02 -0.63400825612E+01  0.17371124473E+02  0.51100000000E-03 0. -1.
        -11    1    3    3    0    0 -0.72470316972E+01  0.71885949686E+01 -0.45985411631E+01  0.11195621784E+02  0.51100000000E-03 0.  1.
        -12    1    3    3    0    0 -0.10465174408E+02  0.14108891300E+02  0.56569219680E+00  0.17575571023E+02  0.00000000000E+00 0.  1.
</event>
<event>
 7    1  0.3919732E-008  0.4614232E+02  0.7816164E-02  0.1320468E+00
        -11   -1    0    0    0    0  0.00000000000E+00  0.00000000000E+00  0.45593999997E+02  0.45594000000E+02  0.51100000000E-03 0.  1.
         11   -1    0    0    0    0 -0.00000000000E+00 -0.00000000000E+00 -0.45593999997E+02  0.45594000000E+02  0.51100000000E-03 0. -1.
    9900012    2    1    2    0    0  0.28671301800E+02 -0.19861884674E+02 -0.28505710049E+02  0.46142317464E+02  0.99999972924E+01 0.  0.
        -12    1    1    2    0    0 -0.28671301800E+02  0.19861884674E+02  0.28505710049E+02  0.45045682536E+02  0.00000000000E+00 0.  1.
         11    1    3    3    0    0  0.45676602516E+01 -0.41439481307E+01 -0.46149588893E+01  0.77028353283E+01  0.51100000000E-03 0. -1.
        -11    1    3    3    0    0  0.50540215392E+01 -0.16281759175E+01 -0.82723546100E+00  0.53738635362E+01  0.51100000000E-03 0.  1.
        -12    1    3    3    0    0  0.19049620009E+02 -0.14089760626E+02 -0.23063515699E+02  0.33065618600E+02  0.00000000000E+00 0.  1.
</event>
<event>
 7    1  0.3919732E-008  0.4614232E+02  0.7816164E-02  0.1320468E+00
        -11   -1    0    0    0    0  0.00000000000E+00  0.00000000000E+00  0.45593999997E+02  0.45594000000E+02  0.51100000000E-03 0. -1.
         11   -1    0    0    0    0 -0.00000000000E+00 -0.00000000000E+00 -0.45593999997E+02  0.45594000000E+02  0.51100000000E-03 0.  1.
    9900012    2    1    2    0    0  0.26057224083E+02  0.23176903584E+02  0.28512551446E+02  0.46142319002E+02  0.10000011311E+02 0.  0.
        -12    1    1    2    0    0 -0.26057224083E+02 -0.23176903584E+02 -0.28512551446E+02  0.45045680998E+02  0.00000000000E+00 0.  1.
         11    1    3    3    0    0  0.22630489770E+02  0.19851571580E+02  0.25366226777E+02  0.39365840809E+02  0.51100000000E-03 0. -1.
        -11    1    3    3    0    0  0.31480817219E+01  0.11897566677E+01  0.31691051228E+01  0.46226796338E+01  0.51100000000E-03 0.  1.
         12    1    3    3    0    0  0.27865259090E+00  0.21355753364E+01 -0.22780453438E-01  0.21537985590E+01  0.00000000000E+00 0. -1.
</event>
<event>
 7    1  0.3919732E-008  0.4614232E+02  0.7816164E-02  0.1320468E+00
        -11   -1    0    0    0    0  0.00000000000E+00  0.00000000000E+00  0.45593999997E+02  0.45594000000E+02  0.51100000000E-03 0.  1.
         11   -1    0    0    0    0 -0.00000000000E+00 -0.00000000000E+00 -0.45593999997E+02  0.45594000000E+02  0.51100000000E-03 0. -1.
    9900012    2    1    2    0    0  0.67362127665E+01 -0.25966504721E+01 -0.44463403510E+02  0.46142318655E+02  0.10000008153E+02 0.  0.
        -12    1    1    2    0    0 -0.67362127665E+01  0.25966504721E+01  0.44463403510E+02  0.45045681345E+02  0.00000000000E+00 0.  1.
         11    1    3    3    0    0  0.46468970777E+01 -0.30022236929E-01 -0.95783350049E+01  0.10646081698E+02  0.51100000000E-03 0. -1.
        -11    1    3    3    0    0 -0.90876166030E+00  0.12027852847E+01 -0.13020843157E+02  0.13107818163E+02  0.51100000000E-03 0.  1.
         12    1    3    3    0    0  0.29980773490E+01 -0.37694135198E+01 -0.21864225348E+02  0.22388418795E+02  0.00000000000E+00 0. -1.
</event>
<event>
 7    1  0.3919732E-008  0.4614232E+02  0.7816164E-02  0.1320468E+00
        -11   -1    0    0    0    0  0.00000000000E+00  0.00000000000E+00  0.45593999997E+02  0.45594000000E+02  0.51100000000E-03 0. -1.
         11   -1    0    0    0    0 -0.00000000000E+00 -0.00000000000E+00 -0.45593999997E+02  0.45594000000E+02  0.51100000000E-03 0.  1.
    9900012    2    1    2    0    0 -0.36997898343E+02 -0.24158232338E+02  0.87549299190E+01  0.46142317972E+02  0.10000001923E+02 0.  0.
        -12    1    1    2    0    0  0.36997898343E+02  0.24158232338E+02 -0.87549299190E+01  0.45045682028E+02  0.00000000000E+00 0.  1.
         11    1    3    3    0    0 -0.10227519634E+01 -0.23690567527E+00  0.90049985698E+00  0.13831291087E+01  0.51100000000E-03 0.  1.
        -11    1    3    3    0    0 -0.20945059403E+02 -0.12443175449E+02  0.85920166497E+01  0.25833135292E+02  0.51100000000E-03 0. -1.
         12    1    3    3    0    0 -0.15030086977E+02 -0.11478151214E+02 -0.73758658769E+00  0.18926053571E+02  0.00000000000E+00 0. -1.
</event>
<event>
 7    1  0.3919732E-008  0.4614232E+02  0.7816164E-02  0.1320468E+00
        -11   -1    0    0    0    0  0.00000000000E+00  0.00000000000E+00  0.45593999997E+02  0.45594000000E+02  0.51100000000E-03 0.  1.
         11   -1    0    0    0    0 -0.00000000000E+00 -0.00000000000E+00 -0.45593999997E+02  0.45594000000E+02  0.51100000000E-03 0. -1.
    9900012    2    1    2    0    0  0.54707893630E+01  0.30074072412E+02 -0.33086767069E+02  0.46142317379E+02  0.99999965167E+01 0.  0.
        -12    1    1    2    0    0 -0.54707893630E+01 -0.30074072412E+02  0.33086767069E+02  0.45045682621E+02  0.00000000000E+00 0.  1.
         11    1    3    3    0    0  0.59452499315E+00  0.77993821783E+01 -0.61692242633E+01  0.99620856553E+01  0.51100000000E-03 0.  1.
        -11    1    3    3    0    0  0.46583436150E+01  0.11298495916E+02 -0.90411926044E+01  0.15201951821E+02  0.51100000000E-03 0. -1.
        -12    1    3    3    0    0  0.21792075491E+00  0.10976194317E+02 -0.17876350201E+02  0.20978279903E+02  0.00000000000E+00 0.  1.
</event>
<event>
 7    1  0.3919732E-008  0.4614232E+02  0.7816164E-02  0.1320468E+00
        -11   -1    0    0    0    0  0.00000000000E+00  0.00000000000E+00  0.45593999997E+02  0.45594000000E+02  0.51100000000E-03 0. -1.
         11   -1    0    0    0    0 -0.00000000000E+00 -0.00000000000E+00 -0.45593999997E+02  0.45594000000E+02  0.51100000000E-03 0.  1.
    9900012    2    1    2    0    0 -0.37984573793E+02 -0.23584085954E+02 -0.54842089966E+01  0.46142317579E+02  0.99999983369E+01 0.  0.
        -12    1    1    2    0    0  0.37984573793E+02  0.23584085954E+02  0.54842089966E+01  0.45045682421E+02  0.00000000000E+00 0.  1.
         11    1    3    3    0    0 -0.33558939143E+01 -0.10634599962E+01  0.10115210801E+01  0.36628057940E+01  0.51100000000E-03 0. -1.
        -11    1    3    3    0    0 -0.26910231706E+02 -0.18022634229E+02 -0.19259567454E+01  0.32445110952E+02  0.51100000000E-03 0.  1.
        -12    1    3    3    0    0 -0.77184481723E+01 -0.44979917285E+01 -0.45697733314E+01  0.10034400833E+02  0.00000000000E+00 0.  1.
</event>
<event>
 7    1  0.6322203E-008  0.4614232E+02  0.7816164E-02  0.1320468E+00
        -11   -1    0    0    0    0  0.00000000000E+00  0.00000000000E+00  0.45593999997E+02  0.45594000000E+02  0.51100000000E-03 0. -1.
         11   -1    0    0    0    0 -0.00000000000E+00 -0.00000000000E+00 -0.45593999997E+02  0.45594000000E+02  0.51100000000E-03 0.  1.
    9900012    2    1    2    0    0 -0.13891086919E+02 -0.37731900721E+02  0.20308986384E+02  0.46142317013E+02  0.99999931812E+01 0.  0.
        -12    1    1    2    0    0  0.13891086919E+02  0.37731900721E+02 -0.20308986384E+02  0.45045682987E+02  0.00000000000E+00 0.  1.
         11    1    3    3    0    0 -0.61537036419E+00 -0.36098233571E+01  0.80384365683E+00  0.37490892548E+01  0.51100000000E-03 0. -1.
        -11    1    3    3    0    0  0.10429072059E+01 -0.30096909545E+01  0.49967174154E+00  0.32242157484E+01  0.51100000000E-03 0.  1.
         12    1    3    3    0    0 -0.14318623760E+02 -0.31112386409E+02  0.19005470986E+02  0.39169012010E+02  0.00000000000E+00 0. -1.
</event>
<event>
 7    1  0.3919732E-008  0.4614232E+02  0.7816164E-02  0.1320468E+00
        -11   -1    0    0    0    0  0.00000000000E+00  0.00000000000E+00  0.45593999997E+02  0.45594000000E+02  0.51100000000E-03 0.  1.
         11   -1    0    0    0    0 -0.00000000000E+00 -0.00000000000E+00 -0.45593999997E+02  0.45594000000E+02  0.51100000000E-03 0. -1.
    9900012    2    1    2    0    0  0.29344445586E+02  0.94052206289E+01 -0.32856640787E+02  0.46142317569E+02  0.99999982493E+01 0.  0.
        -12    1    1    2    0    0 -0.29344445586E+02 -0.94052206289E+01  0.32856640787E+02  0.45045682431E+02  0.00000000000E+00 0.  1.
         11    1    3    3    0    0  0.87964844563E+01  0.12807710711E+01 -0.61676426887E+01  0.10819349792E+02  0.51100000000E-03 0. -1.
        -11    1    3    3    0    0  0.13704635213E+01  0.29844916693E+01 -0.37115876904E+01  0.49559302085E+01  0.51100000000E-03 0.  1.
         12    1    3    3    0    0  0.19177497609E+02  0.51399578886E+01 -0.22977410408E+02  0.30367037569E+02  0.00000000000E+00 0. -1.
</event>
<event>
 7    1  0.3919732E-008  0.4614232E+02  0.7816164E-02  0.1320468E+00
        -11   -1    0    0    0    0  0.00000000000E+00  0.00000000000E+00  0.45593999997E+02  0.45594000000E+02  0.51100000000E-03 0.  1.
         11   -1    0    0    0    0 -0.00000000000E+00 -0.00000000000E+00 -0.45593999997E+02  0.45594000000E+02  0.51100000000E-03 0. -1.
    9900012    2    1    2    0    0  0.41284285109E+02 -0.31642809224E+01  0.17740029944E+02  0.46142317264E+02  0.99999954651E+01 0.  0.
        -12    1    1    2    0    0 -0.41284285109E+02  0.31642809224E+01 -0.17740029944E+02  0.45045682736E+02  0.00000000000E+00 0.  1.
         11    1    3    3    0    0  0.12609351794E+02  0.21245426533E+01  0.22939925766E+01  0.12991221511E+02  0.51100000000E-03 0. -1.
        -11    1    3    3    0    0  0.79285055293E+01 -0.27063607838E+01  0.52922496400E+01  0.99092630974E+01  0.51100000000E-03 0.  1.
        -12    1    3    3    0    0  0.20746427786E+02 -0.25824627919E+01  0.10153787728E+02  0.23241832655E+02  0.00000000000E+00 0.  1.
</event>
<event>
 7    1  0.3919732E-008  0.4614232E+02  0.7816164E-02  0.1320468E+00
        -11   -1    0    0    0    0  0.00000000000E+00  0.00000000000E+00  0.45593999997E+02  0.45594000000E+02  0.51100000000E-03 0.  1.
         11   -1    0    0    0    0 -0.00000000000E+00 -0.00000000000E+00 -0.45593999997E+02  0.45594000000E+02  0.51100000000E-03 0. -1.
    9900012    2    1    2    0    0 -0.27349165942E+02 -0.49421746771E+01 -0.35450127499E+02  0.46142317544E+02  0.99999980182E+01 0.  0.
        -12    1    1    2    0    0  0.27349165942E+02  0.49421746771E+01  0.35450127499E+02  0.45045682456E+02  0.00000000000E+00 0.  1.
         11    1    3    3    0    0 -0.49033310762E+01 -0.20080914731E+00 -0.40388045576E+01  0.63556999986E+01  0.51100000000E-03 0. -1.
        -11    1    3    3    0    0 -0.18409386450E+02 -0.61045089555E+01 -0.21261233809E+02  0.28778648377E+02  0.51100000000E-03 0.  1.
        -12    1    3    3    0    0 -0.40364484150E+01  0.13631434257E+01 -0.10150089133E+02  0.11007969168E+02  0.00000000000E+00 0.  1.
</event>
<event>
 7    1  0.3919732E-008  0.4614232E+02  0.7816164E-02  0.1320468E+00
        -11   -1    0    0    0    0  0.00000000000E+00  0.00000000000E+00  0.45593999997E+02  0.45594000000E+02  0.51100000000E-03 0. -1.
         11   -1    0    0    0    0 -0.00000000000E+00 -0.00000000000E+00 -0.45593999997E+02  0.45594000000E+02  0.51100000000E-03 0.  1.
    9900012    2    1    2    0    0 -0.52783712546E+01 -0.33654657604E+02  0.29472296949E+02  0.46142317976E+02  0.10000001956E+02 0.  0.
        -12    1    1    2    0    0  0.52783712546E+01  0.33654657604E+02 -0.29472296949E+02  0.45045682024E+02  0.00000000000E+00 0.  1.
         11    1    3    3    0    0 -0.71297380341E+01 -0.20221605790E+02  0.20283612551E+02  0.29515613555E+02  0.51100000000E-03 0. -1.
        -11    1    3    3    0    0  0.12615431963E+01 -0.12509785580E+02  0.75831942218E+01  0.14683019491E+02  0.51100000000E-03 0.  1.
         12    1    3    3    0    0  0.58982358317E+00 -0.92326623404E+00  0.16054901769E+01  0.19436849298E+01  0.00000000000E+00 0. -1.
</event>
<event>
 7    1  0.3919732E-008  0.4614232E+02  0.7816164E-02  0.1320468E+00
        -11   -1    0    0    0    0  0.00000000000E+00  0.00000000000E+00  0.45593999997E+02  0.45594000000E+02  0.51100000000E-03 0. -1.
         11   -1    0    0    0    0 -0.00000000000E+00 -0.00000000000E+00 -0.45593999997E+02  0.45594000000E+02  0.51100000000E-03 0.  1.
    9900012    2    1    2    0    0  0.51007907537E+01  0.42959009872E+02 -0.12554633569E+02  0.46142318525E+02  0.10000006968E+02 0.  0.
        -12    1    1    2    0    0 -0.51007907537E+01 -0.42959009872E+02  0.12554633569E+02  0.45045681475E+02  0.00000000000E+00 0.  1.
         11    1    3    3    0    0  0.49095722676E+01  0.20480626230E+02 -0.21403006491E+01  0.21169337206E+02  0.51100000000E-03 0. -1.
        -11    1    3    3    0    0  0.24163039752E+00  0.10770104096E+02 -0.67141204561E+01  0.12693815078E+02  0.51100000000E-03 0.  1.
         12    1    3    3    0    0 -0.50411911443E-01  0.11708279546E+02 -0.37002124641E+01  0.12279166241E+02  0.00000000000E+00 0. -1.
</event>
<event>
 7    1  0.3919732E-008  0.4614232E+02  0.7816164E-02  0.1320468E+00
        -11   -1    0    0    0    0  0.00000000000E+00  0.00000000000E+00  0.45593999997E+02  0.45594000000E+02  0.51100000000E-03 0.  1.
         11   -1    0    0    0    0 -0.00000000000E+00 -0.00000000000E+00 -0.45593999997E+02  0.45594000000E+02  0.51100000000E-03 0. -1.
    9900012    2    1    2    0    0 -0.21277960580E+02 -0.29794396670E+02 -0.26242254074E+02  0.46142316763E+02  0.99999909030E+01 0.  0.
        -12    1    1    2    0    0  0.21277960580E+02  0.29794396670E+02  0.26242254074E+02  0.45045683237E+02  0.00000000000E+00 0.  1.
         11    1    3    3    0    0 -0.37053724668E+01 -0.27947518770E+01 -0.66366870295E+01  0.80985207391E+01  0.51100000000E-03 0. -1.
        -11    1    3    3    0    0 -0.13439367986E+02 -0.20910398352E+02 -0.12536879970E+02  0.27839445590E+02  0.51100000000E-03 0.  1.
        -12    1    3    3    0    0 -0.41332201262E+01 -0.60892464414E+01 -0.70686870748E+01  0.10204350435E+02  0.00000000000E+00 0.  1.
</event>
<event>
 7    1  0.3919732E-008  0.4614232E+02  0.7816164E-02  0.1320468E+00
        -11   -1    0    0    0    0  0.00000000000E+00  0.00000000000E+00  0.45593999997E+02  0.45594000000E+02  0.51100000000E-03 0.  1.
         11   -1    0    0    0    0 -0.00000000000E+00 -0.00000000000E+00 -0.45593999997E+02  0.45594000000E+02  0.51100000000E-03 0. -1.
    9900012    2    1    2    0    0 -0.24283396897E+02 -0.70716604515E+01 -0.37274947876E+02  0.46142317792E+02  0.10000000284E+02 0.  0.
        -12    1    1    2    0    0  0.24283396897E+02  0.70716604515E+01  0.37274947876E+02  0.45045682208E+02  0.00000000000E+00 0.  1.
         11    1    3    3    0    0 -0.58946461123E+01  0.12968090067E+00 -0.69614140032E+01  0.91227712407E+01  0.51100000000E-03 0. -1.
        -11    1    3    3    0    0 -0.13774169340E+01 -0.35796809137E+01 -0.61339421664E+01  0.72344066527E+01  0.51100000000E-03 0.  1.
        -12    1    3    3    0    0 -0.17011333851E+02 -0.36216604384E+01 -0.24179591706E+02  0.29785139899E+02  0.00000000000E+00 0.  1.
</event>
<event>
 7    1  0.3919732E-008  0.4614232E+02  0.7816164E-02  0.1320468E+00
        -11   -1    0    0    0    0  0.00000000000E+00  0.00000000000E+00  0.45593999997E+02  0.45594000000E+02  0.51100000000E-03 0.  1.
         11   -1    0    0    0    0 -0.00000000000E+00 -0.00000000000E+00 -0.45593999997E+02  0.45594000000E+02  0.51100000000E-03 0. -1.
    9900012    2    1    2    0    0 -0.22110223270E+02  0.17605855104E+02 -0.35075424477E+02  0.46142317530E+02  0.99999978900E+01 0.  0.
        -12    1    1    2    0    0  0.22110223270E+02 -0.17605855104E+02  0.35075424477E+02  0.45045682470E+02  0.00000000000E+00 0.  1.
         11    1    3    3    0    0 -0.36134884634E+01  0.13416900460E+01 -0.11780473317E+01  0.40305367920E+01  0.51100000000E-03 0. -1.
        -11    1    3    3    0    0 -0.51016663871E+01  0.54719874817E+01 -0.13454228124E+02  0.15394346416E+02  0.51100000000E-03 0.  1.
         12    1    3    3    0    0 -0.13395068420E+02  0.10792177576E+02 -0.20443149021E+02  0.26717434321E+02  0.00000000000E+00 0. -1.
</event>
<event>
 7    1  0.3919732E-008  0.4614232E+02  0.7816164E-02  0.1320468E+00
        -11   -1    0    0    0    0  0.00000000000E+00  0.00000000000E+00  0.45593999997E+02  0.45594000000E+02  0.51100000000E-03 0.  1.
         11   -1    0    0    0    0 -0.00000000000E+00 -0.00000000000E+00 -0.45593999997E+02  0.45594000000E+02  0.51100000000E-03 0. -1.
    9900012    2    1    2    0    0  0.63100199255E+01 -0.12296673466E+02 -0.42872939944E+02  0.46142317529E+02  0.99999978836E+01 0.  0.
        -12    1    1    2    0    0 -0.63100199255E+01  0.12296673466E+02  0.42872939944E+02  0.45045682471E+02  0.00000000000E+00 0.  1.
         11    1    3    3    0    0  0.36527102151E+01 -0.24544019171E+01 -0.12534556012E+02  0.13284633053E+02  0.51100000000E-03 0. -1.
        -11    1    3    3    0    0 -0.27670632473E+00 -0.84860964387E+00 -0.13613157154E+02  0.13642388086E+02  0.51100000000E-03 0.  1.
        -12    1    3    3    0    0  0.29340160351E+01 -0.89936619054E+01 -0.16725226778E+02  0.19215296390E+02  0.00000000000E+00 0.  1.
</event>
<event>
 7    1  0.3919732E-008  0.4614232E+02  0.7816164E-02  0.1320468E+00
        -11   -1    0    0    0    0  0.00000000000E+00  0.00000000000E+00  0.45593999997E+02  0.45594000000E+02  0.51100000000E-03 0.  1.
         11   -1    0    0    0    0 -0.00000000000E+00 -0.00000000000E+00 -0.45593999997E+02  0.45594000000E+02  0.51100000000E-03 0. -1.
    9900012    2    1    2    0    0 -0.32344733032E+02  0.23459166311E+02 -0.20799019477E+02  0.46142318186E+02  0.10000003870E+02 0.  0.
        -12    1    1    2    0    0  0.32344733032E+02 -0.23459166311E+02  0.20799019477E+02  0.45045681814E+02  0.00000000000E+00 0.  1.
         11    1    3    3    0    0 -0.20155213365E+02  0.18857360404E+02 -0.14320422543E+02  0.31095130958E+02  0.51100000000E-03 0. -1.
        -11    1    3    3    0    0 -0.11441415954E+02  0.38671963219E+01 -0.69089367707E+01  0.13913828157E+02  0.51100000000E-03 0.  1.
        -12    1    3    3    0    0 -0.74810371225E+00  0.73460958544E+00  0.43033983670E+00  0.11333590704E+01  0.00000000000E+00 0.  1.
</event>
<event>
 7    1  0.3919732E-008  0.4614232E+02  0.7816164E-02  0.1320468E+00
        -11   -1    0    0    0    0  0.00000000000E+00  0.00000000000E+00  0.45593999997E+02  0.45594000000E+02  0.51100000000E-03 0. -1.
         11   -1    0    0    0    0 -0.00000000000E+00 -0.00000000000E+00 -0.45593999997E+02  0.45594000000E+02  0.51100000000E-03 0.  1.
    9900012    2    1    2    0    0  0.34123565175E+02  0.28708209426E+02 -0.63666768961E+01  0.46142316929E+02  0.99999924097E+01 0.  0.
        -12    1    1    2    0    0 -0.34123565175E+02 -0.28708209426E+02  0.63666768961E+01  0.45045683071E+02  0.00000000000E+00 0.  1.
         11    1    3    3    0    0  0.10246456029E+02  0.95682077396E+01 -0.40829087042E+00  0.14025233054E+02  0.51100000000E-03 0. -1.
        -11    1    3    3    0    0  0.15165423269E+02  0.72513919128E+01 -0.27548360849E+01  0.17034138361E+02  0.51100000000E-03 0.  1.
        -12    1    3    3    0    0  0.87116858764E+01  0.11888609773E+02 -0.32035499408E+01  0.15082945514E+02  0.00000000000E+00 0.  1.
</event>
<event>
 7    1  0.3919732E-008  0.4614232E+02  0.7816164E-02  0.1320468E+00
        -11   -1    0    0    0    0  0.00000000000E+00  0.00000000000E+00  0.45593999997E+02  0.45594000000E+02  0.51100000000E-03 0.  1.
         11   -1    0    0    0    0 -0.00000000000E+00 -0.00000000000E+00 -0.45593999997E+02  0.45594000000E+02  0.51100000000E-03 0. -1.
    9900012    2    1    2    0    0 -0.16328785868E+02 -0.12295465888E+01 -0.41963941897E+02  0.46142318162E+02  0.10000003656E+02 0.  0.
        -12    1    1    2    0    0  0.16328785868E+02  0.12295465888E+01  0.41963941897E+02  0.45045681838E+02  0.00000000000E+00 0.  1.
         11    1    3    3    0    0 -0.52383029367E+01  0.69798119986E+00 -0.17631891904E+02  0.18406808734E+02  0.51100000000E-03 0. -1.
        -11    1    3    3    0    0 -0.20552952023E+01 -0.31827617325E+01 -0.43423081116E+01  0.57627988523E+01  0.51100000000E-03 0.  1.
        -12    1    3    3    0    0 -0.90351877291E+01  0.12552339439E+01 -0.19989741881E+02  0.21972710575E+02  0.00000000000E+00 0.  1.
</event>
<event>
 7    1  0.3919732E-008  0.4614232E+02  0.7816164E-02  0.1320468E+00
        -11   -1    0    0    0    0  0.00000000000E+00  0.00000000000E+00  0.45593999997E+02  0.45594000000E+02  0.51100000000E-03 0.  1.
         11   -1    0    0    0    0 -0.00000000000E+00 -0.00000000000E+00 -0.45593999997E+02  0.45594000000E+02  0.51100000000E-03 0. -1.
    9900012    2    1    2    0    0  0.16071582910E+02 -0.36071044751E+02 -0.21672504013E+02  0.46142317889E+02  0.10000001166E+02 0.  0.
        -12    1    1    2    0    0 -0.16071582910E+02  0.36071044751E+02  0.21672504013E+02  0.45045682111E+02  0.00000000000E+00 0.  1.
         11    1    3    3    0    0  0.10889552091E+02 -0.19536820665E+02 -0.15796840329E+02  0.27382656392E+02  0.51100000000E-03 0. -1.
        -11    1    3    3    0    0  0.48621463548E+00 -0.64338552446E+01 -0.36084086352E+01  0.73926660360E+01  0.51100000000E-03 0.  1.
         12    1    3    3    0    0  0.46958161832E+01 -0.10100368841E+02 -0.22672550493E+01  0.11366995461E+02  0.00000000000E+00 0. -1.
</event>
<event>
 7    1  0.3919732E-008  0.4614232E+02  0.7816164E-02  0.1320468E+00
        -11   -1    0    0    0    0  0.00000000000E+00  0.00000000000E+00  0.45593999997E+02  0.45594000000E+02  0.51100000000E-03 0.  1.
         11   -1    0    0    0    0 -0.00000000000E+00 -0.00000000000E+00 -0.45593999997E+02  0.45594000000E+02  0.51100000000E-03 0. -1.
    9900012    2    1    2    0    0  0.18706741910E+02  0.85612054785E+01 -0.40073395338E+02  0.46142318230E+02  0.10000004279E+02 0.  0.
        -12    1    1    2    0    0 -0.18706741910E+02 -0.85612054785E+01  0.40073395338E+02  0.45045681770E+02  0.00000000000E+00 0.  1.
         11    1    3    3    0    0  0.13807610889E+01  0.29619954011E-01 -0.49898237967E+00  0.14684557203E+01  0.51100000000E-03 0. -1.
        -11    1    3    3    0    0  0.36949661866E+01  0.24386090415E+01 -0.35393448060E+01  0.56680288543E+01  0.51100000000E-03 0.  1.
         12    1    3    3    0    0  0.13631014635E+02  0.60929764830E+01 -0.36035068153E+02  0.39005833656E+02  0.00000000000E+00 0. -1.
</event>
<event>
 7    1  0.3919732E-008  0.4614232E+02  0.7816164E-02  0.1320468E+00
        -11   -1    0    0    0    0  0.00000000000E+00  0.00000000000E+00  0.45593999997E+02  0.45594000000E+02  0.51100000000E-03 0.  1.
         11   -1    0    0    0    0 -0.00000000000E+00 -0.00000000000E+00 -0.45593999997E+02  0.45594000000E+02  0.51100000000E-03 0. -1.
    9900012    2    1    2    0    0 -0.23674177412E+02 -0.37705841846E+02 -0.68495410993E+01  0.46142318756E+02  0.10000009075E+02 0.  0.
        -12    1    1    2    0    0  0.23674177412E+02  0.37705841846E+02  0.68495410993E+01  0.45045681244E+02  0.00000000000E+00 0.  1.
         11    1    3    3    0    0 -0.70905289582E+01 -0.75641317635E+01 -0.27336339093E+01  0.10722147399E+02  0.51100000000E-03 0. -1.
        -11    1    3    3    0    0 -0.88295279917E+01 -0.88595475804E+01 -0.87388747174E+00  0.12538573582E+02  0.51100000000E-03 0.  1.
         12    1    3    3    0    0 -0.77541204619E+01 -0.21282162502E+02 -0.32420197182E+01  0.22881597775E+02  0.00000000000E+00 0. -1.
</event>
<event>
 7    1  0.3919732E-008  0.4614232E+02  0.7816164E-02  0.1320468E+00
        -11   -1    0    0    0    0  0.00000000000E+00  0.00000000000E+00  0.45593999997E+02  0.45594000000E+02  0.51100000000E-03 0.  1.
         11   -1    0    0    0    0 -0.00000000000E+00 -0.00000000000E+00 -0.45593999997E+02  0.45594000000E+02  0.51100000000E-03 0. -1.
    9900012    2    1    2    0    0 -0.11387219264E+02 -0.34547068356E+02 -0.26569621323E+02  0.46142317945E+02  0.10000001676E+02 0.  0.
        -12    1    1    2    0    0  0.11387219264E+02  0.34547068356E+02  0.26569621323E+02  0.45045682055E+02  0.00000000000E+00 0.  1.
         11    1    3    3    0    0 -0.68073748487E+01 -0.11796258833E+02 -0.14390835756E+02  0.19813839325E+02  0.51100000000E-03 0. -1.
        -11    1    3    3    0    0 -0.77938693879E+00 -0.26187689611E+01 -0.60759617239E+00  0.27990298751E+01  0.51100000000E-03 0.  1.
        -12    1    3    3    0    0 -0.38004574766E+01 -0.20132040562E+02 -0.11571189394E+02  0.23529448744E+02  0.00000000000E+00 0.  1.
</event>
<event>
 7    1  0.3919732E-008  0.4614232E+02  0.7816164E-02  0.1320468E+00
        -11   -1    0    0    0    0  0.00000000000E+00  0.00000000000E+00  0.45593999997E+02  0.45594000000E+02  0.51100000000E-03 0. -1.
         11   -1    0    0    0    0 -0.00000000000E+00 -0.00000000000E+00 -0.45593999997E+02  0.45594000000E+02  0.51100000000E-03 0.  1.
    9900012    2    1    2    0    0 -0.36559237811E+02 -0.24795023958E+02  0.88171568081E+01  0.46142319446E+02  0.10000015366E+02 0.  0.
        -12    1    1    2    0    0  0.36559237811E+02  0.24795023958E+02 -0.88171568081E+01  0.45045680554E+02  0.00000000000E+00 0.  1.
         11    1    3    3    0    0 -0.92023736096E+01 -0.31899653323E+01  0.29179361040E+01  0.10167296113E+02  0.51100000000E-03 0. -1.
        -11    1    3    3    0    0 -0.19758512848E+01  0.25240622373E+00  0.38316478230E+00  0.20284261665E+01  0.51100000000E-03 0.  1.
         12    1    3    3    0    0 -0.25381012916E+02 -0.21857464849E+02  0.55160559218E+01  0.33946597167E+02  0.00000000000E+00 0. -1.
</event>
<event>
 7    1  0.4158546E-008  0.4614232E+02  0.7816164E-02  0.1320468E+00
        -11   -1    0    0    0    0  0.00000000000E+00  0.00000000000E+00  0.45593999997E+02  0.45594000000E+02  0.51100000000E-03 0. -1.
         11   -1    0    0    0    0 -0.00000000000E+00 -0.00000000000E+00 -0.45593999997E+02  0.45594000000E+02  0.51100000000E-03 0.  1.
    9900012    2    1    2    0    0 -0.13767694305E+02  0.32951284608E+02  0.27454990197E+02  0.46142322621E+02  0.10000044318E+02 0.  0.
        -12    1    1    2    0    0  0.13767694305E+02 -0.32951284608E+02 -0.27454990197E+02  0.45045677379E+02  0.00000000000E+00 0.  1.
         11    1    3    3    0    0 -0.13628643970E+01  0.19446103175E+01  0.37117939113E+00  0.24034731230E+01  0.51100000000E-03 0. -1.
        -11    1    3    3    0    0 -0.86731623311E+00  0.46181774378E+01  0.83739081186E+00  0.47729470904E+01  0.51100000000E-03 0.  1.
         12    1    3    3    0    0 -0.11537513675E+02  0.26388496853E+02  0.26246419994E+02  0.38965902408E+02  0.00000000000E+00 0. -1.
</event>
<event>
 7    1  0.3919732E-008  0.4614232E+02  0.7816164E-02  0.1320468E+00
        -11   -1    0    0    0    0  0.00000000000E+00  0.00000000000E+00  0.45593999997E+02  0.45594000000E+02  0.51100000000E-03 0.  1.
         11   -1    0    0    0    0 -0.00000000000E+00 -0.00000000000E+00 -0.45593999997E+02  0.45594000000E+02  0.51100000000E-03 0. -1.
    9900012    2    1    2    0    0  0.18024441512E+02 -0.91759296632E+01 -0.40249662254E+02  0.46142317759E+02  0.99999999805E+01 0.  0.
        -12    1    1    2    0    0 -0.18024441512E+02  0.91759296632E+01  0.40249662254E+02  0.45045682241E+02  0.00000000000E+00 0.  1.
         11    1    3    3    0    0  0.35431484526E+01 -0.10730244960E+01 -0.20588361497E+01  0.42360463971E+01  0.51100000000E-03 0. -1.
        -11    1    3    3    0    0  0.39873963966E+01 -0.12979233966E+01 -0.14787194331E+02  0.15370265177E+02  0.51100000000E-03 0.  1.
         12    1    3    3    0    0  0.10493896662E+02 -0.68049817706E+01 -0.23403631774E+02  0.26536006185E+02  0.00000000000E+00 0. -1.
</event>
<event>
 7    1  0.3919732E-008  0.4614232E+02  0.7816164E-02  0.1320468E+00
        -11   -1    0    0    0    0  0.00000000000E+00  0.00000000000E+00  0.45593999997E+02  0.45594000000E+02  0.51100000000E-03 0.  1.
         11   -1    0    0    0    0 -0.00000000000E+00 -0.00000000000E+00 -0.45593999997E+02  0.45594000000E+02  0.51100000000E-03 0. -1.
    9900012    2    1    2    0    0 -0.33369271489E+02  0.52310395283E+01 -0.29803378684E+02  0.46142318351E+02  0.10000005380E+02 0.  0.
        -12    1    1    2    0    0  0.33369271489E+02 -0.52310395283E+01  0.29803378684E+02  0.45045681649E+02  0.00000000000E+00 0.  1.
         11    1    3    3    0    0 -0.29277465306E+02  0.45952955584E+01 -0.27703702073E+02  0.40568236649E+02  0.51100000000E-03 0. -1.
        -11    1    3    3    0    0 -0.17067636836E+00  0.10838337313E+01  0.13558903891E-01  0.10972739334E+01  0.51100000000E-03 0.  1.
         12    1    3    3    0    0 -0.39211298144E+01 -0.44808976144E+00 -0.21132355151E+01  0.44768077687E+01  0.00000000000E+00 0. -1.
</event>
<event>
 7    1  0.3919732E-008  0.4614231E+02  0.7816164E-02  0.1320468E+00
        -11   -1    0    0    0    0  0.00000000000E+00  0.00000000000E+00  0.45593999997E+02  0.45594000000E+02  0.51100000000E-03 0.  1.
         11   -1    0    0    0    0 -0.00000000000E+00 -0.00000000000E+00 -0.45593999997E+02  0.45594000000E+02  0.51100000000E-03 0. -1.
    9900012    2    1    2    0    0 -0.14122493424E+02 -0.32628379620E+02 -0.27659688555E+02  0.46142308218E+02  0.99999129789E+01 0.  0.
        -12    1    1    2    0    0  0.14122493424E+02  0.32628379620E+02  0.27659688555E+02  0.45045691782E+02  0.00000000000E+00 0.  1.
         11    1    3    3    0    0 -0.82698871199E+01 -0.20617612861E+02 -0.19028623296E+02  0.29250051246E+02  0.51100000000E-03 0. -1.
        -11    1    3    3    0    0 -0.41265667232E+01 -0.24643295257E+01 -0.25236505481E+01  0.54286540950E+01  0.51100000000E-03 0.  1.
         12    1    3    3    0    0 -0.17260395809E+01 -0.95464372328E+01 -0.61074147107E+01  0.11463602877E+02  0.00000000000E+00 0. -1.
</event>
<event>
 7    1  0.3919732E-008  0.4614232E+02  0.7816164E-02  0.1320468E+00
        -11   -1    0    0    0    0  0.00000000000E+00  0.00000000000E+00  0.45593999997E+02  0.45594000000E+02  0.51100000000E-03 0. -1.
         11   -1    0    0    0    0 -0.00000000000E+00 -0.00000000000E+00 -0.45593999997E+02  0.45594000000E+02  0.51100000000E-03 0.  1.
    9900012    2    1    2    0    0  0.29811876859E+02 -0.33767760281E+02 -0.32230068828E+00  0.46142317476E+02  0.99999974021E+01 0.  0.
        -12    1    1    2    0    0 -0.29811876859E+02  0.33767760281E+02  0.32230068828E+00  0.45045682524E+02  0.00000000000E+00 0.  1.
         11    1    3    3    0    0  0.80128118628E+01 -0.36431144279E+01 -0.15326037727E+01  0.89345571389E+01  0.51100000000E-03 0. -1.
        -11    1    3    3    0    0  0.12424988204E+02 -0.16740467400E+02  0.66131831874E+00  0.20858114076E+02  0.51100000000E-03 0.  1.
         12    1    3    3    0    0  0.93740767926E+01 -0.13384178453E+02  0.54898476565E+00  0.16349646261E+02  0.00000000000E+00 0. -1.
</event>
<event>
 7    1  0.3919732E-008  0.4614232E+02  0.7816164E-02  0.1320468E+00
        -11   -1    0    0    0    0  0.00000000000E+00  0.00000000000E+00  0.45593999997E+02  0.45594000000E+02  0.51100000000E-03 0.  1.
         11   -1    0    0    0    0 -0.00000000000E+00 -0.00000000000E+00 -0.45593999997E+02  0.45594000000E+02  0.51100000000E-03 0. -1.
    9900012    2    1    2    0    0 -0.41214210882E+02  0.55290678227E+01  0.17318538079E+02  0.46142317290E+02  0.99999957039E+01 0.  0.
        -12    1    1    2    0    0  0.41214210882E+02 -0.55290678227E+01 -0.17318538079E+02  0.45045682710E+02  0.00000000000E+00 0.  1.
         11    1    3    3    0    0 -0.27099318788E+02  0.66836312334E+01  0.13336220248E+02  0.30933780499E+02  0.51100000000E-03 0. -1.
        -11    1    3    3    0    0 -0.60645576325E+01  0.85480198391E+00  0.31002141822E+01  0.68644645783E+01  0.51100000000E-03 0.  1.
        -12    1    3    3    0    0 -0.80503344620E+01 -0.20093653947E+01  0.88210364887E+00  0.83440722124E+01  0.00000000000E+00 0.  1.
</event>
<event>
 7    1  0.3919732E-008  0.4614232E+02  0.7816164E-02  0.1320468E+00
        -11   -1    0    0    0    0  0.00000000000E+00  0.00000000000E+00  0.45593999997E+02  0.45594000000E+02  0.51100000000E-03 0.  1.
         11   -1    0    0    0    0 -0.00000000000E+00 -0.00000000000E+00 -0.45593999997E+02  0.45594000000E+02  0.51100000000E-03 0. -1.
    9900012    2    1    2    0    0 -0.22704018947E+02 -0.17418568114E+02 -0.34788424824E+02  0.46142317707E+02  0.99999995097E+01 0.  0.
        -12    1    1    2    0    0  0.22704018947E+02  0.17418568114E+02  0.34788424824E+02  0.45045682293E+02  0.00000000000E+00 0.  1.
         11    1    3    3    0    0 -0.36265210249E+01 -0.20251844932E+01 -0.80776639542E+01  0.90830436635E+01  0.51100000000E-03 0. -1.
        -11    1    3    3    0    0 -0.66640524071E+01 -0.64814594251E+01 -0.15621878250E+02  0.18178613564E+02  0.51100000000E-03 0.  1.
        -12    1    3    3    0    0 -0.12413445515E+02 -0.89119241955E+01 -0.11088882619E+02  0.18880660480E+02  0.00000000000E+00 0.  1.
</event>
<event>
 7    1  0.3919732E-008  0.4614232E+02  0.7816164E-02  0.1320468E+00
        -11   -1    0    0    0    0  0.00000000000E+00  0.00000000000E+00  0.45593999997E+02  0.45594000000E+02  0.51100000000E-03 0.  1.
         11   -1    0    0    0    0 -0.00000000000E+00 -0.00000000000E+00 -0.45593999997E+02  0.45594000000E+02  0.51100000000E-03 0. -1.
    9900012    2    1    2    0    0  0.28286245992E+02  0.33286328376E+02 -0.11001005539E+02  0.46142317722E+02  0.99999996401E+01 0.  0.
        -12    1    1    2    0    0 -0.28286245992E+02 -0.33286328376E+02  0.11001005539E+02  0.45045682278E+02  0.00000000000E+00 0.  1.
         11    1    3    3    0    0  0.18363699896E+02  0.20440759581E+02 -0.93592371826E+01  0.29028355913E+02  0.51100000000E-03 0. -1.
        -11    1    3    3    0    0  0.16485651024E+01 -0.40649357610E-01  0.30452015520E+00  0.16769472422E+01  0.51100000000E-03 0.  1.
        -12    1    3    3    0    0  0.82739809935E+01  0.12886218152E+02 -0.19462885121E+01  0.15437014566E+02  0.00000000000E+00 0.  1.
</event>
<event>
 7    1  0.3919732E-008  0.4614232E+02  0.7816164E-02  0.1320468E+00
        -11   -1    0    0    0    0  0.00000000000E+00  0.00000000000E+00  0.45593999997E+02  0.45594000000E+02  0.51100000000E-03 0. -1.
         11   -1    0    0    0    0 -0.00000000000E+00 -0.00000000000E+00 -0.45593999997E+02  0.45594000000E+02  0.51100000000E-03 0.  1.
    9900012    2    1    2    0    0 -0.25782400600E+02 -0.71183729592E+01  0.36245137492E+02  0.46142318674E+02  0.10000008324E+02 0.  0.
        -12    1    1    2    0    0  0.25782400600E+02  0.71183729592E+01 -0.36245137492E+02  0.45045681326E+02  0.00000000000E+00 0.  1.
         11    1    3    3    0    0 -0.81982373924E+01 -0.23645684249E+01  0.16711813949E+02  0.18763981611E+02  0.51100000000E-03 0. -1.
        -11    1    3    3    0    0 -0.26576229102E+01 -0.26388620893E+01  0.62464244522E+01  0.72831566891E+01  0.51100000000E-03 0.  1.
        -12    1    3    3    0    0 -0.14926540298E+02 -0.21149424450E+01  0.13286899091E+02  0.20095180374E+02  0.00000000000E+00 0.  1.
</event>
<event>
 7    1  0.3919732E-008  0.4614232E+02  0.7816164E-02  0.1320468E+00
        -11   -1    0    0    0    0  0.00000000000E+00  0.00000000000E+00  0.45593999997E+02  0.45594000000E+02  0.51100000000E-03 0.  1.
         11   -1    0    0    0    0 -0.00000000000E+00 -0.00000000000E+00 -0.45593999997E+02  0.45594000000E+02  0.51100000000E-03 0. -1.
    9900012    2    1    2    0    0 -0.22311929680E+02 -0.15045900744E+02 -0.36123567563E+02  0.46142317979E+02  0.10000001991E+02 0.  0.
        -12    1    1    2    0    0  0.22311929680E+02  0.15045900744E+02  0.36123567563E+02  0.45045682021E+02  0.00000000000E+00 0.  1.
         11    1    3    3    0    0 -0.46743893903E+01 -0.40686563176E+01 -0.47809581243E+01  0.78269688418E+01  0.51100000000E-03 0. -1.
        -11    1    3    3    0    0 -0.44914676999E+01 -0.16556212462E+01 -0.28226157284E+01  0.55571146849E+01  0.51100000000E-03 0.  1.
         12    1    3    3    0    0 -0.13146072589E+02 -0.93216231806E+01 -0.28519993710E+02  0.32758234453E+02  0.00000000000E+00 0. -1.
</event>
<event>
 7    1  0.3919732E-008  0.4614232E+02  0.7816164E-02  0.1320468E+00
        -11   -1    0    0    0    0  0.00000000000E+00  0.00000000000E+00  0.45593999997E+02  0.45594000000E+02  0.51100000000E-03 0.  1.
         11   -1    0    0    0    0 -0.00000000000E+00 -0.00000000000E+00 -0.45593999997E+02  0.45594000000E+02  0.51100000000E-03 0. -1.
    9900012    2    1    2    0    0  0.15279728425E+02 -0.36542197660E+02 -0.21454863316E+02  0.46142317959E+02  0.10000001809E+02 0.  0.
        -12    1    1    2    0    0 -0.15279728425E+02  0.36542197660E+02  0.21454863316E+02  0.45045682041E+02  0.00000000000E+00 0.  1.
         11    1    3    3    0    0  0.72114302183E+00 -0.84235463186E+01 -0.33320485994E+01  0.90872838609E+01  0.51100000000E-03 0. -1.
        -11    1    3    3    0    0  0.58153842754E+01 -0.73936629368E+01 -0.81638022950E+01  0.12455224368E+02  0.51100000000E-03 0.  1.
         12    1    3    3    0    0  0.87432011275E+01 -0.20724988405E+02 -0.99590124216E+01  0.24599809730E+02  0.00000000000E+00 0. -1.
</event>
<event>
 7    1  0.3919732E-008  0.4614231E+02  0.7816164E-02  0.1320468E+00
        -11   -1    0    0    0    0  0.00000000000E+00  0.00000000000E+00  0.45593999997E+02  0.45594000000E+02  0.51100000000E-03 0.  1.
         11   -1    0    0    0    0 -0.00000000000E+00 -0.00000000000E+00 -0.45593999997E+02  0.45594000000E+02  0.51100000000E-03 0. -1.
    9900012    2    1    2    0    0  0.44509414300E+01  0.36024378506E+02 -0.26674845825E+02  0.46142310682E+02  0.99999354469E+01 0.  0.
        -12    1    1    2    0    0 -0.44509414300E+01 -0.36024378506E+02  0.26674845825E+02  0.45045689318E+02  0.00000000000E+00 0.  1.
         11    1    3    3    0    0  0.28968394914E+00  0.18846667621E+02 -0.12338298310E+02  0.22528080315E+02  0.51100000000E-03 0. -1.
        -11    1    3    3    0    0  0.58015164016E+01  0.13819631223E+02 -0.12065857005E+02  0.19241224109E+02  0.51100000000E-03 0.  1.
        -12    1    3    3    0    0 -0.16402589207E+01  0.33580796619E+01 -0.22706905097E+01  0.43730062581E+01  0.00000000000E+00 0.  1.
</event>
<event>
 7    1  0.3919732E-008  0.4614232E+02  0.7816164E-02  0.1320468E+00
        -11   -1    0    0    0    0  0.00000000000E+00  0.00000000000E+00  0.45593999997E+02  0.45594000000E+02  0.51100000000E-03 0.  1.
         11   -1    0    0    0    0 -0.00000000000E+00 -0.00000000000E+00 -0.45593999997E+02  0.45594000000E+02  0.51100000000E-03 0. -1.
    9900012    2    1    2    0    0  0.36692671725E+02 -0.25661035577E+02 -0.49267207984E+01  0.46142317821E+02  0.10000000544E+02 0.  0.
        -12    1    1    2    0    0 -0.36692671725E+02  0.25661035577E+02  0.49267207984E+01  0.45045682179E+02  0.00000000000E+00 0.  1.
         11    1    3    3    0    0  0.35616178439E+01 -0.34991672754E+01 -0.71267153781E+00  0.50435299413E+01  0.51100000000E-03 0. -1.
        -11    1    3    3    0    0  0.41875587018E+01 -0.63055589570E+01 -0.27854446330E+01  0.80656322571E+01  0.51100000000E-03 0.  1.
         12    1    3    3    0    0  0.28943495179E+02 -0.15856309345E+02 -0.14286046277E+01  0.33033155622E+02  0.00000000000E+00 0. -1.
</event>
<event>
 7    1  0.3919732E-008  0.4614232E+02  0.7816164E-02  0.1320468E+00
        -11   -1    0    0    0    0  0.00000000000E+00  0.00000000000E+00  0.45593999997E+02  0.45594000000E+02  0.51100000000E-03 0.  1.
         11   -1    0    0    0    0 -0.00000000000E+00 -0.00000000000E+00 -0.45593999997E+02  0.45594000000E+02  0.51100000000E-03 0. -1.
    9900012    2    1    2    0    0  0.64440240808E+01 -0.16476267447E+02 -0.41426085809E+02  0.46142318511E+02  0.10000006838E+02 0.  0.
        -12    1    1    2    0    0 -0.64440240808E+01  0.16476267447E+02  0.41426085809E+02  0.45045681489E+02  0.00000000000E+00 0.  1.
         11    1    3    3    0    0 -0.78172539347E+00 -0.52719039961E+01 -0.87851371240E+01  0.10275344319E+02  0.51100000000E-03 0. -1.
        -11    1    3    3    0    0  0.55296237550E+01 -0.79622612104E+01 -0.29475808988E+02  0.31028980941E+02  0.51100000000E-03 0.  1.
         12    1    3    3    0    0  0.16961257193E+01 -0.32421022404E+01 -0.31651396972E+01  0.48379932509E+01  0.00000000000E+00 0. -1.
</event>
<event>
 7    1  0.3919732E-008  0.4614232E+02  0.7816164E-02  0.1320468E+00
        -11   -1    0    0    0    0  0.00000000000E+00  0.00000000000E+00  0.45593999997E+02  0.45594000000E+02  0.51100000000E-03 0.  1.
         11   -1    0    0    0    0 -0.00000000000E+00 -0.00000000000E+00 -0.45593999997E+02  0.45594000000E+02  0.51100000000E-03 0. -1.
    9900012    2    1    2    0    0  0.10987012692E+02 -0.15112083141E+02 -0.40988094592E+02  0.46142318708E+02  0.10000008637E+02 0.  0.
        -12    1    1    2    0    0 -0.10987012692E+02  0.15112083141E+02  0.40988094592E+02  0.45045681292E+02  0.00000000000E+00 0.  1.
         11    1    3    3    0    0  0.70010447158E+01 -0.87403820178E+01 -0.14410389644E+02  0.18250157120E+02  0.51100000000E-03 0.  1.
        -11    1    3    3    0    0  0.33312507114E+01 -0.44823932534E+01 -0.12734192157E+02  0.13904989419E+02  0.51100000000E-03 0. -1.
        -12    1    3    3    0    0  0.65471726456E+00 -0.18893078694E+01 -0.13843512791E+02  0.13987172170E+02  0.00000000000E+00 0.  1.
</event>
<event>
 7    1  0.3919732E-008  0.4614232E+02  0.7816164E-02  0.1320468E+00
        -11   -1    0    0    0    0  0.00000000000E+00  0.00000000000E+00  0.45593999997E+02  0.45594000000E+02  0.51100000000E-03 0.  1.
         11   -1    0    0    0    0 -0.00000000000E+00 -0.00000000000E+00 -0.45593999997E+02  0.45594000000E+02  0.51100000000E-03 0. -1.
    9900012    2    1    2    0    0 -0.43366375753E+02 -0.11791113226E+02 -0.30725434890E+01  0.46142318513E+02  0.10000006861E+02 0.  0.
        -12    1    1    2    0    0  0.43366375753E+02  0.11791113226E+02  0.30725434890E+01  0.45045681487E+02  0.00000000000E+00 0.  1.
         11    1    3    3    0    0 -0.17979465728E+02 -0.70577559859E+01  0.28916963326E+01  0.19530361373E+02  0.51100000000E-03 0.  1.
        -11    1    3    3    0    0 -0.14378448645E+02 -0.14959064794E+01 -0.35657082980E+01  0.14889318237E+02  0.51100000000E-03 0. -1.
         12    1    3    3    0    0 -0.11008461380E+02 -0.32374507611E+01 -0.23985315237E+01  0.11722638904E+02  0.00000000000E+00 0. -1.
</event>
<event>
 7    1  0.3919732E-008  0.4614232E+02  0.7816164E-02  0.1320468E+00
        -11   -1    0    0    0    0  0.00000000000E+00  0.00000000000E+00  0.45593999997E+02  0.45594000000E+02  0.51100000000E-03 0.  1.
         11   -1    0    0    0    0 -0.00000000000E+00 -0.00000000000E+00 -0.45593999997E+02  0.45594000000E+02  0.51100000000E-03 0. -1.
    9900012    2    1    2    0    0  0.27622431950E+02 -0.14291044837E+02 -0.32586512220E+02  0.46142317765E+02  0.10000000039E+02 0.  0.
        -12    1    1    2    0    0 -0.27622431950E+02  0.14291044837E+02  0.32586512220E+02  0.45045682235E+02  0.00000000000E+00 0.  1.
         11    1    3    3    0    0  0.17588936474E+02 -0.47448488352E+01 -0.18909248750E+02  0.26257265001E+02  0.51100000000E-03 0. -1.
        -11    1    3    3    0    0  0.55975847596E+01 -0.27865625557E+01 -0.48392443843E+01  0.79067169224E+01  0.51100000000E-03 0.  1.
        -12    1    3    3    0    0  0.44359107159E+01 -0.67596334457E+01 -0.88380190850E+01  0.11978335842E+02  0.00000000000E+00 0.  1.
</event>
<event>
 7    1  0.3919732E-008  0.4614232E+02  0.7816164E-02  0.1320468E+00
        -11   -1    0    0    0    0  0.00000000000E+00  0.00000000000E+00  0.45593999997E+02  0.45594000000E+02  0.51100000000E-03 0. -1.
         11   -1    0    0    0    0 -0.00000000000E+00 -0.00000000000E+00 -0.45593999997E+02  0.45594000000E+02  0.51100000000E-03 0.  1.
    9900012    2    1    2    0    0 -0.28517556648E+02 -0.34830236898E+02 -0.16483602071E+01  0.46142317289E+02  0.99999956960E+01 0.  0.
        -12    1    1    2    0    0  0.28517556648E+02  0.34830236898E+02  0.16483602071E+01  0.45045682711E+02  0.00000000000E+00 0.  1.
         11    1    3    3    0    0 -0.14437579372E+02 -0.13559676745E+02 -0.16861909655E+01  0.19878424782E+02  0.51100000000E-03 0. -1.
        -11    1    3    3    0    0 -0.90737705433E+01 -0.94727259302E+01 -0.20572552448E+01  0.13277731275E+02  0.51100000000E-03 0.  1.
        -12    1    3    3    0    0 -0.50062067324E+01 -0.11797834222E+02  0.20950860032E+01  0.12986161232E+02  0.00000000000E+00 0.  1.
</event>
<event>
 7    1  0.3919732E-008  0.4614232E+02  0.7816164E-02  0.1320468E+00
        -11   -1    0    0    0    0  0.00000000000E+00  0.00000000000E+00  0.45593999997E+02  0.45594000000E+02  0.51100000000E-03 0. -1.
         11   -1    0    0    0    0 -0.00000000000E+00 -0.00000000000E+00 -0.45593999997E+02  0.45594000000E+02  0.51100000000E-03 0.  1.
    9900012    2    1    2    0    0 -0.23363321810E+02  0.23210722357E+02  0.30733224775E+02  0.46142317151E+02  0.99999944342E+01 0.  0.
        -12    1    1    2    0    0  0.23363321810E+02 -0.23210722357E+02 -0.30733224775E+02  0.45045682849E+02  0.00000000000E+00 0.  1.
         11    1    3    3    0    0 -0.10212876639E+02  0.14202012268E+02  0.13593677877E+02  0.22153737386E+02  0.51100000000E-03 0. -1.
        -11    1    3    3    0    0 -0.13173379461E+02  0.80835129609E+01  0.17117635283E+02  0.23062839074E+02  0.51100000000E-03 0.  1.
         12    1    3    3    0    0  0.22934289986E-01  0.92519712797E+00  0.21911614849E-01  0.92574069055E+00  0.00000000000E+00 0. -1.
</event>
<event>
 7    1  0.3919732E-008  0.4614232E+02  0.7816164E-02  0.1320468E+00
        -11   -1    0    0    0    0  0.00000000000E+00  0.00000000000E+00  0.45593999997E+02  0.45594000000E+02  0.51100000000E-03 0.  1.
         11   -1    0    0    0    0 -0.00000000000E+00 -0.00000000000E+00 -0.45593999997E+02  0.45594000000E+02  0.51100000000E-03 0. -1.
    9900012    2    1    2    0    0 -0.33366524780E+01 -0.43978185391E+02 -0.91596739375E+01  0.46142315782E+02  0.99999819491E+01 0.  0.
        -12    1    1    2    0    0  0.33366524780E+01  0.43978185391E+02  0.91596739375E+01  0.45045684218E+02  0.00000000000E+00 0.  1.
         11    1    3    3    0    0 -0.36611739284E+00 -0.76378928826E+01 -0.36086823355E+01  0.84554147203E+01  0.51100000000E-03 0. -1.
        -11    1    3    3    0    0 -0.49940508695E+00 -0.72902345130E+01 -0.43566295388E+01  0.85074758828E+01  0.51100000000E-03 0.  1.
         12    1    3    3    0    0 -0.24711299982E+01 -0.29050057996E+02 -0.11943620631E+01  0.29179425179E+02  0.00000000000E+00 0. -1.
</event>
<event>
 7    1  0.3919732E-008  0.4614232E+02  0.7816164E-02  0.1320468E+00
        -11   -1    0    0    0    0  0.00000000000E+00  0.00000000000E+00  0.45593999997E+02  0.45594000000E+02  0.51100000000E-03 0.  1.
         11   -1    0    0    0    0 -0.00000000000E+00 -0.00000000000E+00 -0.45593999997E+02  0.45594000000E+02  0.51100000000E-03 0. -1.
    9900012    2    1    2    0    0  0.17311425417E+02 -0.28738556348E+02 -0.30058666702E+02  0.46142317467E+02  0.99999973202E+01 0.  0.
        -12    1    1    2    0    0 -0.17311425417E+02  0.28738556348E+02  0.30058666702E+02  0.45045682533E+02  0.00000000000E+00 0.  1.
         11    1    3    3    0    0  0.74782376118E+01 -0.77115993518E+01 -0.97749920544E+01  0.14523886266E+02  0.51100000000E-03 0. -1.
        -11    1    3    3    0    0  0.87979071291E+01 -0.10605314162E+02 -0.11743068160E+02  0.18104571478E+02  0.51100000000E-03 0.  1.
        -12    1    3    3    0    0  0.10352806759E+01 -0.10421642835E+02 -0.85406064877E+01  0.13513859724E+02  0.00000000000E+00 0.  1.
</event>
<event>
 7    1  0.3919732E-008  0.4614232E+02  0.7816164E-02  0.1320468E+00
        -11   -1    0    0    0    0  0.00000000000E+00  0.00000000000E+00  0.45593999997E+02  0.45594000000E+02  0.51100000000E-03 0.  1.
         11   -1    0    0    0    0 -0.00000000000E+00 -0.00000000000E+00 -0.45593999997E+02  0.45594000000E+02  0.51100000000E-03 0. -1.
    9900012    2    1    2    0    0  0.11963510063E+02  0.40478919330E+02 -0.15730387965E+02  0.46142316647E+02  0.99999898436E+01 0.  0.
        -12    1    1    2    0    0 -0.11963510063E+02 -0.40478919330E+02  0.15730387965E+02  0.45045683353E+02  0.00000000000E+00 0.  1.
         11    1    3    3    0    0  0.49535744725E+01  0.20397654276E+02 -0.10074198103E+02  0.23282862102E+02  0.51100000000E-03 0. -1.
        -11    1    3    3    0    0  0.68323199636E+01  0.20279504108E+02 -0.47572187441E+01  0.21921907157E+02  0.51100000000E-03 0.  1.
        -12    1    3    3    0    0  0.17761562693E+00 -0.19823905368E+00 -0.89897111797E+00  0.93754738775E+00  0.00000000000E+00 0.  1.
</event>
<event>
 7    1  0.3919732E-008  0.4614232E+02  0.7816164E-02  0.1320468E+00
        -11   -1    0    0    0    0  0.00000000000E+00  0.00000000000E+00  0.45593999997E+02  0.45594000000E+02  0.51100000000E-03 0.  1.
         11   -1    0    0    0    0 -0.00000000000E+00 -0.00000000000E+00 -0.45593999997E+02  0.45594000000E+02  0.51100000000E-03 0. -1.
    9900012    2    1    2    0    0  0.33204568013E+02 -0.21734561800E+02 -0.21311474184E+02  0.46142318237E+02  0.10000004342E+02 0.  0.
        -12    1    1    2    0    0 -0.33204568013E+02  0.21734561800E+02  0.21311474184E+02  0.45045681763E+02  0.00000000000E+00 0.  1.
         11    1    3    3    0    0  0.19067460772E+02 -0.14155923683E+02 -0.12516003289E+02  0.26844153446E+02  0.51100000000E-03 0. -1.
        -11    1    3    3    0    0  0.86912260513E+01 -0.60083908822E+01 -0.25597021342E+01  0.10871533771E+02  0.51100000000E-03 0.  1.
         12    1    3    3    0    0  0.54458811899E+01 -0.15702472344E+01 -0.62357687609E+01  0.84266310203E+01  0.00000000000E+00 0. -1.
</event>
<event>
 7    1  0.3919732E-008  0.4614232E+02  0.7816164E-02  0.1320468E+00
        -11   -1    0    0    0    0  0.00000000000E+00  0.00000000000E+00  0.45593999997E+02  0.45594000000E+02  0.51100000000E-03 0.  1.
         11   -1    0    0    0    0 -0.00000000000E+00 -0.00000000000E+00 -0.45593999997E+02  0.45594000000E+02  0.51100000000E-03 0. -1.
    9900012    2    1    2    0    0 -0.37634417323E+01 -0.54109510413E+01 -0.44560873147E+02  0.46142319846E+02  0.10000019015E+02 0.  0.
        -12    1    1    2    0    0  0.37634417323E+01  0.54109510413E+01  0.44560873147E+02  0.45045680154E+02  0.00000000000E+00 0.  1.
         11    1    3    3    0    0 -0.24584713048E+01 -0.24365909545E+01 -0.28554454687E+02  0.28763482741E+02  0.51100000000E-03 0. -1.
        -11    1    3    3    0    0 -0.11999948862E+01  0.15789898911E+01 -0.29841952508E+01  0.35831017790E+01  0.51100000000E-03 0.  1.
        -12    1    3    3    0    0 -0.10497554138E+00 -0.45533499778E+01 -0.13022223210E+02  0.13795735327E+02  0.00000000000E+00 0.  1.
</event>
<event>
 7    1  0.3919732E-008  0.4614233E+02  0.7816164E-02  0.1320468E+00
        -11   -1    0    0    0    0  0.00000000000E+00  0.00000000000E+00  0.45593999997E+02  0.45594000000E+02  0.51100000000E-03 0. -1.
         11   -1    0    0    0    0 -0.00000000000E+00 -0.00000000000E+00 -0.45593999997E+02  0.45594000000E+02  0.51100000000E-03 0.  1.
    9900012    2    1    2    0    0  0.27018169592E+02  0.33769862663E+02 -0.12598704988E+02  0.46142328957E+02  0.10000102088E+02 0.  0.
        -12    1    1    2    0    0 -0.27018169592E+02 -0.33769862663E+02  0.12598704988E+02  0.45045671043E+02  0.00000000000E+00 0.  1.
         11    1    3    3    0    0  0.11038832113E+01  0.24320010325E+01  0.31373361713E+00  0.26891664527E+01  0.51100000000E-03 0. -1.
        -11    1    3    3    0    0  0.29225663364E-01  0.22790642415E+01 -0.20099066439E+01  0.30388670479E+01  0.51100000000E-03 0.  1.
         12    1    3    3    0    0  0.25885060718E+02  0.29058797389E+02 -0.10902531961E+02  0.40414295456E+02  0.00000000000E+00 0. -1.
</event>
<event>
 7    1  0.3919732E-008  0.4614232E+02  0.7816164E-02  0.1320468E+00
        -11   -1    0    0    0    0  0.00000000000E+00  0.00000000000E+00  0.45593999997E+02  0.45594000000E+02  0.51100000000E-03 0.  1.
         11   -1    0    0    0    0 -0.00000000000E+00 -0.00000000000E+00 -0.45593999997E+02  0.45594000000E+02  0.51100000000E-03 0. -1.
    9900012    2    1    2    0    0 -0.22212823392E+02 -0.12199434883E+02 -0.37240806831E+02  0.46142318432E+02  0.10000006118E+02 0.  0.
        -12    1    1    2    0    0  0.22212823392E+02  0.12199434883E+02  0.37240806831E+02  0.45045681568E+02  0.00000000000E+00 0.  1.
         11    1    3    3    0    0 -0.12142703066E+02 -0.10979296304E+02 -0.17842072960E+02  0.24214246898E+02  0.51100000000E-03 0. -1.
        -11    1    3    3    0    0 -0.50636177962E+01 -0.14405736069E+00 -0.87095821968E+01  0.10075604201E+02  0.51100000000E-03 0.  1.
         12    1    3    3    0    0 -0.50065025299E+01 -0.10760812189E+01 -0.10689151674E+02  0.11852467333E+02  0.00000000000E+00 0. -1.
</event>
<event>
 7    1  0.3919732E-008  0.4614232E+02  0.7816164E-02  0.1320468E+00
        -11   -1    0    0    0    0  0.00000000000E+00  0.00000000000E+00  0.45593999997E+02  0.45594000000E+02  0.51100000000E-03 0. -1.
         11   -1    0    0    0    0 -0.00000000000E+00 -0.00000000000E+00 -0.45593999997E+02  0.45594000000E+02  0.51100000000E-03 0.  1.
    9900012    2    1    2    0    0 -0.69515557415E+01 -0.44292870770E+02  0.43509863383E+01  0.46142316407E+02  0.99999876528E+01 0.  0.
        -12    1    1    2    0    0  0.69515557415E+01  0.44292870770E+02 -0.43509863383E+01  0.45045683593E+02  0.00000000000E+00 0.  1.
         11    1    3    3    0    0 -0.44466358893E-01 -0.13344767108E+02  0.12127467542E+01  0.13399833632E+02  0.51100000000E-03 0. -1.
        -11    1    3    3    0    0 -0.64675353149E+01 -0.29814226540E+02  0.12961461995E+01  0.30535178278E+02  0.51100000000E-03 0.  1.
         12    1    3    3    0    0 -0.43955406774E+00 -0.11338771220E+01  0.18420933846E+01  0.22073044973E+01  0.00000000000E+00 0. -1.
</event>
<event>
 7    1  0.3919732E-008  0.4614232E+02  0.7816164E-02  0.1320468E+00
        -11   -1    0    0    0    0  0.00000000000E+00  0.00000000000E+00  0.45593999997E+02  0.45594000000E+02  0.51100000000E-03 0.  1.
         11   -1    0    0    0    0 -0.00000000000E+00 -0.00000000000E+00 -0.45593999997E+02  0.45594000000E+02  0.51100000000E-03 0. -1.
    9900012    2    1    2    0    0 -0.11885333403E+02 -0.10445355012E+02 -0.42175190880E+02  0.46142319662E+02  0.10000017330E+02 0.  0.
        -12    1    1    2    0    0  0.11885333403E+02  0.10445355012E+02  0.42175190880E+02  0.45045680338E+02  0.00000000000E+00 0.  1.
         11    1    3    3    0    0 -0.12091216042E+02 -0.79281362905E+01 -0.26971717734E+02  0.30602718967E+02  0.51100000000E-03 0. -1.
        -11    1    3    3    0    0  0.53276843024E+00  0.12641419848E+00 -0.28659896205E+01  0.29178278763E+01  0.51100000000E-03 0.  1.
        -12    1    3    3    0    0 -0.32688579088E+00 -0.26436329201E+01 -0.12337483525E+02  0.12621772818E+02  0.00000000000E+00 0.  1.
</event>
<event>
 7    1  0.3919732E-008  0.4614232E+02  0.7816164E-02  0.1320468E+00
        -11   -1    0    0    0    0  0.00000000000E+00  0.00000000000E+00  0.45593999997E+02  0.45594000000E+02  0.51100000000E-03 0.  1.
         11   -1    0    0    0    0 -0.00000000000E+00 -0.00000000000E+00 -0.45593999997E+02  0.45594000000E+02  0.51100000000E-03 0. -1.
    9900012    2    1    2    0    0  0.81445913404E+01 -0.34434762490E+02 -0.27875187811E+02  0.46142319504E+02  0.10000015890E+02 0.  0.
        -12    1    1    2    0    0 -0.81445913404E+01  0.34434762490E+02  0.27875187811E+02  0.45045680496E+02  0.00000000000E+00 0.  1.
         11    1    3    3    0    0  0.38835374683E+01 -0.11881587858E+02 -0.11382708556E+02  0.16906213285E+02  0.51100000000E-03 0. -1.
        -11    1    3    3    0    0  0.17430908537E+01 -0.20896496306E+02 -0.15452369839E+02  0.26047603681E+02  0.51100000000E-03 0.  1.
         12    1    3    3    0    0  0.25179630184E+01 -0.16566783262E+01 -0.10401094156E+01  0.31885025380E+01  0.00000000000E+00 0. -1.
</event>
<event>
 7    1  0.3919732E-008  0.4614232E+02  0.7816164E-02  0.1320468E+00
        -11   -1    0    0    0    0  0.00000000000E+00  0.00000000000E+00  0.45593999997E+02  0.45594000000E+02  0.51100000000E-03 0.  1.
         11   -1    0    0    0    0 -0.00000000000E+00 -0.00000000000E+00 -0.45593999997E+02  0.45594000000E+02  0.51100000000E-03 0. -1.
    9900012    2    1    2    0    0 -0.44705021250E+02 -0.48165209208E+01 -0.27158189607E+01  0.46142317949E+02  0.10000001717E+02 0.  0.
        -12    1    1    2    0    0  0.44705021250E+02  0.48165209208E+01  0.27158189607E+01  0.45045682051E+02  0.00000000000E+00 0.  1.
         11    1    3    3    0    0 -0.11394589349E+02 -0.14410194520E+00  0.56025360208E+00  0.11409264489E+02  0.51100000000E-03 0. -1.
        -11    1    3    3    0    0 -0.15824852725E+01 -0.83217148601E+00  0.16053609492E+01  0.24029051288E+01  0.51100000000E-03 0.  1.
         12    1    3    3    0    0 -0.31727946629E+02 -0.38402474896E+01 -0.48814335120E+01  0.32330148332E+02  0.00000000000E+00 0. -1.
</event>
<event>
 7    1  0.3919732E-008  0.4614232E+02  0.7816164E-02  0.1320468E+00
        -11   -1    0    0    0    0  0.00000000000E+00  0.00000000000E+00  0.45593999997E+02  0.45594000000E+02  0.51100000000E-03 0. -1.
         11   -1    0    0    0    0 -0.00000000000E+00 -0.00000000000E+00 -0.45593999997E+02  0.45594000000E+02  0.51100000000E-03 0.  1.
    9900012    2    1    2    0    0 -0.11617993274E+01  0.22331488840E+02  0.39103303695E+02  0.46142317284E+02  0.99999956519E+01 0.  0.
        -12    1    1    2    0    0  0.11617993274E+01 -0.22331488840E+02 -0.39103303695E+02  0.45045682716E+02  0.00000000000E+00 0.  1.
         11    1    3    3    0    0  0.75156158607E+00  0.67932528358E+01  0.77216527315E+01  0.10311985748E+02  0.51100000000E-03 0. -1.
        -11    1    3    3    0    0 -0.28869587782E+00 -0.76134088285E+00  0.24711284815E+01  0.26018188798E+01  0.51100000000E-03 0.  1.
         12    1    3    3    0    0 -0.16246650357E+01  0.16299576887E+02  0.28910522482E+02  0.33228512656E+02  0.00000000000E+00 0. -1.
</event>
<event>
 7    1  0.3919732E-008  0.4614232E+02  0.7816164E-02  0.1320468E+00
        -11   -1    0    0    0    0  0.00000000000E+00  0.00000000000E+00  0.45593999997E+02  0.45594000000E+02  0.51100000000E-03 0.  1.
         11   -1    0    0    0    0 -0.00000000000E+00 -0.00000000000E+00 -0.45593999997E+02  0.45594000000E+02  0.51100000000E-03 0. -1.
    9900012    2    1    2    0    0  0.13036019774E+02 -0.16541704489E+02 -0.39818934954E+02  0.46142318966E+02  0.10000010988E+02 0.  0.
        -12    1    1    2    0    0 -0.13036019774E+02  0.16541704489E+02  0.39818934954E+02  0.45045681034E+02  0.00000000000E+00 0.  1.
         11    1    3    3    0    0  0.68191301541E+01 -0.87105579496E+01 -0.18775092586E+02  0.21791706168E+02  0.51100000000E-03 0. -1.
        -11    1    3    3    0    0  0.33391100443E+01 -0.81316270927E+01 -0.12139842752E+02  0.14988288674E+02  0.51100000000E-03 0.  1.
         12    1    3    3    0    0  0.28777795757E+01  0.30048055285E+00 -0.89039996154E+01  0.93623241238E+01  0.00000000000E+00 0. -1.
</event>
<event>
 7    1  0.3919732E-008  0.4614232E+02  0.7816164E-02  0.1320468E+00
        -11   -1    0    0    0    0  0.00000000000E+00  0.00000000000E+00  0.45593999997E+02  0.45594000000E+02  0.51100000000E-03 0. -1.
         11   -1    0    0    0    0 -0.00000000000E+00 -0.00000000000E+00 -0.45593999997E+02  0.45594000000E+02  0.51100000000E-03 0.  1.
    9900012    2    1    2    0    0 -0.34956643885E+02  0.28397667209E+02  0.84797174842E+00  0.46142317513E+02  0.99999977408E+01 0.  0.
        -12    1    1    2    0    0  0.34956643885E+02 -0.28397667209E+02 -0.84797174842E+00  0.45045682487E+02  0.00000000000E+00 0.  1.
         11    1    3    3    0    0 -0.81378297488E+01  0.45906001407E+01  0.68275344100E+00  0.93682461109E+01  0.51100000000E-03 0.  1.
        -11    1    3    3    0    0 -0.20446232998E+02  0.15278355299E+02  0.31484030972E+01  0.25717484846E+02  0.51100000000E-03 0. -1.
         12    1    3    3    0    0 -0.63725811379E+01  0.85287117688E+01 -0.29831847898E+01  0.11056586557E+02  0.00000000000E+00 0. -1.
</event>
<event>
 7    1  0.3919732E-008  0.4614232E+02  0.7816164E-02  0.1320468E+00
        -11   -1    0    0    0    0  0.00000000000E+00  0.00000000000E+00  0.45593999997E+02  0.45594000000E+02  0.51100000000E-03 0.  1.
         11   -1    0    0    0    0 -0.00000000000E+00 -0.00000000000E+00 -0.45593999997E+02  0.45594000000E+02  0.51100000000E-03 0. -1.
    9900012    2    1    2    0    0 -0.28434661377E+02 -0.20834316269E+02 -0.28044873320E+02  0.46142316283E+02  0.99999865203E+01 0.  0.
        -12    1    1    2    0    0  0.28434661377E+02  0.20834316269E+02  0.28044873320E+02  0.45045683717E+02  0.00000000000E+00 0.  1.
         11    1    3    3    0    0 -0.19124912867E+01 -0.46495339265E+00 -0.28413632974E+01  0.34564649901E+01  0.51100000000E-03 0. -1.
        -11    1    3    3    0    0 -0.16886577964E+01 -0.39837987323E+01 -0.55121597305E+01  0.70075760893E+01  0.51100000000E-03 0.  1.
        -12    1    3    3    0    0 -0.24833512294E+02 -0.16385564144E+02 -0.19691350292E+02  0.35678275203E+02  0.00000000000E+00 0.  1.
</event>
<event>
 7    1  0.3919732E-008  0.4614232E+02  0.7816164E-02  0.1320468E+00
        -11   -1    0    0    0    0  0.00000000000E+00  0.00000000000E+00  0.45593999997E+02  0.45594000000E+02  0.51100000000E-03 0.  1.
         11   -1    0    0    0    0 -0.00000000000E+00 -0.00000000000E+00 -0.45593999997E+02  0.45594000000E+02  0.51100000000E-03 0. -1.
    9900012    2    1    2    0    0  0.37494462396E+01 -0.44689187724E+02 -0.42345867519E+01  0.46142316839E+02  0.99999915896E+01 0.  0.
        -12    1    1    2    0    0 -0.37494462396E+01  0.44689187724E+02  0.42345867519E+01  0.45045683161E+02  0.00000000000E+00 0.  1.
         11    1    3    3    0    0  0.12187991420E+01 -0.44307633362E+01  0.66602401003E+00  0.46433525963E+01  0.51100000000E-03 0. -1.
        -11    1    3    3    0    0  0.13926801847E+01 -0.61813678736E+00  0.10690364148E+00  0.15274422524E+01  0.51100000000E-03 0.  1.
         12    1    3    3    0    0  0.11379669130E+01 -0.39640287600E+02 -0.50075144034E+01  0.39971521990E+02  0.00000000000E+00 0. -1.
</event>
<event>
 7    1  0.3919732E-008  0.4614232E+02  0.7816164E-02  0.1320468E+00
        -11   -1    0    0    0    0  0.00000000000E+00  0.00000000000E+00  0.45593999997E+02  0.45594000000E+02  0.51100000000E-03 0. -1.
         11   -1    0    0    0    0 -0.00000000000E+00 -0.00000000000E+00 -0.45593999997E+02  0.45594000000E+02  0.51100000000E-03 0.  1.
    9900012    2    1    2    0    0 -0.34646081083E+02  0.28174558434E+02 -0.59124263876E+01  0.46142318041E+02  0.10000002553E+02 0.  0.
        -12    1    1    2    0    0  0.34646081083E+02 -0.28174558434E+02  0.59124263876E+01  0.45045681959E+02  0.00000000000E+00 0.  1.
         11    1    3    3    0    0 -0.15886689925E+01  0.10942768635E+01  0.56390745489E+00  0.20098017068E+01  0.51100000000E-03 0. -1.
        -11    1    3    3    0    0 -0.48002636388E+01  0.18747584763E+01  0.16381284372E+01  0.54074684820E+01  0.51100000000E-03 0.  1.
         12    1    3    3    0    0 -0.28257148452E+02  0.25205523094E+02 -0.81144622797E+01  0.38725047852E+02  0.00000000000E+00 0. -1.
</event>
<event>
 7    1  0.3919732E-008  0.4614232E+02  0.7816164E-02  0.1320468E+00
        -11   -1    0    0    0    0  0.00000000000E+00  0.00000000000E+00  0.45593999997E+02  0.45594000000E+02  0.51100000000E-03 0. -1.
         11   -1    0    0    0    0 -0.00000000000E+00 -0.00000000000E+00 -0.45593999997E+02  0.45594000000E+02  0.51100000000E-03 0.  1.
    9900012    2    1    2    0    0  0.19520572231E+02 -0.13892703908E+02  0.38145163984E+02  0.46142317660E+02  0.99999990798E+01 0.  0.
        -12    1    1    2    0    0 -0.19520572231E+02  0.13892703908E+02 -0.38145163984E+02  0.45045682340E+02  0.00000000000E+00 0.  1.
         11    1    3    3    0    0  0.58623868321E+01 -0.64156992587E+01  0.11509218392E+02  0.14421889079E+02  0.51100000000E-03 0. -1.
        -11    1    3    3    0    0  0.63655661551E+01 -0.85796080636E+00  0.57160980768E+01  0.85982734724E+01  0.51100000000E-03 0.  1.
        -12    1    3    3    0    0  0.72926192433E+01 -0.66190438430E+01  0.20919847515E+02  0.23122155109E+02  0.00000000000E+00 0.  1.
</event>
<event>
 7    1  0.3919732E-008  0.4614231E+02  0.7816164E-02  0.1320468E+00
        -11   -1    0    0    0    0  0.00000000000E+00  0.00000000000E+00  0.45593999997E+02  0.45594000000E+02  0.51100000000E-03 0. -1.
         11   -1    0    0    0    0 -0.00000000000E+00 -0.00000000000E+00 -0.45593999997E+02  0.45594000000E+02  0.51100000000E-03 0.  1.
    9900012    2    1    2    0    0  0.29566626288E+01 -0.29047828778E+02  0.34301539867E+02  0.46142313771E+02  0.99999636121E+01 0.  0.
        -12    1    1    2    0    0 -0.29566626288E+01  0.29047828778E+02 -0.34301539867E+02  0.45045686229E+02  0.00000000000E+00 0.  1.
         11    1    3    3    0    0  0.25111997381E+01 -0.69147916989E+01  0.12451513152E+02  0.14462387369E+02  0.51100000000E-03 0. -1.
        -11    1    3    3    0    0 -0.18292621057E+00 -0.26740281812E+01  0.39687800734E+00  0.27095020070E+01  0.51100000000E-03 0.  1.
         12    1    3    3    0    0  0.62838910123E+00 -0.19459008898E+02  0.21453148708E+02  0.28970424395E+02  0.00000000000E+00 0. -1.
</event>
<event>
 7    1  0.3919732E-008  0.4614232E+02  0.7816164E-02  0.1320468E+00
        -11   -1    0    0    0    0  0.00000000000E+00  0.00000000000E+00  0.45593999997E+02  0.45594000000E+02  0.51100000000E-03 0.  1.
         11   -1    0    0    0    0 -0.00000000000E+00 -0.00000000000E+00 -0.45593999997E+02  0.45594000000E+02  0.51100000000E-03 0. -1.
    9900012    2    1    2    0    0  0.27589028182E+02  0.94867650998E+01 -0.34321426758E+02  0.46142317379E+02  0.99999965148E+01 0.  0.
        -12    1    1    2    0    0 -0.27589028182E+02 -0.94867650998E+01  0.34321426758E+02  0.45045682621E+02  0.00000000000E+00 0.  1.
         11    1    3    3    0    0  0.20421026722E+01  0.54211121643E-01 -0.59654676147E+01  0.63055472635E+01  0.51100000000E-03 0. -1.
        -11    1    3    3    0    0  0.32137997427E+00  0.15044188904E+01 -0.15760938142E+01  0.22024153237E+01  0.51100000000E-03 0.  1.
         12    1    3    3    0    0  0.25225545536E+02  0.79281350878E+01 -0.26779865329E+02  0.37634354792E+02  0.00000000000E+00 0. -1.
</event>
<event>
 7    1  0.3919732E-008  0.4614232E+02  0.7816164E-02  0.1320468E+00
        -11   -1    0    0    0    0  0.00000000000E+00  0.00000000000E+00  0.45593999997E+02  0.45594000000E+02  0.51100000000E-03 0. -1.
         11   -1    0    0    0    0 -0.00000000000E+00 -0.00000000000E+00 -0.45593999997E+02  0.45594000000E+02  0.51100000000E-03 0.  1.
    9900012    2    1    2    0    0  0.42623482387E+02  0.11248315525E+02 -0.92643174043E+01  0.46142318410E+02  0.10000005917E+02 0.  0.
        -12    1    1    2    0    0 -0.42623482387E+02 -0.11248315525E+02  0.92643174043E+01  0.45045681590E+02  0.00000000000E+00 0.  1.
         11    1    3    3    0    0  0.23198009883E+02  0.55365624916E+01 -0.57471764372E+01  0.24532248654E+02  0.51100000000E-03 0. -1.
        -11    1    3    3    0    0  0.25482590292E+01  0.17229066943E+01  0.16812649476E+01  0.35055218788E+01  0.51100000000E-03 0.  1.
        -12    1    3    3    0    0  0.16877213475E+02  0.39888463392E+01 -0.51984059147E+01  0.18104547878E+02  0.00000000000E+00 0.  1.
</event>
<event>
 7    1  0.3919732E-008  0.4614232E+02  0.7816164E-02  0.1320468E+00
        -11   -1    0    0    0    0  0.00000000000E+00  0.00000000000E+00  0.45593999997E+02  0.45594000000E+02  0.51100000000E-03 0. -1.
         11   -1    0    0    0    0 -0.00000000000E+00 -0.00000000000E+00 -0.45593999997E+02  0.45594000000E+02  0.51100000000E-03 0.  1.
    9900012    2    1    2    0    0 -0.26169909536E+02  0.24347944027E+02  0.27412168951E+02  0.46142317077E+02  0.99999937579E+01 0.  0.
        -12    1    1    2    0    0  0.26169909536E+02 -0.24347944027E+02 -0.27412168951E+02  0.45045682923E+02  0.00000000000E+00 0.  1.
         11    1    3    3    0    0 -0.37292782833E+01  0.40381286971E+01  0.89671253393E+01  0.10517762928E+02  0.51100000000E-03 0. -1.
        -11    1    3    3    0    0 -0.12414250284E+02  0.11969400922E+02  0.85138840268E+01  0.19231910723E+02  0.51100000000E-03 0.  1.
         12    1    3    3    0    0 -0.10026380968E+02  0.83404144073E+01  0.99311595851E+01  0.16392643426E+02  0.00000000000E+00 0. -1.
</event>
<event>
 7    1  0.3919732E-008  0.4614232E+02  0.7816164E-02  0.1320468E+00
        -11   -1    0    0    0    0  0.00000000000E+00  0.00000000000E+00  0.45593999997E+02  0.45594000000E+02  0.51100000000E-03 0. -1.
         11   -1    0    0    0    0 -0.00000000000E+00 -0.00000000000E+00 -0.45593999997E+02  0.45594000000E+02  0.51100000000E-03 0.  1.
    9900012    2    1    2    0    0 -0.13016720486E+02  0.28180589977E+02  0.32642499023E+02  0.46142318674E+02  0.10000008328E+02 0.  0.
        -12    1    1    2    0    0  0.13016720486E+02 -0.28180589977E+02 -0.32642499023E+02  0.45045681326E+02  0.00000000000E+00 0.  1.
         11    1    3    3    0    0 -0.40898316739E+01  0.97408157593E+01  0.94058347931E+01  0.14144961760E+02  0.51100000000E-03 0. -1.
        -11    1    3    3    0    0 -0.62999670886E+01  0.76649314828E+01  0.63008784096E+01  0.11753375215E+02  0.51100000000E-03 0.  1.
        -12    1    3    3    0    0 -0.26269217235E+01  0.10774842735E+02  0.16935785820E+02  0.20243981699E+02  0.00000000000E+00 0.  1.
</event>
<event>
 7    1  0.3919732E-008  0.4614232E+02  0.7816164E-02  0.1320468E+00
        -11   -1    0    0    0    0  0.00000000000E+00  0.00000000000E+00  0.45593999997E+02  0.45594000000E+02  0.51100000000E-03 0.  1.
         11   -1    0    0    0    0 -0.00000000000E+00 -0.00000000000E+00 -0.45593999997E+02  0.45594000000E+02  0.51100000000E-03 0. -1.
    9900012    2    1    2    0    0  0.38958284313E+02  0.15226120077E+02 -0.16719176299E+02  0.46142317573E+02  0.99999982877E+01 0.  0.
        -12    1    1    2    0    0 -0.38958284313E+02 -0.15226120077E+02  0.16719176299E+02  0.45045682427E+02  0.00000000000E+00 0.  1.
         11    1    3    3    0    0 -0.71809746776E-02  0.58940258602E+00 -0.92290495087E-01  0.59662783325E+00  0.51100000000E-03 0. -1.
        -11    1    3    3    0    0  0.49131639675E+01 -0.39018507336E+00 -0.40967968142E+00  0.49456306237E+01  0.51100000000E-03 0.  1.
         12    1    3    3    0    0  0.34052301320E+02  0.15026902564E+02 -0.16217206122E+02  0.40600059116E+02  0.00000000000E+00 0. -1.
</event>
<event>
 7    1  0.3919732E-008  0.4614232E+02  0.7816164E-02  0.1320468E+00
        -11   -1    0    0    0    0  0.00000000000E+00  0.00000000000E+00  0.45593999997E+02  0.45594000000E+02  0.51100000000E-03 0.  1.
         11   -1    0    0    0    0 -0.00000000000E+00 -0.00000000000E+00 -0.45593999997E+02  0.45594000000E+02  0.51100000000E-03 0. -1.
    9900012    2    1    2    0    0  0.13982718293E+02  0.76645386840E+01 -0.42128991279E+02  0.46142317962E+02  0.10000001831E+02 0.  0.
        -12    1    1    2    0    0 -0.13982718293E+02 -0.76645386840E+01  0.42128991279E+02  0.45045682038E+02  0.00000000000E+00 0.  1.
         11    1    3    3    0    0  0.68073058853E+01  0.44330273147E+01 -0.24992092494E+02  0.26279190096E+02  0.51100000000E-03 0. -1.
        -11    1    3    3    0    0  0.38589961178E+01  0.30427220245E+01 -0.15294510082E+02  0.16064620981E+02  0.51100000000E-03 0.  1.
        -12    1    3    3    0    0  0.33164162900E+01  0.18878934484E+00 -0.18423887030E+01  0.37985068853E+01  0.00000000000E+00 0.  1.
</event>
<event>
 7    1  0.3919732E-008  0.4614232E+02  0.7816164E-02  0.1320468E+00
        -11   -1    0    0    0    0  0.00000000000E+00  0.00000000000E+00  0.45593999997E+02  0.45594000000E+02  0.51100000000E-03 0.  1.
         11   -1    0    0    0    0 -0.00000000000E+00 -0.00000000000E+00 -0.45593999997E+02  0.45594000000E+02  0.51100000000E-03 0. -1.
    9900012    2    1    2    0    0 -0.17484347790E+02 -0.41358500885E+02 -0.35896395485E+01  0.46142317352E+02  0.99999962707E+01 0.  0.
        -12    1    1    2    0    0  0.17484347790E+02  0.41358500885E+02  0.35896395485E+01  0.45045682648E+02  0.00000000000E+00 0.  1.
         11    1    3    3    0    0 -0.26406095090E+01 -0.27034164889E+01 -0.51924455825E+00  0.38145634696E+01  0.51100000000E-03 0. -1.
        -11    1    3    3    0    0 -0.72992803610E+00 -0.21369419946E+01  0.17832504032E+01  0.28773769804E+01  0.51100000000E-03 0.  1.
         12    1    3    3    0    0 -0.14113810245E+02 -0.36518142402E+02 -0.48536453934E+01  0.39450376902E+02  0.00000000000E+00 0. -1.
</event>
<event>
 7    1  0.3919732E-008  0.4614232E+02  0.7816164E-02  0.1320468E+00
        -11   -1    0    0    0    0  0.00000000000E+00  0.00000000000E+00  0.45593999997E+02  0.45594000000E+02  0.51100000000E-03 0.  1.
         11   -1    0    0    0    0 -0.00000000000E+00 -0.00000000000E+00 -0.45593999997E+02  0.45594000000E+02  0.51100000000E-03 0. -1.
    9900012    2    1    2    0    0 -0.98302708775E+01 -0.27760261811E+02 -0.34085879601E+02  0.46142317083E+02  0.99999938148E+01 0.  0.
        -12    1    1    2    0    0  0.98302708775E+01  0.27760261811E+02  0.34085879601E+02  0.45045682917E+02  0.00000000000E+00 0.  1.
         11    1    3    3    0    0 -0.58775370701E+00 -0.17580976696E+01 -0.54827877117E+01  0.57876872055E+01  0.51100000000E-03 0. -1.
        -11    1    3    3    0    0 -0.23683351060E+01 -0.66594243405E+01 -0.33822160209E+01  0.78355809736E+01  0.51100000000E-03 0.  1.
         12    1    3    3    0    0 -0.68741820645E+01 -0.19342739801E+02 -0.25220875868E+02  0.32519048904E+02  0.00000000000E+00 0. -1.
</event>
<event>
 7    1  0.3919732E-008  0.4614232E+02  0.7816164E-02  0.1320468E+00
        -11   -1    0    0    0    0  0.00000000000E+00  0.00000000000E+00  0.45593999997E+02  0.45594000000E+02  0.51100000000E-03 0. -1.
         11   -1    0    0    0    0 -0.00000000000E+00 -0.00000000000E+00 -0.45593999997E+02  0.45594000000E+02  0.51100000000E-03 0.  1.
    9900012    2    1    2    0    0 -0.15301207830E+02  0.15015296819E+02  0.39617260700E+02  0.46142318242E+02  0.10000004389E+02 0.  0.
        -12    1    1    2    0    0  0.15301207830E+02 -0.15015296819E+02 -0.39617260700E+02  0.45045681758E+02  0.00000000000E+00 0.  1.
         11    1    3    3    0    0 -0.10906080560E+02  0.68982964426E+01  0.27076736127E+02  0.29994644965E+02  0.51100000000E-03 0. -1.
        -11    1    3    3    0    0 -0.64394027662E+00  0.19809340783E+01  0.53128932132E+00  0.21496575324E+01  0.51100000000E-03 0.  1.
         12    1    3    3    0    0 -0.37511869927E+01  0.61360662983E+01  0.12009235252E+02  0.13998015745E+02  0.00000000000E+00 0. -1.
</event>
<event>
 7    1  0.3919732E-008  0.4614232E+02  0.7816164E-02  0.1320468E+00
        -11   -1    0    0    0    0  0.00000000000E+00  0.00000000000E+00  0.45593999997E+02  0.45594000000E+02  0.51100000000E-03 0. -1.
         11   -1    0    0    0    0 -0.00000000000E+00 -0.00000000000E+00 -0.45593999997E+02  0.45594000000E+02  0.51100000000E-03 0.  1.
    9900012    2    1    2    0    0  0.28994863981E+02 -0.23199067201E+02 -0.25499305357E+02  0.46142318409E+02  0.10000005911E+02 0.  0.
        -12    1    1    2    0    0 -0.28994863981E+02  0.23199067201E+02  0.25499305357E+02  0.45045681591E+02  0.00000000000E+00 0.  1.
         11    1    3    3    0    0  0.14711987130E+02 -0.99704315649E+01 -0.12328010175E+02  0.21629422231E+02  0.51100000000E-03 0. -1.
        -11    1    3    3    0    0  0.36965765064E+01 -0.13128180539E-01 -0.17626225600E+01  0.40953252333E+01  0.51100000000E-03 0.  1.
         12    1    3    3    0    0  0.10586300344E+02 -0.13215507456E+02 -0.11408672622E+02  0.20417570945E+02  0.00000000000E+00 0. -1.
</event>
<event>
 7    1  0.3919732E-008  0.4614232E+02  0.7816164E-02  0.1320468E+00
        -11   -1    0    0    0    0  0.00000000000E+00  0.00000000000E+00  0.45593999997E+02  0.45594000000E+02  0.51100000000E-03 0.  1.
         11   -1    0    0    0    0 -0.00000000000E+00 -0.00000000000E+00 -0.45593999997E+02  0.45594000000E+02  0.51100000000E-03 0. -1.
    9900012    2    1    2    0    0  0.29642543522E+02  0.31951240887E+02  0.11382062717E+02  0.46142317273E+02  0.99999955472E+01 0.  0.
        -12    1    1    2    0    0 -0.29642543522E+02 -0.31951240887E+02 -0.11382062717E+02  0.45045682727E+02  0.00000000000E+00 0.  1.
         11    1    3    3    0    0  0.32834488222E+01  0.29417423621E+01  0.33411516169E+01  0.55315620471E+01  0.51100000000E-03 0. -1.
        -11    1    3    3    0    0  0.68438598472E+01  0.44761618753E+01  0.36535428323E+01  0.89567191667E+01  0.51100000000E-03 0.  1.
        -12    1    3    3    0    0  0.19515234853E+02  0.24533336649E+02  0.43873682682E+01  0.31654036059E+02  0.00000000000E+00 0.  1.
</event>
<event>
 7    1  0.3919732E-008  0.4614232E+02  0.7816164E-02  0.1320468E+00
        -11   -1    0    0    0    0  0.00000000000E+00  0.00000000000E+00  0.45593999997E+02  0.45594000000E+02  0.51100000000E-03 0. -1.
         11   -1    0    0    0    0 -0.00000000000E+00 -0.00000000000E+00 -0.45593999997E+02  0.45594000000E+02  0.51100000000E-03 0.  1.
    9900012    2    1    2    0    0 -0.43567925490E+02  0.13387008855E+01  0.11364737124E+02  0.46142317615E+02  0.99999986703E+01 0.  0.
        -12    1    1    2    0    0  0.43567925490E+02 -0.13387008855E+01 -0.11364737124E+02  0.45045682385E+02  0.00000000000E+00 0.  1.
         11    1    3    3    0    0 -0.15097075166E+02  0.30237034836E+01  0.31298800088E+01  0.15711798447E+02  0.51100000000E-03 0.  1.
        -11    1    3    3    0    0 -0.24068266687E+01  0.12026635721E+00 -0.11492833925E+01  0.26698560237E+01  0.51100000000E-03 0. -1.
         12    1    3    3    0    0 -0.26064023656E+02 -0.18052689553E+01  0.93841405077E+01  0.27760663144E+02  0.00000000000E+00 0. -1.
</event>
<event>
 7    1  0.3919732E-008  0.4614232E+02  0.7816164E-02  0.1320468E+00
        -11   -1    0    0    0    0  0.00000000000E+00  0.00000000000E+00  0.45593999997E+02  0.45594000000E+02  0.51100000000E-03 0.  1.
         11   -1    0    0    0    0 -0.00000000000E+00 -0.00000000000E+00 -0.45593999997E+02  0.45594000000E+02  0.51100000000E-03 0. -1.
    9900012    2    1    2    0    0  0.17303158514E+02  0.25262275635E+02 -0.33038335372E+02  0.46142317977E+02  0.10000001966E+02 0.  0.
        -12    1    1    2    0    0 -0.17303158514E+02 -0.25262275635E+02  0.33038335372E+02  0.45045682023E+02  0.00000000000E+00 0.  1.
         11    1    3    3    0    0  0.11581450796E+02  0.10869709810E+02 -0.15665935928E+02  0.22309238953E+02  0.51100000000E-03 0. -1.
        -11    1    3    3    0    0 -0.38415460954E+00  0.44656827991E+01 -0.33264094037E+01  0.55816572278E+01  0.51100000000E-03 0.  1.
         12    1    3    3    0    0  0.61058623273E+01  0.99268830257E+01 -0.14045990040E+02  0.18251421796E+02  0.00000000000E+00 0. -1.
</event>
<event>
 7    1  0.3919732E-008  0.4614232E+02  0.7816164E-02  0.1320468E+00
        -11   -1    0    0    0    0  0.00000000000E+00  0.00000000000E+00  0.45593999997E+02  0.45594000000E+02  0.51100000000E-03 0. -1.
         11   -1    0    0    0    0 -0.00000000000E+00 -0.00000000000E+00 -0.45593999997E+02  0.45594000000E+02  0.51100000000E-03 0.  1.
    9900012    2    1    2    0    0 -0.44747641022E+02  0.16896049253E+00 -0.51704517063E+01  0.46142317682E+02  0.99999992787E+01 0.  0.
        -12    1    1    2    0    0  0.44747641022E+02 -0.16896049253E+00  0.51704517063E+01  0.45045682318E+02  0.00000000000E+00 0.  1.
         11    1    3    3    0    0 -0.33008816193E+01 -0.13353771611E+01 -0.15324730503E+00  0.35640618155E+01  0.51100000000E-03 0. -1.
        -11    1    3    3    0    0 -0.17730957656E+02 -0.29291418697E+01 -0.18375057962E+00  0.17972214555E+02  0.51100000000E-03 0.  1.
        -12    1    3    3    0    0 -0.23715801747E+02  0.44334795234E+01 -0.48334538216E+01  0.24606041312E+02  0.00000000000E+00 0.  1.
</event>
<event>
 7    1  0.5216627E-008  0.4614232E+02  0.7816164E-02  0.1320468E+00
        -11   -1    0    0    0    0  0.00000000000E+00  0.00000000000E+00  0.45593999997E+02  0.45594000000E+02  0.51100000000E-03 0. -1.
         11   -1    0    0    0    0 -0.00000000000E+00 -0.00000000000E+00 -0.45593999997E+02  0.45594000000E+02  0.51100000000E-03 0.  1.
    9900012    2    1    2    0    0 -0.14398212430E+02 -0.42167633809E+02  0.66102488707E+01  0.46142320381E+02  0.10000023887E+02 0.  0.
        -12    1    1    2    0    0  0.14398212430E+02  0.42167633809E+02 -0.66102488707E+01  0.45045679619E+02  0.00000000000E+00 0.  1.
         11    1    3    3    0    0 -0.34549655633E+01 -0.22230238926E+02  0.40342965247E+01  0.22855980803E+02  0.51100000000E-03 0. -1.
        -11    1    3    3    0    0 -0.92493455143E+00 -0.34412629212E+01  0.17469259122E+01  0.39685696190E+01  0.51100000000E-03 0.  1.
        -12    1    3    3    0    0 -0.10018312316E+02 -0.16496131962E+02  0.82902643380E+00  0.19317769959E+02  0.00000000000E+00 0.  1.
</event>
<event>
 7    1  0.3919732E-008  0.4614232E+02  0.7816164E-02  0.1320468E+00
        -11   -1    0    0    0    0  0.00000000000E+00  0.00000000000E+00  0.45593999997E+02  0.45594000000E+02  0.51100000000E-03 0. -1.
         11   -1    0    0    0    0 -0.00000000000E+00 -0.00000000000E+00 -0.45593999997E+02  0.45594000000E+02  0.51100000000E-03 0.  1.
    9900012    2    1    2    0    0  0.44143014089E+01 -0.36306290450E+02  0.26296019713E+02  0.46142318343E+02  0.10000005309E+02 0.  0.
        -12    1    1    2    0    0 -0.44143014089E+01  0.36306290450E+02 -0.26296019713E+02  0.45045681657E+02  0.00000000000E+00 0.  1.
         11    1    3    3    0    0  0.12550554200E+01 -0.10863597565E+02  0.12887817800E+02  0.16902330137E+02  0.51100000000E-03 0. -1.
        -11    1    3    3    0    0 -0.53194185205E+00 -0.40410981086E+01  0.34851197162E+01  0.53627880580E+01  0.51100000000E-03 0.  1.
        -12    1    3    3    0    0  0.36911878409E+01 -0.21401594776E+02  0.99230821977E+01  0.23877200148E+02  0.00000000000E+00 0.  1.
</event>
<event>
 7    1  0.3919732E-008  0.4614232E+02  0.7816164E-02  0.1320468E+00
        -11   -1    0    0    0    0  0.00000000000E+00  0.00000000000E+00  0.45593999997E+02  0.45594000000E+02  0.51100000000E-03 0.  1.
         11   -1    0    0    0    0 -0.00000000000E+00 -0.00000000000E+00 -0.45593999997E+02  0.45594000000E+02  0.51100000000E-03 0. -1.
    9900012    2    1    2    0    0 -0.23112677411E+02 -0.12837623901E+02 -0.36470715312E+02  0.46142317411E+02  0.99999968059E+01 0.  0.
        -12    1    1    2    0    0  0.23112677411E+02  0.12837623901E+02  0.36470715312E+02  0.45045682589E+02  0.00000000000E+00 0.  1.
         11    1    3    3    0    0 -0.11432826156E+02 -0.85648061003E+01 -0.20731963896E+02  0.25176968537E+02  0.51100000000E-03 0.  1.
        -11    1    3    3    0    0 -0.95521826329E+01 -0.57444880973E+01 -0.13760602873E+02  0.17708685107E+02  0.51100000000E-03 0. -1.
        -12    1    3    3    0    0 -0.21276686222E+01  0.14716702968E+01 -0.19781485432E+01  0.32566637664E+01  0.00000000000E+00 0.  1.
</event>
<event>
 7    1  0.3919732E-008  0.4614232E+02  0.7816164E-02  0.1320468E+00
        -11   -1    0    0    0    0  0.00000000000E+00  0.00000000000E+00  0.45593999997E+02  0.45594000000E+02  0.51100000000E-03 0.  1.
         11   -1    0    0    0    0 -0.00000000000E+00 -0.00000000000E+00 -0.45593999997E+02  0.45594000000E+02  0.51100000000E-03 0. -1.
    9900012    2    1    2    0    0  0.24158619565E+02 -0.23881882770E+02 -0.29582600485E+02  0.46142317905E+02  0.10000001315E+02 0.  0.
        -12    1    1    2    0    0 -0.24158619565E+02  0.23881882770E+02  0.29582600485E+02  0.45045682095E+02  0.00000000000E+00 0.  1.
         11    1    3    3    0    0  0.23323176284E+02 -0.18734236385E+02 -0.23321081057E+02  0.37931714788E+02  0.51100000000E-03 0. -1.
        -11    1    3    3    0    0 -0.22287352928E+00 -0.12149871815E+01 -0.15802559599E+01  0.20057606091E+01  0.51100000000E-03 0.  1.
         12    1    3    3    0    0  0.10583168104E+01 -0.39326592038E+01 -0.46812634685E+01  0.62048425077E+01  0.00000000000E+00 0. -1.
</event>
<event>
 7    1  0.3919732E-008  0.4614232E+02  0.7816164E-02  0.1320468E+00
        -11   -1    0    0    0    0  0.00000000000E+00  0.00000000000E+00  0.45593999997E+02  0.45594000000E+02  0.51100000000E-03 0.  1.
         11   -1    0    0    0    0 -0.00000000000E+00 -0.00000000000E+00 -0.45593999997E+02  0.45594000000E+02  0.51100000000E-03 0. -1.
    9900012    2    1    2    0    0  0.20727766217E+02  0.32016109724E+01 -0.39865059270E+02  0.46142317013E+02  0.99999931780E+01 0.  0.
        -12    1    1    2    0    0 -0.20727766217E+02 -0.32016109724E+01  0.39865059270E+02  0.45045682987E+02  0.00000000000E+00 0.  1.
         11    1    3    3    0    0  0.38474600997E+01  0.37675111380E+01 -0.11128353652E+02  0.12362740176E+02  0.51100000000E-03 0. -1.
        -11    1    3    3    0    0  0.42083521686E+01  0.11949940001E+01 -0.11573295442E+02  0.12372526270E+02  0.51100000000E-03 0.  1.
         12    1    3    3    0    0  0.12671953948E+02 -0.17608941657E+01 -0.17163410176E+02  0.21407050567E+02  0.00000000000E+00 0. -1.
</event>
<event>
 7    1  0.3919732E-008  0.4614232E+02  0.7816164E-02  0.1320468E+00
        -11   -1    0    0    0    0  0.00000000000E+00  0.00000000000E+00  0.45593999997E+02  0.45594000000E+02  0.51100000000E-03 0.  1.
         11   -1    0    0    0    0 -0.00000000000E+00 -0.00000000000E+00 -0.45593999997E+02  0.45594000000E+02  0.51100000000E-03 0. -1.
    9900012    2    1    2    0    0  0.16314683569E+02 -0.41848417121E+02  0.34138807373E+01  0.46142317664E+02  0.99999991122E+01 0.  0.
        -12    1    1    2    0    0 -0.16314683569E+02  0.41848417121E+02 -0.34138807373E+01  0.45045682336E+02  0.00000000000E+00 0.  1.
         11    1    3    3    0    0  0.90179110897E+01 -0.29096902445E+02  0.98035000711E+00  0.30478082924E+02  0.51100000000E-03 0. -1.
        -11    1    3    3    0    0  0.73446237834E+01 -0.86289655089E+01  0.14329575454E+01  0.11421729810E+02  0.51100000000E-03 0.  1.
        -12    1    3    3    0    0 -0.47851304213E-01 -0.41225491665E+01  0.10005731848E+01  0.42425049294E+01  0.00000000000E+00 0.  1.
</event>
<event>
 7    1  0.3919732E-008  0.4614232E+02  0.7816164E-02  0.1320468E+00
        -11   -1    0    0    0    0  0.00000000000E+00  0.00000000000E+00  0.45593999997E+02  0.45594000000E+02  0.51100000000E-03 0.  1.
         11   -1    0    0    0    0 -0.00000000000E+00 -0.00000000000E+00 -0.45593999997E+02  0.45594000000E+02  0.51100000000E-03 0. -1.
    9900012    2    1    2    0    0 -0.32441308671E+01  0.32429738327E+01 -0.44811519610E+02  0.46142317031E+02  0.99999933413E+01 0.  0.
        -12    1    1    2    0    0  0.32441308671E+01 -0.32429738327E+01  0.44811519610E+02  0.45045682969E+02  0.00000000000E+00 0.  1.
         11    1    3    3    0    0 -0.25152290206E+01  0.21839255707E+01 -0.29185241922E+02  0.29374721348E+02  0.51100000000E-03 0. -1.
        -11    1    3    3    0    0 -0.28865922193E+01 -0.95766253874E+00 -0.93269627665E+01  0.98102888279E+01  0.51100000000E-03 0.  1.
        -12    1    3    3    0    0  0.21576903728E+01  0.20167108008E+01 -0.62993149216E+01  0.69573068554E+01  0.00000000000E+00 0.  1.
</event>
<event>
 7    1  0.3919732E-008  0.4614232E+02  0.7816164E-02  0.1320468E+00
        -11   -1    0    0    0    0  0.00000000000E+00  0.00000000000E+00  0.45593999997E+02  0.45594000000E+02  0.51100000000E-03 0.  1.
         11   -1    0    0    0    0 -0.00000000000E+00 -0.00000000000E+00 -0.45593999997E+02  0.45594000000E+02  0.51100000000E-03 0. -1.
    9900012    2    1    2    0    0  0.67458254568E+01 -0.37263563617E+02 -0.24393316891E+02  0.46142320480E+02  0.10000024792E+02 0.  0.
        -12    1    1    2    0    0 -0.67458254568E+01  0.37263563617E+02  0.24393316891E+02  0.45045679520E+02  0.00000000000E+00 0.  1.
         11    1    3    3    0    0  0.47898752137E+01 -0.26444007791E+02 -0.14606688416E+02  0.30587314353E+02  0.51100000000E-03 0. -1.
        -11    1    3    3    0    0  0.75723108601E+00 -0.66558683036E+01 -0.88884665080E+01  0.11130086204E+02  0.51100000000E-03 0.  1.
        -12    1    3    3    0    0  0.11987191571E+01 -0.41636875221E+01 -0.89816196696E+00  0.44249199222E+01  0.00000000000E+00 0.  1.
</event>
<event>
 7    1  0.3919732E-008  0.4614232E+02  0.7816164E-02  0.1320468E+00
        -11   -1    0    0    0    0  0.00000000000E+00  0.00000000000E+00  0.45593999997E+02  0.45594000000E+02  0.51100000000E-03 0.  1.
         11   -1    0    0    0    0 -0.00000000000E+00 -0.00000000000E+00 -0.45593999997E+02  0.45594000000E+02  0.51100000000E-03 0. -1.
    9900012    2    1    2    0    0 -0.28893657399E+02 -0.21954943986E+02 -0.26688017498E+02  0.46142320060E+02  0.10000020959E+02 0.  0.
        -12    1    1    2    0    0  0.28893657399E+02  0.21954943986E+02  0.26688017498E+02  0.45045679940E+02  0.00000000000E+00 0.  1.
         11    1    3    3    0    0 -0.43183474446E+01 -0.62564159337E+01 -0.81418116381E+01  0.11139118547E+02  0.51100000000E-03 0. -1.
        -11    1    3    3    0    0 -0.76736422889E+01 -0.22614810116E+01 -0.62778029661E+01  0.10169065478E+02  0.51100000000E-03 0.  1.
         12    1    3    3    0    0 -0.16901667665E+02 -0.13437047041E+02 -0.12268402894E+02  0.24834136035E+02  0.00000000000E+00 0. -1.
</event>
<event>
 7    1  0.3919732E-008  0.4614232E+02  0.7816164E-02  0.1320468E+00
        -11   -1    0    0    0    0  0.00000000000E+00  0.00000000000E+00  0.45593999997E+02  0.45594000000E+02  0.51100000000E-03 0.  1.
         11   -1    0    0    0    0 -0.00000000000E+00 -0.00000000000E+00 -0.45593999997E+02  0.45594000000E+02  0.51100000000E-03 0. -1.
    9900012    2    1    2    0    0  0.43926019548E+02 -0.99757098631E+01  0.32160536943E+00  0.46142318624E+02  0.10000007867E+02 0.  0.
        -12    1    1    2    0    0 -0.43926019548E+02  0.99757098631E+01 -0.32160536943E+00  0.45045681376E+02  0.00000000000E+00 0.  1.
         11    1    3    3    0    0  0.21511661015E+02 -0.70967707506E+01  0.15769703024E+00  0.22652606546E+02  0.51100000000E-03 0. -1.
        -11    1    3    3    0    0  0.83846221721E+01  0.16616785012E+01  0.15180845895E+01  0.86814541116E+01  0.51100000000E-03 0.  1.
        -12    1    3    3    0    0  0.14029736361E+02 -0.45406176136E+01 -0.13541762503E+01  0.14808257966E+02  0.00000000000E+00 0.  1.
</event>
<event>
 7    1  0.3919732E-008  0.4614232E+02  0.7816164E-02  0.1320468E+00
        -11   -1    0    0    0    0  0.00000000000E+00  0.00000000000E+00  0.45593999997E+02  0.45594000000E+02  0.51100000000E-03 0. -1.
         11   -1    0    0    0    0 -0.00000000000E+00 -0.00000000000E+00 -0.45593999997E+02  0.45594000000E+02  0.51100000000E-03 0.  1.
    9900012    2    1    2    0    0 -0.41829236272E+02 -0.16695660300E+02  0.82667037455E+00  0.46142318033E+02  0.10000002481E+02 0.  0.
        -12    1    1    2    0    0  0.41829236272E+02  0.16695660300E+02 -0.82667037455E+00  0.45045681967E+02  0.00000000000E+00 0.  1.
         11    1    3    3    0    0 -0.13132082222E+02 -0.49917423646E+01  0.30688411000E+01  0.14380085580E+02  0.51100000000E-03 0. -1.
        -11    1    3    3    0    0 -0.17553693794E+02 -0.88752326346E+01  0.13531178705E+01  0.19716309197E+02  0.51100000000E-03 0.  1.
         12    1    3    3    0    0 -0.11143460256E+02 -0.28286853010E+01 -0.35952885960E+01  0.12045923256E+02  0.00000000000E+00 0. -1.
</event>
<event>
 7    1  0.3919732E-008  0.4614232E+02  0.7816164E-02  0.1320468E+00
        -11   -1    0    0    0    0  0.00000000000E+00  0.00000000000E+00  0.45593999997E+02  0.45594000000E+02  0.51100000000E-03 0.  1.
         11   -1    0    0    0    0 -0.00000000000E+00 -0.00000000000E+00 -0.45593999997E+02  0.45594000000E+02  0.51100000000E-03 0. -1.
    9900012    2    1    2    0    0  0.34142501890E+02  0.20502962055E+02 -0.21048316229E+02  0.46142317583E+02  0.99999983723E+01 0.  0.
        -12    1    1    2    0    0 -0.34142501890E+02 -0.20502962055E+02  0.21048316229E+02  0.45045682417E+02  0.00000000000E+00 0.  1.
         11    1    3    3    0    0  0.31255675742E+02  0.19017519513E+02 -0.18037611959E+02  0.40791405467E+02  0.51100000000E-03 0. -1.
        -11    1    3    3    0    0  0.16760485741E+01  0.16483795891E+01 -0.29015679836E+00  0.23686463057E+01  0.51100000000E-03 0.  1.
        -12    1    3    3    0    0  0.12107775741E+01 -0.16293704684E+00 -0.27205474719E+01  0.29822658101E+01  0.00000000000E+00 0.  1.
</event>
<event>
 7    1  0.3919732E-008  0.4614232E+02  0.7816164E-02  0.1320468E+00
        -11   -1    0    0    0    0  0.00000000000E+00  0.00000000000E+00  0.45593999997E+02  0.45594000000E+02  0.51100000000E-03 0.  1.
         11   -1    0    0    0    0 -0.00000000000E+00 -0.00000000000E+00 -0.45593999997E+02  0.45594000000E+02  0.51100000000E-03 0. -1.
    9900012    2    1    2    0    0 -0.33670980815E+02 -0.15105924264E+02 -0.25830012913E+02  0.46142318031E+02  0.10000002462E+02 0.  0.
        -12    1    1    2    0    0  0.33670980815E+02  0.15105924264E+02  0.25830012913E+02  0.45045681969E+02  0.00000000000E+00 0.  1.
         11    1    3    3    0    0 -0.19227713483E+02 -0.78123723404E+01 -0.14371397825E+02  0.25244310311E+02  0.51100000000E-03 0. -1.
        -11    1    3    3    0    0 -0.12646680797E+01 -0.35186686580E+01 -0.19735159347E+01  0.42279049046E+01  0.51100000000E-03 0.  1.
         12    1    3    3    0    0 -0.13178599252E+02 -0.37748832660E+01 -0.94850991530E+01  0.16670102815E+02  0.00000000000E+00 0. -1.
</event>
<event>
 7    1  0.3919732E-008  0.4614232E+02  0.7816164E-02  0.1320468E+00
        -11   -1    0    0    0    0  0.00000000000E+00  0.00000000000E+00  0.45593999997E+02  0.45594000000E+02  0.51100000000E-03 0. -1.
         11   -1    0    0    0    0 -0.00000000000E+00 -0.00000000000E+00 -0.45593999997E+02  0.45594000000E+02  0.51100000000E-03 0.  1.
    9900012    2    1    2    0    0  0.20091871436E+02 -0.26379046954E+02  0.30488952192E+02  0.46142316280E+02  0.99999864975E+01 0.  0.
        -12    1    1    2    0    0 -0.20091871436E+02  0.26379046954E+02 -0.30488952192E+02  0.45045683720E+02  0.00000000000E+00 0.  1.
         11    1    3    3    0    0  0.29034267695E+01 -0.16005979742E+01  0.31444026207E+01  0.45693619887E+01  0.51100000000E-03 0. -1.
        -11    1    3    3    0    0  0.12226970853E+02 -0.12413779981E+02  0.11525991852E+02  0.20891367549E+02  0.51100000000E-03 0.  1.
         12    1    3    3    0    0  0.49614738134E+01 -0.12364668999E+02  0.15818557720E+02  0.20681586742E+02  0.00000000000E+00 0. -1.
</event>
<event>
 7    1  0.3919732E-008  0.4614232E+02  0.7816164E-02  0.1320468E+00
        -11   -1    0    0    0    0  0.00000000000E+00  0.00000000000E+00  0.45593999997E+02  0.45594000000E+02  0.51100000000E-03 0.  1.
         11   -1    0    0    0    0 -0.00000000000E+00 -0.00000000000E+00 -0.45593999997E+02  0.45594000000E+02  0.51100000000E-03 0. -1.
    9900012    2    1    2    0    0 -0.25011985142E+02  0.29469815141E+02 -0.23131019214E+02  0.46142318131E+02  0.10000003373E+02 0.  0.
        -12    1    1    2    0    0  0.25011985142E+02 -0.29469815141E+02  0.23131019214E+02  0.45045681869E+02  0.00000000000E+00 0.  1.
         11    1    3    3    0    0 -0.79852011025E+01  0.13018431890E+02 -0.67885581149E+01  0.16713094479E+02  0.51100000000E-03 0. -1.
        -11    1    3    3    0    0 -0.51977317039E+01  0.53960853931E+01 -0.18917741124E+01  0.77274162557E+01  0.51100000000E-03 0.  1.
        -12    1    3    3    0    0 -0.11829052335E+02  0.11055297857E+02 -0.14450686987E+02  0.21701807396E+02  0.00000000000E+00 0.  1.
</event>
<event>
 7    1  0.3919732E-008  0.4614232E+02  0.7816164E-02  0.1320468E+00
        -11   -1    0    0    0    0  0.00000000000E+00  0.00000000000E+00  0.45593999997E+02  0.45594000000E+02  0.51100000000E-03 0.  1.
         11   -1    0    0    0    0 -0.00000000000E+00 -0.00000000000E+00 -0.45593999997E+02  0.45594000000E+02  0.51100000000E-03 0. -1.
    9900012    2    1    2    0    0  0.42180187192E+02 -0.30511485352E+01 -0.15512439995E+02  0.46142317703E+02  0.99999994725E+01 0.  0.
        -12    1    1    2    0    0 -0.42180187192E+02  0.30511485352E+01  0.15512439995E+02  0.45045682297E+02  0.00000000000E+00 0.  1.
         11    1    3    3    0    0  0.26801605561E+02  0.12944235794E+01 -0.72111776928E+01  0.27784936153E+02  0.51100000000E-03 0. -1.
        -11    1    3    3    0    0  0.12981680007E+02 -0.26222482472E+01 -0.77788930860E+01  0.15359406876E+02  0.51100000000E-03 0.  1.
         12    1    3    3    0    0  0.23969016235E+01 -0.17233238675E+01 -0.52236921664E+00  0.29979746736E+01  0.00000000000E+00 0. -1.
</event>
<event>
 7    1  0.3919732E-008  0.4614232E+02  0.7816164E-02  0.1320468E+00
        -11   -1    0    0    0    0  0.00000000000E+00  0.00000000000E+00  0.45593999997E+02  0.45594000000E+02  0.51100000000E-03 0.  1.
         11   -1    0    0    0    0 -0.00000000000E+00 -0.00000000000E+00 -0.45593999997E+02  0.45594000000E+02  0.51100000000E-03 0. -1.
    9900012    2    1    2    0    0 -0.15281211393E+02  0.38351133045E+02 -0.18021891336E+02  0.46142318800E+02  0.10000009471E+02 0.  0.
        -12    1    1    2    0    0  0.15281211393E+02 -0.38351133045E+02  0.18021891336E+02  0.45045681200E+02  0.00000000000E+00 0.  1.
         11    1    3    3    0    0 -0.27178918202E+01  0.53831029611E+01 -0.52541988631E+01  0.79982085113E+01  0.51100000000E-03 0. -1.
        -11    1    3    3    0    0 -0.40201266856E+00  0.14026898108E+01  0.83883818286E+00  0.16830931790E+01  0.51100000000E-03 0.  1.
         12    1    3    3    0    0 -0.12161306904E+02  0.31565340273E+02 -0.13606530656E+02  0.36461017109E+02  0.00000000000E+00 0. -1.
</event>
<event>
 7    1  0.3919732E-008  0.4614232E+02  0.7816164E-02  0.1320468E+00
        -11   -1    0    0    0    0  0.00000000000E+00  0.00000000000E+00  0.45593999997E+02  0.45594000000E+02  0.51100000000E-03 0.  1.
         11   -1    0    0    0    0 -0.00000000000E+00 -0.00000000000E+00 -0.45593999997E+02  0.45594000000E+02  0.51100000000E-03 0. -1.
    9900012    2    1    2    0    0  0.24877598248E+02  0.14918625969E+02 -0.34462345578E+02  0.46142316987E+02  0.99999929410E+01 0.  0.
        -12    1    1    2    0    0 -0.24877598248E+02 -0.14918625969E+02  0.34462345578E+02  0.45045683013E+02  0.00000000000E+00 0.  1.
         11    1    3    3    0    0  0.79040813368E+01  0.55063627646E+01 -0.10670368177E+02  0.14375370951E+02  0.51100000000E-03 0. -1.
        -11    1    3    3    0    0 -0.65097727102E+00  0.15864309833E+01 -0.25986062847E+01  0.31134048172E+01  0.51100000000E-03 0.  1.
        -12    1    3    3    0    0  0.17624494183E+02  0.78258322207E+01 -0.21193371116E+02  0.28653541219E+02  0.00000000000E+00 0.  1.
</event>
<event>
 7    1  0.3919732E-008  0.4614232E+02  0.7816164E-02  0.1320468E+00
        -11   -1    0    0    0    0  0.00000000000E+00  0.00000000000E+00  0.45593999997E+02  0.45594000000E+02  0.51100000000E-03 0.  1.
         11   -1    0    0    0    0 -0.00000000000E+00 -0.00000000000E+00 -0.45593999997E+02  0.45594000000E+02  0.51100000000E-03 0. -1.
    9900012    2    1    2    0    0  0.89587519880E+01  0.23477096153E+02 -0.37385560682E+02  0.46142318426E+02  0.10000006064E+02 0.  0.
        -12    1    1    2    0    0 -0.89587519880E+01 -0.23477096153E+02  0.37385560682E+02  0.45045681574E+02  0.00000000000E+00 0.  1.
         11    1    3    3    0    0 -0.11780361588E+01  0.69760929554E+00 -0.16276464128E+01  0.21268899894E+01  0.51100000000E-03 0. -1.
        -11    1    3    3    0    0  0.18245757197E+01  0.13248371085E+01 -0.59318896960E+01  0.63459897217E+01  0.51100000000E-03 0.  1.
         12    1    3    3    0    0  0.83122124271E+01  0.21454649749E+02 -0.29826024573E+02  0.37669438715E+02  0.00000000000E+00 0. -1.
</event>
<event>
 7    1  0.3919732E-008  0.4614232E+02  0.7816164E-02  0.1320468E+00
        -11   -1    0    0    0    0  0.00000000000E+00  0.00000000000E+00  0.45593999997E+02  0.45594000000E+02  0.51100000000E-03 0. -1.
         11   -1    0    0    0    0 -0.00000000000E+00 -0.00000000000E+00 -0.45593999997E+02  0.45594000000E+02  0.51100000000E-03 0.  1.
    9900012    2    1    2    0    0  0.22894280710E+02  0.36918937198E+02  0.11914590398E+02  0.46142317883E+02  0.10000001107E+02 0.  0.
        -12    1    1    2    0    0 -0.22894280710E+02 -0.36918937198E+02 -0.11914590398E+02  0.45045682117E+02  0.00000000000E+00 0.  1.
         11    1    3    3    0    0  0.11482454097E+02  0.21557191211E+02  0.37252870200E+01  0.24707023467E+02  0.51100000000E-03 0. -1.
        -11    1    3    3    0    0  0.92679849354E+01  0.83464174534E+01  0.50341649014E+01  0.13449945932E+02  0.51100000000E-03 0.  1.
         12    1    3    3    0    0  0.21438416774E+01  0.70153285343E+01  0.31551384768E+01  0.79853484827E+01  0.00000000000E+00 0. -1.
</event>
<event>
 7    1  0.3919732E-008  0.4614232E+02  0.7816164E-02  0.1320468E+00
        -11   -1    0    0    0    0  0.00000000000E+00  0.00000000000E+00  0.45593999997E+02  0.45594000000E+02  0.51100000000E-03 0. -1.
         11   -1    0    0    0    0 -0.00000000000E+00 -0.00000000000E+00 -0.45593999997E+02  0.45594000000E+02  0.51100000000E-03 0.  1.
    9900012    2    1    2    0    0 -0.33846071567E+02  0.24889938508E+02  0.16249550399E+02  0.46142317769E+02  0.10000000075E+02 0.  0.
        -12    1    1    2    0    0  0.33846071567E+02 -0.24889938508E+02 -0.16249550399E+02  0.45045682231E+02  0.00000000000E+00 0.  1.
         11    1    3    3    0    0 -0.28570460849E+02  0.20060840823E+02  0.14078648289E+02  0.37641956719E+02  0.51100000000E-03 0. -1.
        -11    1    3    3    0    0  0.22353003704E+00 -0.38875529335E+00 -0.28554290978E+00  0.53163085879E+00  0.51100000000E-03 0.  1.
         12    1    3    3    0    0 -0.54991407547E+01  0.52178529781E+01  0.24564450194E+01  0.79687301921E+01  0.00000000000E+00 0. -1.
</event>
<event>
 7    1  0.3919732E-008  0.4614232E+02  0.7816164E-02  0.1320468E+00
        -11   -1    0    0    0    0  0.00000000000E+00  0.00000000000E+00  0.45593999997E+02  0.45594000000E+02  0.51100000000E-03 0. -1.
         11   -1    0    0    0    0 -0.00000000000E+00 -0.00000000000E+00 -0.45593999997E+02  0.45594000000E+02  0.51100000000E-03 0.  1.
    9900012    2    1    2    0    0  0.27050449473E+02  0.32442203849E+02  0.15648963268E+02  0.46142318092E+02  0.10000003014E+02 0.  0.
        -12    1    1    2    0    0 -0.27050449473E+02 -0.32442203849E+02 -0.15648963268E+02  0.45045681908E+02  0.00000000000E+00 0.  1.
         11    1    3    3    0    0  0.19605942039E+02  0.20186417339E+02  0.12452844344E+02  0.30772678479E+02  0.51100000000E-03 0. -1.
        -11    1    3    3    0    0  0.28039726717E+01  0.50262572859E+01  0.35665027538E+01  0.67709280901E+01  0.51100000000E-03 0.  1.
         12    1    3    3    0    0  0.46405347618E+01  0.72295292234E+01 -0.37038383035E+00  0.85987115226E+01  0.00000000000E+00 0. -1.
</event>
<event>
 7    1  0.3919732E-008  0.4614232E+02  0.7816164E-02  0.1320468E+00
        -11   -1    0    0    0    0  0.00000000000E+00  0.00000000000E+00  0.45593999997E+02  0.45594000000E+02  0.51100000000E-03 0. -1.
         11   -1    0    0    0    0 -0.00000000000E+00 -0.00000000000E+00 -0.45593999997E+02  0.45594000000E+02  0.51100000000E-03 0.  1.
    9900012    2    1    2    0    0 -0.11589900567E+02 -0.43529108209E+02  0.66805202304E-01  0.46142317415E+02  0.99999968431E+01 0.  0.
        -12    1    1    2    0    0  0.11589900567E+02  0.43529108209E+02 -0.66805202304E-01  0.45045682585E+02  0.00000000000E+00 0.  1.
         11    1    3    3    0    0 -0.22513106722E+01 -0.20198827353E+02 -0.20935383611E+01  0.20431444621E+02  0.51100000000E-03 0. -1.
        -11    1    3    3    0    0 -0.35924477479E+01 -0.15437930164E+02  0.10449542896E+01  0.15884813449E+02  0.51100000000E-03 0.  1.
        -12    1    3    3    0    0 -0.57461421472E+01 -0.78923506916E+01  0.11153892738E+01  0.98260593447E+01  0.00000000000E+00 0.  1.
</event>
<event>
 7    1  0.3919732E-008  0.4614232E+02  0.7816164E-02  0.1320468E+00
        -11   -1    0    0    0    0  0.00000000000E+00  0.00000000000E+00  0.45593999997E+02  0.45594000000E+02  0.51100000000E-03 0.  1.
         11   -1    0    0    0    0 -0.00000000000E+00 -0.00000000000E+00 -0.45593999997E+02  0.45594000000E+02  0.51100000000E-03 0. -1.
    9900012    2    1    2    0    0  0.31632274690E+02  0.32030175462E+02 -0.16064081225E+01  0.46142317751E+02  0.99999999095E+01 0.  0.
        -12    1    1    2    0    0 -0.31632274690E+02 -0.32030175462E+02  0.16064081225E+01  0.45045682249E+02  0.00000000000E+00 0.  1.
         11    1    3    3    0    0  0.14007292912E+02  0.15949278442E+02  0.11399790757E+00  0.21227263915E+02  0.51100000000E-03 0. -1.
        -11    1    3    3    0    0 -0.63480168823E+00  0.80069674509E+00  0.14635877962E+00  0.10322352515E+01  0.51100000000E-03 0.  1.
         12    1    3    3    0    0  0.18259783466E+02  0.15280200275E+02 -0.18667648097E+01  0.23882818585E+02  0.00000000000E+00 0. -1.
</event>
<event>
 7    1  0.3919732E-008  0.4614232E+02  0.7816164E-02  0.1320468E+00
        -11   -1    0    0    0    0  0.00000000000E+00  0.00000000000E+00  0.45593999997E+02  0.45594000000E+02  0.51100000000E-03 0. -1.
         11   -1    0    0    0    0 -0.00000000000E+00 -0.00000000000E+00 -0.45593999997E+02  0.45594000000E+02  0.51100000000E-03 0.  1.
    9900012    2    1    2    0    0 -0.20349014983E+02  0.32216158088E+02  0.24023951069E+02  0.46142317879E+02  0.10000001078E+02 0.  0.
        -12    1    1    2    0    0  0.20349014983E+02 -0.32216158088E+02 -0.24023951069E+02  0.45045682121E+02  0.00000000000E+00 0.  1.
         11    1    3    3    0    0 -0.88702412129E+01  0.11845683387E+02  0.11025505178E+02  0.18454353382E+02  0.51100000000E-03 0. -1.
        -11    1    3    3    0    0 -0.33886387355E+01  0.63868133971E+01  0.79866277265E+01  0.10773136987E+02  0.51100000000E-03 0.  1.
         12    1    3    3    0    0 -0.80901350346E+01  0.13983661305E+02  0.50118181648E+01  0.16914827510E+02  0.00000000000E+00 0. -1.
</event>
<event>
 7    1  0.3919732E-008  0.4614232E+02  0.7816164E-02  0.1320468E+00
        -11   -1    0    0    0    0  0.00000000000E+00  0.00000000000E+00  0.45593999997E+02  0.45594000000E+02  0.51100000000E-03 0.  1.
         11   -1    0    0    0    0 -0.00000000000E+00 -0.00000000000E+00 -0.45593999997E+02  0.45594000000E+02  0.51100000000E-03 0. -1.
    9900012    2    1    2    0    0 -0.23241461181E+02  0.29851945292E+02 -0.24450136740E+02  0.46142319384E+02  0.10000014799E+02 0.  0.
        -12    1    1    2    0    0  0.23241461181E+02 -0.29851945292E+02  0.24450136740E+02  0.45045680616E+02  0.00000000000E+00 0.  1.
         11    1    3    3    0    0 -0.16665664745E+02  0.21295515579E+02 -0.16560417908E+02  0.31709475031E+02  0.51100000000E-03 0. -1.
        -11    1    3    3    0    0 -0.23801761218E+01 -0.14972197194E+00 -0.11301135213E+01  0.26390930017E+01  0.51100000000E-03 0.  1.
         12    1    3    3    0    0 -0.41956203137E+01  0.87061516854E+01 -0.67596053110E+01  0.11793751352E+02  0.00000000000E+00 0. -1.
</event>
<event>
 7    1  0.3919732E-008  0.4614232E+02  0.7816164E-02  0.1320468E+00
        -11   -1    0    0    0    0  0.00000000000E+00  0.00000000000E+00  0.45593999997E+02  0.45594000000E+02  0.51100000000E-03 0. -1.
         11   -1    0    0    0    0 -0.00000000000E+00 -0.00000000000E+00 -0.45593999997E+02  0.45594000000E+02  0.51100000000E-03 0.  1.
    9900012    2    1    2    0    0 -0.20279742121E+02  0.25175455747E+02  0.31369442291E+02  0.46142318495E+02  0.10000006696E+02 0.  0.
        -12    1    1    2    0    0  0.20279742121E+02 -0.25175455747E+02 -0.31369442291E+02  0.45045681505E+02  0.00000000000E+00 0.  1.
         11    1    3    3    0    0 -0.11260007003E+01  0.60699701874E+01  0.48135962205E+01  0.78283538811E+01  0.51100000000E-03 0. -1.
        -11    1    3    3    0    0 -0.61766337476E+01  0.86903136025E+01  0.76138470284E+01  0.13101260313E+02  0.51100000000E-03 0.  1.
        -12    1    3    3    0    0 -0.12977107673E+02  0.10415171957E+02  0.18941999042E+02  0.25212704301E+02  0.00000000000E+00 0.  1.
</event>
<event>
 7    1  0.3919732E-008  0.4614232E+02  0.7816164E-02  0.1320468E+00
        -11   -1    0    0    0    0  0.00000000000E+00  0.00000000000E+00  0.45593999997E+02  0.45594000000E+02  0.51100000000E-03 0.  1.
         11   -1    0    0    0    0 -0.00000000000E+00 -0.00000000000E+00 -0.45593999997E+02  0.45594000000E+02  0.51100000000E-03 0. -1.
    9900012    2    1    2    0    0 -0.28086674392E+02 -0.20837743380E+02 -0.28390855978E+02  0.46142317291E+02  0.99999957135E+01 0.  0.
        -12    1    1    2    0    0  0.28086674392E+02  0.20837743380E+02  0.28390855978E+02  0.45045682709E+02  0.00000000000E+00 0.  1.
         11    1    3    3    0    0 -0.43227606893E+00  0.28236864481E+00 -0.97526087276E+00  0.11035074456E+01  0.51100000000E-03 0. -1.
        -11    1    3    3    0    0 -0.91131058756E+01 -0.91731255177E+01 -0.14705743444E+02  0.19581976942E+02  0.51100000000E-03 0.  1.
         12    1    3    3    0    0 -0.18541292447E+02 -0.11946986507E+02 -0.12709851661E+02  0.25456832903E+02  0.00000000000E+00 0. -1.
</event>
<event>
 7    1  0.3919732E-008  0.4614232E+02  0.7816164E-02  0.1320468E+00
        -11   -1    0    0    0    0  0.00000000000E+00  0.00000000000E+00  0.45593999997E+02  0.45594000000E+02  0.51100000000E-03 0.  1.
         11   -1    0    0    0    0 -0.00000000000E+00 -0.00000000000E+00 -0.45593999997E+02  0.45594000000E+02  0.51100000000E-03 0. -1.
    9900012    2    1    2    0    0 -0.14469951675E+02 -0.32827098144E+02 -0.27241800422E+02  0.46142316919E+02  0.99999923167E+01 0.  0.
        -12    1    1    2    0    0  0.14469951675E+02  0.32827098144E+02  0.27241800422E+02  0.45045683081E+02  0.00000000000E+00 0.  1.
         11    1    3    3    0    0 -0.32599145361E+01 -0.92865146637E+01 -0.11737180748E+02  0.15317565392E+02  0.51100000000E-03 0. -1.
        -11    1    3    3    0    0 -0.20984310250E-01  0.26286123507E+00  0.48719336282E-01  0.26816078205E+00  0.51100000000E-03 0.  1.
        -12    1    3    3    0    0 -0.11189052829E+02 -0.23803444716E+02 -0.15553339010E+02  0.30556590744E+02  0.00000000000E+00 0.  1.
</event>
<event>
 7    1  0.3919732E-008  0.4614232E+02  0.7816164E-02  0.1320468E+00
        -11   -1    0    0    0    0  0.00000000000E+00  0.00000000000E+00  0.45593999997E+02  0.45594000000E+02  0.51100000000E-03 0.  1.
         11   -1    0    0    0    0 -0.00000000000E+00 -0.00000000000E+00 -0.45593999997E+02  0.45594000000E+02  0.51100000000E-03 0. -1.
    9900012    2    1    2    0    0  0.22968107943E+02  0.35861040257E+02 -0.14682149047E+02  0.46142315507E+02  0.99999794477E+01 0.  0.
        -12    1    1    2    0    0 -0.22968107943E+02 -0.35861040257E+02  0.14682149047E+02  0.45045684493E+02  0.00000000000E+00 0.  1.
         11    1    3    3    0    0 -0.22810000363E+00  0.61953455489E+00 -0.62372856653E+00  0.90823469554E+00  0.51100000000E-03 0. -1.
        -11    1    3    3    0    0  0.58844209269E+01  0.65816449583E+01  0.22655988612E+00  0.88315224988E+01  0.51100000000E-03 0.  1.
         12    1    3    3    0    0  0.17311787020E+02  0.28659860743E+02 -0.14284980367E+02  0.36402558313E+02  0.00000000000E+00 0. -1.
</event>
<event>
 7    1  0.3919732E-008  0.4614232E+02  0.7816164E-02  0.1320468E+00
        -11   -1    0    0    0    0  0.00000000000E+00  0.00000000000E+00  0.45593999997E+02  0.45594000000E+02  0.51100000000E-03 0. -1.
         11   -1    0    0    0    0 -0.00000000000E+00 -0.00000000000E+00 -0.45593999997E+02  0.45594000000E+02  0.51100000000E-03 0.  1.
    9900012    2    1    2    0    0 -0.57319577619E+01 -0.44551749136E+02  0.33763578540E+01  0.46142317818E+02  0.10000000520E+02 0.  0.
        -12    1    1    2    0    0  0.57319577619E+01  0.44551749136E+02 -0.33763578540E+01  0.45045682182E+02  0.00000000000E+00 0.  1.
         11    1    3    3    0    0 -0.23072994332E+01 -0.13330752441E+02  0.12985445593E+01  0.13591129812E+02  0.51100000000E-03 0. -1.
        -11    1    3    3    0    0 -0.39680578477E+01 -0.61271407135E+01  0.14568300185E+01  0.74437685597E+01  0.51100000000E-03 0.  1.
         12    1    3    3    0    0  0.54339951908E+00 -0.25093855981E+02  0.62098327624E+00  0.25107419447E+02  0.00000000000E+00 0. -1.
</event>
<event>
 7    1  0.3919732E-008  0.4614232E+02  0.7816164E-02  0.1320468E+00
        -11   -1    0    0    0    0  0.00000000000E+00  0.00000000000E+00  0.45593999997E+02  0.45594000000E+02  0.51100000000E-03 0.  1.
         11   -1    0    0    0    0 -0.00000000000E+00 -0.00000000000E+00 -0.45593999997E+02  0.45594000000E+02  0.51100000000E-03 0. -1.
    9900012    2    1    2    0    0 -0.28133393830E+02 -0.18506433671E+02 -0.29918849685E+02  0.46142317609E+02  0.99999986123E+01 0.  0.
        -12    1    1    2    0    0  0.28133393830E+02  0.18506433671E+02  0.29918849685E+02  0.45045682391E+02  0.00000000000E+00 0.  1.
         11    1    3    3    0    0 -0.64074212202E+01 -0.80032676626E+01 -0.64011294971E+01  0.12086430369E+02  0.51100000000E-03 0. -1.
        -11    1    3    3    0    0 -0.96651434998E+01 -0.69742414749E+01 -0.13305249811E+02  0.17862942530E+02  0.51100000000E-03 0.  1.
        -12    1    3    3    0    0 -0.12060829110E+02 -0.35289245334E+01 -0.10212470376E+02  0.16192944710E+02  0.00000000000E+00 0.  1.
</event>
<event>
 7    1  0.3919732E-008  0.4614232E+02  0.7816164E-02  0.1320468E+00
        -11   -1    0    0    0    0  0.00000000000E+00  0.00000000000E+00  0.45593999997E+02  0.45594000000E+02  0.51100000000E-03 0. -1.
         11   -1    0    0    0    0 -0.00000000000E+00 -0.00000000000E+00 -0.45593999997E+02  0.45594000000E+02  0.51100000000E-03 0.  1.
    9900012    2    1    2    0    0 -0.39036980584E+02 -0.51963583613E-01  0.22477204734E+02  0.46142320007E+02  0.10000020483E+02 0.  0.
        -12    1    1    2    0    0  0.39036980584E+02  0.51963583613E-01 -0.22477204734E+02  0.45045679993E+02  0.00000000000E+00 0.  1.
         11    1    3    3    0    0 -0.42721803732E+01 -0.18660649603E+01  0.32164817575E+01  0.56638748869E+01  0.51100000000E-03 0.  1.
        -11    1    3    3    0    0 -0.24095247718E+02  0.28568200095E+01  0.97579838841E+01  0.26152641031E+02  0.51100000000E-03 0. -1.
         12    1    3    3    0    0 -0.10669552493E+02 -0.10427186329E+01  0.95027390928E+01  0.14325804090E+02  0.00000000000E+00 0. -1.
</event>
<event>
 7    1  0.3919732E-008  0.4614232E+02  0.7816164E-02  0.1320468E+00
        -11   -1    0    0    0    0  0.00000000000E+00  0.00000000000E+00  0.45593999997E+02  0.45594000000E+02  0.51100000000E-03 0.  1.
         11   -1    0    0    0    0 -0.00000000000E+00 -0.00000000000E+00 -0.45593999997E+02  0.45594000000E+02  0.51100000000E-03 0. -1.
    9900012    2    1    2    0    0  0.12710072116E+02 -0.27900493405E+02 -0.33001970242E+02  0.46142317573E+02  0.99999982824E+01 0.  0.
        -12    1    1    2    0    0 -0.12710072116E+02  0.27900493405E+02  0.33001970242E+02  0.45045682427E+02  0.00000000000E+00 0.  1.
         11    1    3    3    0    0  0.13560825292E+01 -0.21374377656E+01 -0.12303699294E+01  0.28145000359E+01  0.51100000000E-03 0. -1.
        -11    1    3    3    0    0  0.48030261018E+01 -0.45538116097E+01 -0.38475755414E+01  0.76557232003E+01  0.51100000000E-03 0.  1.
        -12    1    3    3    0    0  0.65509634846E+01 -0.21209244030E+02 -0.27924024772E+02  0.35672094337E+02  0.00000000000E+00 0.  1.
</event>
<event>
 7    1  0.3919732E-008  0.4614232E+02  0.7816164E-02  0.1320468E+00
        -11   -1    0    0    0    0  0.00000000000E+00  0.00000000000E+00  0.45593999997E+02  0.45594000000E+02  0.51100000000E-03 0.  1.
         11   -1    0    0    0    0 -0.00000000000E+00 -0.00000000000E+00 -0.45593999997E+02  0.45594000000E+02  0.51100000000E-03 0. -1.
    9900012    2    1    2    0    0 -0.71922656887E+01 -0.85722799278E+01 -0.43633712199E+02  0.46142317530E+02  0.99999978912E+01 0.  0.
        -12    1    1    2    0    0  0.71922656887E+01  0.85722799278E+01  0.43633712199E+02  0.45045682470E+02  0.00000000000E+00 0.  1.
         11    1    3    3    0    0 -0.43942480365E+01 -0.30226737947E+01 -0.17318959168E+02  0.18121598153E+02  0.51100000000E-03 0. -1.
        -11    1    3    3    0    0  0.22710419568E+01 -0.34363649850E+01 -0.12105032188E+02  0.12786635226E+02  0.51100000000E-03 0.  1.
        -12    1    3    3    0    0 -0.50690596090E+01 -0.21132411480E+01 -0.14209720843E+02  0.15234084151E+02  0.00000000000E+00 0.  1.
</event>
<event>
 7    1  0.3919732E-008  0.4614232E+02  0.7816164E-02  0.1320468E+00
        -11   -1    0    0    0    0  0.00000000000E+00  0.00000000000E+00  0.45593999997E+02  0.45594000000E+02  0.51100000000E-03 0.  1.
         11   -1    0    0    0    0 -0.00000000000E+00 -0.00000000000E+00 -0.45593999997E+02  0.45594000000E+02  0.51100000000E-03 0. -1.
    9900012    2    1    2    0    0  0.27008556364E+02 -0.32335490159E+02 -0.15939495180E+02  0.46142317107E+02  0.99999940377E+01 0.  0.
        -12    1    1    2    0    0 -0.27008556364E+02  0.32335490159E+02  0.15939495180E+02  0.45045682893E+02  0.00000000000E+00 0.  1.
         11    1    3    3    0    0  0.36229319659E+01 -0.16875690622E+01 -0.21320491311E+01  0.45298078467E+01  0.51100000000E-03 0. -1.
        -11    1    3    3    0    0  0.15101017720E+01 -0.59595524793E+01 -0.33918458089E+01  0.70214878315E+01  0.51100000000E-03 0.  1.
        -12    1    3    3    0    0  0.21875522626E+02 -0.24688368618E+02 -0.10415600240E+02  0.34591021429E+02  0.00000000000E+00 0.  1.
</event>
<event>
 7    1  0.3919732E-008  0.4614232E+02  0.7816164E-02  0.1320468E+00
        -11   -1    0    0    0    0  0.00000000000E+00  0.00000000000E+00  0.45593999997E+02  0.45594000000E+02  0.51100000000E-03 0. -1.
         11   -1    0    0    0    0 -0.00000000000E+00 -0.00000000000E+00 -0.45593999997E+02  0.45594000000E+02  0.51100000000E-03 0.  1.
    9900012    2    1    2    0    0 -0.34665533751E+02 -0.23990342348E+02  0.15870653120E+02  0.46142318890E+02  0.10000010296E+02 0.  0.
        -12    1    1    2    0    0  0.34665533751E+02  0.23990342348E+02 -0.15870653120E+02  0.45045681110E+02  0.00000000000E+00 0.  1.
         11    1    3    3    0    0 -0.85755029956E+01 -0.42826040944E+01  0.22188592570E+01  0.98388660993E+01  0.51100000000E-03 0. -1.
        -11    1    3    3    0    0 -0.34229049267E+01 -0.50166680678E+00 -0.31629996363E+00  0.34739017906E+01  0.51100000000E-03 0.  1.
         12    1    3    3    0    0 -0.22667125828E+02 -0.19206071446E+02  0.13968093827E+02  0.32829551000E+02  0.00000000000E+00 0. -1.
</event>
<event>
 7    1  0.3919732E-008  0.4614232E+02  0.7816164E-02  0.1320468E+00
        -11   -1    0    0    0    0  0.00000000000E+00  0.00000000000E+00  0.45593999997E+02  0.45594000000E+02  0.51100000000E-03 0.  1.
         11   -1    0    0    0    0 -0.00000000000E+00 -0.00000000000E+00 -0.45593999997E+02  0.45594000000E+02  0.51100000000E-03 0. -1.
    9900012    2    1    2    0    0  0.39839317694E+02 -0.16256924127E+02 -0.13328701582E+02  0.46142322047E+02  0.10000039083E+02 0.  0.
        -12    1    1    2    0    0 -0.39839317694E+02  0.16256924127E+02  0.13328701582E+02  0.45045677953E+02  0.00000000000E+00 0.  1.
         11    1    3    3    0    0  0.17285123333E+02 -0.11120570220E+02 -0.55224991915E+01  0.21282400434E+02  0.51100000000E-03 0. -1.
        -11    1    3    3    0    0  0.11862678005E+02 -0.41123739992E+01 -0.22075523366E+01  0.12747864015E+02  0.51100000000E-03 0.  1.
        -12    1    3    3    0    0  0.10691516356E+02 -0.10239799081E+01 -0.55986500542E+01  0.12112057598E+02  0.00000000000E+00 0.  1.
</event>
<event>
 7    1  0.3919732E-008  0.4614232E+02  0.7816164E-02  0.1320468E+00
        -11   -1    0    0    0    0  0.00000000000E+00  0.00000000000E+00  0.45593999997E+02  0.45594000000E+02  0.51100000000E-03 0. -1.
         11   -1    0    0    0    0 -0.00000000000E+00 -0.00000000000E+00 -0.45593999997E+02  0.45594000000E+02  0.51100000000E-03 0.  1.
    9900012    2    1    2    0    0 -0.18808368395E+02  0.27784527214E+02  0.30056261286E+02  0.46142317447E+02  0.99999971344E+01 0.  0.
        -12    1    1    2    0    0  0.18808368395E+02 -0.27784527214E+02 -0.30056261286E+02  0.45045682553E+02  0.00000000000E+00 0.  1.
         11    1    3    3    0    0 -0.31556080007E+01  0.56955254534E+01  0.33428213879E+01  0.73192436178E+01  0.51100000000E-03 0.  1.
        -11    1    3    3    0    0 -0.13308549437E+02  0.12443024706E+02  0.18069178367E+02  0.25660116116E+02  0.51100000000E-03 0. -1.
         12    1    3    3    0    0 -0.23442109575E+01  0.96459770538E+01  0.86442615307E+01  0.13162957713E+02  0.00000000000E+00 0. -1.
</event>
<event>
 7    1  0.3919732E-008  0.4614232E+02  0.7816164E-02  0.1320468E+00
        -11   -1    0    0    0    0  0.00000000000E+00  0.00000000000E+00  0.45593999997E+02  0.45594000000E+02  0.51100000000E-03 0. -1.
         11   -1    0    0    0    0 -0.00000000000E+00 -0.00000000000E+00 -0.45593999997E+02  0.45594000000E+02  0.51100000000E-03 0.  1.
    9900012    2    1    2    0    0 -0.34883463906E+02 -0.25456210270E+02  0.12815565386E+02  0.46142318614E+02  0.10000007776E+02 0.  0.
        -12    1    1    2    0    0  0.34883463906E+02  0.25456210270E+02 -0.12815565386E+02  0.45045681386E+02  0.00000000000E+00 0.  1.
         11    1    3    3    0    0 -0.33039171170E+01 -0.56936784458E+01  0.19198987074E+01  0.68571024396E+01  0.51100000000E-03 0. -1.
        -11    1    3    3    0    0 -0.33405247363E+01 -0.42811067733E+01  0.54048879798E+00  0.54570238335E+01  0.51100000000E-03 0.  1.
        -12    1    3    3    0    0 -0.28239022053E+02 -0.15481425051E+02  0.10355177881E+02  0.33828192341E+02  0.00000000000E+00 0.  1.
</event>
<event>
 7    1  0.3919732E-008  0.4614232E+02  0.7816164E-02  0.1320468E+00
        -11   -1    0    0    0    0  0.00000000000E+00  0.00000000000E+00  0.45593999997E+02  0.45594000000E+02  0.51100000000E-03 0. -1.
         11   -1    0    0    0    0 -0.00000000000E+00 -0.00000000000E+00 -0.45593999997E+02  0.45594000000E+02  0.51100000000E-03 0.  1.
    9900012    2    1    2    0    0 -0.22279022355E+02 -0.34548983210E+02  0.18415388859E+02  0.46142316247E+02  0.99999861939E+01 0.  0.
        -12    1    1    2    0    0  0.22279022355E+02  0.34548983210E+02 -0.18415388859E+02  0.45045683753E+02  0.00000000000E+00 0.  1.
         11    1    3    3    0    0 -0.99146080117E+01 -0.15829005988E+02  0.40605664298E+01  0.19114002265E+02  0.51100000000E-03 0. -1.
        -11    1    3    3    0    0 -0.12126323851E+02 -0.18985791021E+02  0.13992508915E+02  0.26519771809E+02  0.51100000000E-03 0.  1.
         12    1    3    3    0    0 -0.23809049218E+00  0.26581379930E+00  0.36231351436E+00  0.50854217235E+00  0.00000000000E+00 0. -1.
</event>
<event>
 7    1  0.3919732E-008  0.4614232E+02  0.7816164E-02  0.1320468E+00
        -11   -1    0    0    0    0  0.00000000000E+00  0.00000000000E+00  0.45593999997E+02  0.45594000000E+02  0.51100000000E-03 0.  1.
         11   -1    0    0    0    0 -0.00000000000E+00 -0.00000000000E+00 -0.45593999997E+02  0.45594000000E+02  0.51100000000E-03 0. -1.
    9900012    2    1    2    0    0  0.38117155766E+02 -0.77000652190E+01 -0.22735546460E+02  0.46142316068E+02  0.99999845564E+01 0.  0.
        -12    1    1    2    0    0 -0.38117155766E+02  0.77000652190E+01  0.22735546460E+02  0.45045683932E+02  0.00000000000E+00 0.  1.
         11    1    3    3    0    0  0.13982178871E+02 -0.49894465383E+01 -0.84160440755E+01  0.17065336237E+02  0.51100000000E-03 0. -1.
        -11    1    3    3    0    0  0.14063238339E+02 -0.38446895267E+01 -0.53102715321E+01  0.15516291250E+02  0.51100000000E-03 0.  1.
        -12    1    3    3    0    0  0.10071738557E+02  0.11340708460E+01 -0.90092308528E+01  0.13560688581E+02  0.00000000000E+00 0.  1.
</event>
<event>
 7    1  0.3919732E-008  0.4614232E+02  0.7816164E-02  0.1320468E+00
        -11   -1    0    0    0    0  0.00000000000E+00  0.00000000000E+00  0.45593999997E+02  0.45594000000E+02  0.51100000000E-03 0. -1.
         11   -1    0    0    0    0 -0.00000000000E+00 -0.00000000000E+00 -0.45593999997E+02  0.45594000000E+02  0.51100000000E-03 0.  1.
    9900012    2    1    2    0    0 -0.40466639411E+02  0.12667600226E+02  0.15201857794E+02  0.46142317842E+02  0.10000000733E+02 0.  0.
        -12    1    1    2    0    0  0.40466639411E+02 -0.12667600226E+02 -0.15201857794E+02  0.45045682158E+02  0.00000000000E+00 0.  1.
         11    1    3    3    0    0 -0.59669216509E+01  0.15969723751E+01  0.38249410250E+01  0.72653044575E+01  0.51100000000E-03 0. -1.
        -11    1    3    3    0    0 -0.17305227499E+02  0.13004080344E+01  0.62684937056E+01  0.18451449088E+02  0.51100000000E-03 0.  1.
        -12    1    3    3    0    0 -0.17194490262E+02  0.97702198169E+01  0.51084230634E+01  0.20425564296E+02  0.00000000000E+00 0.  1.
</event>
<event>
 7    1  0.3919732E-008  0.4614232E+02  0.7816164E-02  0.1320468E+00
        -11   -1    0    0    0    0  0.00000000000E+00  0.00000000000E+00  0.45593999997E+02  0.45594000000E+02  0.51100000000E-03 0.  1.
         11   -1    0    0    0    0 -0.00000000000E+00 -0.00000000000E+00 -0.45593999997E+02  0.45594000000E+02  0.51100000000E-03 0. -1.
    9900012    2    1    2    0    0 -0.41877755278E+02  0.16561279041E+02  0.10444949509E+01  0.46142319627E+02  0.10000017010E+02 0.  0.
        -12    1    1    2    0    0  0.41877755278E+02 -0.16561279041E+02 -0.10444949509E+01  0.45045680373E+02  0.00000000000E+00 0.  1.
         11    1    3    3    0    0 -0.29899342516E+02  0.90810707240E+01  0.92930506881E-01  0.31248122579E+02  0.51100000000E-03 0. -1.
        -11    1    3    3    0    0 -0.12892923007E+01  0.96413438493E+00 -0.14273204411E+01  0.21515282131E+01  0.51100000000E-03 0.  1.
         12    1    3    3    0    0 -0.10689120462E+02  0.65160739317E+01  0.23788848851E+01  0.12742668834E+02  0.00000000000E+00 0. -1.
</event>
<event>
 7    1  0.3919732E-008  0.4614232E+02  0.7816164E-02  0.1320468E+00
        -11   -1    0    0    0    0  0.00000000000E+00  0.00000000000E+00  0.45593999997E+02  0.45594000000E+02  0.51100000000E-03 0.  1.
         11   -1    0    0    0    0 -0.00000000000E+00 -0.00000000000E+00 -0.45593999997E+02  0.45594000000E+02  0.51100000000E-03 0. -1.
    9900012    2    1    2    0    0 -0.16048550693E+02 -0.18388253643E+02 -0.37860660874E+02  0.46142317708E+02  0.99999995122E+01 0.  0.
        -12    1    1    2    0    0  0.16048550693E+02  0.18388253643E+02  0.37860660874E+02  0.45045682292E+02  0.00000000000E+00 0.  1.
         11    1    3    3    0    0 -0.10272625415E+01 -0.36049663323E+01 -0.95741450652E+01  0.10281794813E+02  0.51100000000E-03 0.  1.
        -11    1    3    3    0    0 -0.66798387876E+01 -0.10948697084E+02 -0.17486413991E+02  0.21685683955E+02  0.51100000000E-03 0. -1.
        -12    1    3    3    0    0 -0.83414493638E+01 -0.38345902269E+01 -0.10800101817E+02  0.14174838939E+02  0.00000000000E+00 0.  1.
</event>
<event>
 7    1  0.3919732E-008  0.4614232E+02  0.7816164E-02  0.1320468E+00
        -11   -1    0    0    0    0  0.00000000000E+00  0.00000000000E+00  0.45593999997E+02  0.45594000000E+02  0.51100000000E-03 0.  1.
         11   -1    0    0    0    0 -0.00000000000E+00 -0.00000000000E+00 -0.45593999997E+02  0.45594000000E+02  0.51100000000E-03 0. -1.
    9900012    2    1    2    0    0 -0.48586267404E+01 -0.33139140857E+02 -0.30121497080E+02  0.46142317667E+02  0.99999991384E+01 0.  0.
        -12    1    1    2    0    0  0.48586267404E+01  0.33139140857E+02  0.30121497080E+02  0.45045682333E+02  0.00000000000E+00 0.  1.
         11    1    3    3    0    0 -0.11598859035E+00 -0.71176094549E+01 -0.25612815602E+01  0.75653143489E+01  0.51100000000E-03 0. -1.
        -11    1    3    3    0    0  0.56607081605E+00 -0.21466771804E+00 -0.34122254798E+00  0.69494711045E+00  0.51100000000E-03 0.  1.
         12    1    3    3    0    0 -0.53087089661E+01 -0.25806863684E+02 -0.27218992972E+02  0.37882056207E+02  0.00000000000E+00 0. -1.
</event>
<event>
 7    1  0.3919732E-008  0.4614232E+02  0.7816164E-02  0.1320468E+00
        -11   -1    0    0    0    0  0.00000000000E+00  0.00000000000E+00  0.45593999997E+02  0.45594000000E+02  0.51100000000E-03 0. -1.
         11   -1    0    0    0    0 -0.00000000000E+00 -0.00000000000E+00 -0.45593999997E+02  0.45594000000E+02  0.51100000000E-03 0.  1.
    9900012    2    1    2    0    0 -0.20750562706E+02  0.17702832634E+02  0.35848811739E+02  0.46142318309E+02  0.10000004999E+02 0.  0.
        -12    1    1    2    0    0  0.20750562706E+02 -0.17702832634E+02 -0.35848811739E+02  0.45045681691E+02  0.00000000000E+00 0.  1.
         11    1    3    3    0    0 -0.10915395006E+02  0.66479289187E+01  0.20266617005E+02  0.23959895077E+02  0.51100000000E-03 0. -1.
        -11    1    3    3    0    0 -0.57963700633E+01  0.79519162951E+01  0.13439558963E+02  0.16656909198E+02  0.51100000000E-03 0.  1.
        -12    1    3    3    0    0 -0.40387976371E+01  0.31029874206E+01  0.21426357714E+01  0.55255140335E+01  0.00000000000E+00 0.  1.
</event>
<event>
 7    1  0.3919732E-008  0.4614232E+02  0.7816164E-02  0.1320468E+00
        -11   -1    0    0    0    0  0.00000000000E+00  0.00000000000E+00  0.45593999997E+02  0.45594000000E+02  0.51100000000E-03 0.  1.
         11   -1    0    0    0    0 -0.00000000000E+00 -0.00000000000E+00 -0.45593999997E+02  0.45594000000E+02  0.51100000000E-03 0. -1.
    9900012    2    1    2    0    0  0.14329402536E+02  0.14687346643E+02 -0.40100668113E+02  0.46142317503E+02  0.99999976486E+01 0.  0.
        -12    1    1    2    0    0 -0.14329402536E+02 -0.14687346643E+02  0.40100668113E+02  0.45045682497E+02  0.00000000000E+00 0.  1.
         11    1    3    3    0    0 -0.14798314526E+00  0.61151159102E+00 -0.22410903668E+00  0.66788513883E+00  0.51100000000E-03 0.  1.
        -11    1    3    3    0    0  0.13926172488E+02  0.14118127702E+02 -0.32466889681E+02  0.38044168224E+02  0.51100000000E-03 0. -1.
         12    1    3    3    0    0  0.55121319327E+00 -0.42292650109E-01 -0.74096693955E+01  0.74302641409E+01  0.00000000000E+00 0. -1.
</event>
<event>
 7    1  0.3919732E-008  0.4614232E+02  0.7816164E-02  0.1320468E+00
        -11   -1    0    0    0    0  0.00000000000E+00  0.00000000000E+00  0.45593999997E+02  0.45594000000E+02  0.51100000000E-03 0. -1.
         11   -1    0    0    0    0 -0.00000000000E+00 -0.00000000000E+00 -0.45593999997E+02  0.45594000000E+02  0.51100000000E-03 0.  1.
    9900012    2    1    2    0    0  0.10673028703E+02 -0.38377535856E+02  0.21032468115E+02  0.46142317465E+02  0.99999972962E+01 0.  0.
        -12    1    1    2    0    0 -0.10673028703E+02  0.38377535856E+02 -0.21032468115E+02  0.45045682535E+02  0.00000000000E+00 0.  1.
         11    1    3    3    0    0  0.20940021364E+01 -0.66375642323E+01  0.18021206589E+01  0.71895579152E+01  0.51100000000E-03 0. -1.
        -11    1    3    3    0    0  0.10630396918E+01 -0.83494604191E+01  0.12532245651E+01  0.85096483328E+01  0.51100000000E-03 0.  1.
         12    1    3    3    0    0  0.75159868745E+01 -0.23390511205E+02  0.17977122891E+02  0.30443111217E+02  0.00000000000E+00 0. -1.
</event>
<event>
 7    1  0.3919732E-008  0.4614232E+02  0.7816164E-02  0.1320468E+00
        -11   -1    0    0    0    0  0.00000000000E+00  0.00000000000E+00  0.45593999997E+02  0.45594000000E+02  0.51100000000E-03 0.  1.
         11   -1    0    0    0    0 -0.00000000000E+00 -0.00000000000E+00 -0.45593999997E+02  0.45594000000E+02  0.51100000000E-03 0. -1.
    9900012    2    1    2    0    0  0.38144488322E+02  0.21859493877E+02 -0.98119308648E+01  0.46142318196E+02  0.10000003966E+02 0.  0.
        -12    1    1    2    0    0 -0.38144488322E+02 -0.21859493877E+02  0.98119308648E+01  0.45045681804E+02  0.00000000000E+00 0.  1.
         11    1    3    3    0    0  0.17244451669E+01  0.52696975879E+00  0.31776442651E+00  0.18309513244E+01  0.51100000000E-03 0. -1.
        -11    1    3    3    0    0  0.51826918704E+01  0.54684625093E+01 -0.46417361277E+01  0.88492989428E+01  0.51100000000E-03 0.  1.
         12    1    3    3    0    0  0.31237351285E+02  0.15864061609E+02 -0.54879591636E+01  0.35462067929E+02  0.00000000000E+00 0. -1.
</event>
<event>
 7    1  0.3919732E-008  0.4614232E+02  0.7816164E-02  0.1320468E+00
        -11   -1    0    0    0    0  0.00000000000E+00  0.00000000000E+00  0.45593999997E+02  0.45594000000E+02  0.51100000000E-03 0. -1.
         11   -1    0    0    0    0 -0.00000000000E+00 -0.00000000000E+00 -0.45593999997E+02  0.45594000000E+02  0.51100000000E-03 0.  1.
    9900012    2    1    2    0    0 -0.10466527636E+02  0.16847835892E+02  0.40443981436E+02  0.46142318638E+02  0.10000007998E+02 0.  0.
        -12    1    1    2    0    0  0.10466527636E+02 -0.16847835892E+02 -0.40443981436E+02  0.45045681362E+02  0.00000000000E+00 0.  1.
         11    1    3    3    0    0 -0.31553032056E+01  0.70619273906E+01  0.11032339319E+02  0.13473650875E+02  0.51100000000E-03 0. -1.
        -11    1    3    3    0    0 -0.42710909388E+01  0.35804423977E+01  0.57052663786E+01  0.79757037484E+01  0.51100000000E-03 0.  1.
         12    1    3    3    0    0 -0.30401334912E+01  0.62054661035E+01  0.23706375738E+02  0.24692964015E+02  0.00000000000E+00 0. -1.
</event>
<event>
 7    1  0.3919732E-008  0.4614232E+02  0.7816164E-02  0.1320468E+00
        -11   -1    0    0    0    0  0.00000000000E+00  0.00000000000E+00  0.45593999997E+02  0.45594000000E+02  0.51100000000E-03 0.  1.
         11   -1    0    0    0    0 -0.00000000000E+00 -0.00000000000E+00 -0.45593999997E+02  0.45594000000E+02  0.51100000000E-03 0. -1.
    9900012    2    1    2    0    0 -0.28205956406E+02 -0.13731098171E+02 -0.32326371250E+02  0.46142319719E+02  0.10000017855E+02 0.  0.
        -12    1    1    2    0    0  0.28205956406E+02  0.13731098171E+02  0.32326371250E+02  0.45045680281E+02  0.00000000000E+00 0.  1.
         11    1    3    3    0    0 -0.76242352185E+01  0.32061232671E+00 -0.98208908776E+01  0.12437107896E+02  0.51100000000E-03 0. -1.
        -11    1    3    3    0    0 -0.10163262741E+01 -0.15518010578E+01 -0.13421012476E+01  0.22895942082E+01  0.51100000000E-03 0.  1.
         12    1    3    3    0    0 -0.19565394913E+02 -0.12499909440E+02 -0.21163379125E+02  0.31415617615E+02  0.00000000000E+00 0. -1.
</event>
<event>
 7    1  0.3919732E-008  0.4614232E+02  0.7816164E-02  0.1320468E+00
        -11   -1    0    0    0    0  0.00000000000E+00  0.00000000000E+00  0.45593999997E+02  0.45594000000E+02  0.51100000000E-03 0. -1.
         11   -1    0    0    0    0 -0.00000000000E+00 -0.00000000000E+00 -0.45593999997E+02  0.45594000000E+02  0.51100000000E-03 0.  1.
    9900012    2    1    2    0    0  0.41231095238E+02  0.12310038875E+02  0.13325663594E+02  0.46142316724E+02  0.99999905384E+01 0.  0.
        -12    1    1    2    0    0 -0.41231095238E+02 -0.12310038875E+02 -0.13325663594E+02  0.45045683276E+02  0.00000000000E+00 0.  1.
         11    1    3    3    0    0  0.17917183529E+02  0.81132309984E+01  0.87972698476E+01  0.21546274385E+02  0.51100000000E-03 0. -1.
        -11    1    3    3    0    0  0.39090098027E+01  0.81031458151E+00 -0.10410905692E+01  0.41256317326E+01  0.51100000000E-03 0.  1.
        -12    1    3    3    0    0  0.19404901906E+02  0.33864932946E+01  0.55694843159E+01  0.20470410606E+02  0.00000000000E+00 0.  1.
</event>
<event>
 7    1  0.3919732E-008  0.4614232E+02  0.7816164E-02  0.1320468E+00
        -11   -1    0    0    0    0  0.00000000000E+00  0.00000000000E+00  0.45593999997E+02  0.45594000000E+02  0.51100000000E-03 0.  1.
         11   -1    0    0    0    0 -0.00000000000E+00 -0.00000000000E+00 -0.45593999997E+02  0.45594000000E+02  0.51100000000E-03 0. -1.
    9900012    2    1    2    0    0  0.36527839763E+02  0.26357117124E+02 -0.36443137361E+00  0.46142317509E+02  0.99999977032E+01 0.  0.
        -12    1    1    2    0    0 -0.36527839763E+02 -0.26357117124E+02  0.36443137361E+00  0.45045682491E+02  0.00000000000E+00 0.  1.
         11    1    3    3    0    0  0.17009193019E+00 -0.31946787137E+00 -0.46455208593E+00  0.58889717881E+00  0.51100000000E-03 0.  1.
        -11    1    3    3    0    0  0.12212756252E+02  0.12476918874E+02  0.13767399955E+01  0.17513432934E+02  0.51100000000E-03 0. -1.
        -12    1    3    3    0    0  0.24144991581E+02  0.14199666121E+02 -0.12766192831E+01  0.28039987396E+02  0.00000000000E+00 0.  1.
</event>
<event>
 7    1  0.3919732E-008  0.4614232E+02  0.7816164E-02  0.1320468E+00
        -11   -1    0    0    0    0  0.00000000000E+00  0.00000000000E+00  0.45593999997E+02  0.45594000000E+02  0.51100000000E-03 0.  1.
         11   -1    0    0    0    0 -0.00000000000E+00 -0.00000000000E+00 -0.45593999997E+02  0.45594000000E+02  0.51100000000E-03 0. -1.
    9900012    2    1    2    0    0  0.31675723578E+02 -0.20055623606E+02 -0.24970662104E+02  0.46142317984E+02  0.10000002032E+02 0.  0.
        -12    1    1    2    0    0 -0.31675723578E+02  0.20055623606E+02  0.24970662104E+02  0.45045682016E+02  0.00000000000E+00 0.  1.
         11    1    3    3    0    0  0.12851680102E+01  0.21493941329E+00  0.45582409158E+00  0.13804461704E+01  0.51100000000E-03 0. -1.
        -11    1    3    3    0    0  0.79172054246E+01 -0.29127484231E+01 -0.61894614684E+01  0.10463062584E+02  0.51100000000E-03 0.  1.
         12    1    3    3    0    0  0.22473350143E+02 -0.17357814596E+02 -0.19237024727E+02  0.34298809229E+02  0.00000000000E+00 0. -1.
</event>
<event>
 7    1  0.3919732E-008  0.4614232E+02  0.7816164E-02  0.1320468E+00
        -11   -1    0    0    0    0  0.00000000000E+00  0.00000000000E+00  0.45593999997E+02  0.45594000000E+02  0.51100000000E-03 0. -1.
         11   -1    0    0    0    0 -0.00000000000E+00 -0.00000000000E+00 -0.45593999997E+02  0.45594000000E+02  0.51100000000E-03 0.  1.
    9900012    2    1    2    0    0  0.42400528511E+02 -0.46915528844E+01  0.14467130478E+02  0.46142319288E+02  0.10000013928E+02 0.  0.
        -12    1    1    2    0    0 -0.42400528511E+02  0.46915528844E+01 -0.14467130478E+02  0.45045680712E+02  0.00000000000E+00 0.  1.
         11    1    3    3    0    0  0.16900252971E-01 -0.58957193677E+00  0.28383991416E+00  0.65455790054E+00  0.51100000000E-03 0.  1.
        -11    1    3    3    0    0  0.47958937081E+01 -0.26583278350E+01  0.69572390466E+00  0.55273262388E+01  0.51100000000E-03 0. -1.
         12    1    3    3    0    0  0.37587734550E+02 -0.14436531127E+01  0.13487566660E+02  0.39960435149E+02  0.00000000000E+00 0. -1.
</event>
<event>
 7    1  0.3919732E-008  0.4614232E+02  0.7816164E-02  0.1320468E+00
        -11   -1    0    0    0    0  0.00000000000E+00  0.00000000000E+00  0.45593999997E+02  0.45594000000E+02  0.51100000000E-03 0.  1.
         11   -1    0    0    0    0 -0.00000000000E+00 -0.00000000000E+00 -0.45593999997E+02  0.45594000000E+02  0.51100000000E-03 0. -1.
    9900012    2    1    2    0    0 -0.12717681846E+02  0.30261955652E+01 -0.43107030571E+02  0.46142319010E+02  0.10000011391E+02 0.  0.
        -12    1    1    2    0    0  0.12717681846E+02 -0.30261955652E+01  0.43107030571E+02  0.45045680990E+02  0.00000000000E+00 0.  1.
         11    1    3    3    0    0 -0.84247357306E+01 -0.96820637608E-01 -0.23940263539E+02  0.25379554073E+02  0.51100000000E-03 0. -1.
        -11    1    3    3    0    0  0.10135847237E+01 -0.10440867937E+00 -0.72820287504E+01  0.73529720622E+01  0.51100000000E-03 0.  1.
        -12    1    3    3    0    0 -0.53065308395E+01  0.32274248822E+01 -0.11884738282E+02  0.13409792875E+02  0.00000000000E+00 0.  1.
</event>
<event>
 7    1  0.3919732E-008  0.4614232E+02  0.7816164E-02  0.1320468E+00
        -11   -1    0    0    0    0  0.00000000000E+00  0.00000000000E+00  0.45593999997E+02  0.45594000000E+02  0.51100000000E-03 0. -1.
         11   -1    0    0    0    0 -0.00000000000E+00 -0.00000000000E+00 -0.45593999997E+02  0.45594000000E+02  0.51100000000E-03 0.  1.
    9900012    2    1    2    0    0  0.33128017517E+02 -0.30412633743E+02  0.25922279245E+01  0.46142317838E+02  0.10000000705E+02 0.  0.
        -12    1    1    2    0    0 -0.33128017517E+02  0.30412633743E+02 -0.25922279245E+01  0.45045682162E+02  0.00000000000E+00 0.  1.
         11    1    3    3    0    0  0.66228513358E+01 -0.40033591039E+01  0.20145815506E+01  0.79967232674E+01  0.51100000000E-03 0. -1.
        -11    1    3    3    0    0  0.65896668977E+01 -0.64209492630E+01  0.33541916987E+01  0.97930026791E+01  0.51100000000E-03 0.  1.
        -12    1    3    3    0    0  0.19915499284E+02 -0.19988325376E+02 -0.27765453248E+01  0.28352591892E+02  0.00000000000E+00 0.  1.
</event>
<event>
 7    1  0.3919732E-008  0.4614232E+02  0.7816164E-02  0.1320468E+00
        -11   -1    0    0    0    0  0.00000000000E+00  0.00000000000E+00  0.45593999997E+02  0.45594000000E+02  0.51100000000E-03 0.  1.
         11   -1    0    0    0    0 -0.00000000000E+00 -0.00000000000E+00 -0.45593999997E+02  0.45594000000E+02  0.51100000000E-03 0. -1.
    9900012    2    1    2    0    0 -0.90062891130E+01 -0.20087408302E+02 -0.39300079693E+02  0.46142317857E+02  0.10000000871E+02 0.  0.
        -12    1    1    2    0    0  0.90062891130E+01  0.20087408302E+02  0.39300079693E+02  0.45045682143E+02  0.00000000000E+00 0.  1.
         11    1    3    3    0    0  0.41146910591E+00 -0.48917586688E+01 -0.11651326451E+02  0.12643259786E+02  0.51100000000E-03 0. -1.
        -11    1    3    3    0    0 -0.68348394093E+00 -0.22770928684E+01 -0.91079593951E+00  0.25459481010E+01  0.51100000000E-03 0.  1.
         12    1    3    3    0    0 -0.87342742779E+01 -0.12918556764E+02 -0.26737957303E+02  0.30953109970E+02  0.00000000000E+00 0. -1.
</event>
<event>
 7    1  0.3919732E-008  0.4614232E+02  0.7816164E-02  0.1320468E+00
        -11   -1    0    0    0    0  0.00000000000E+00  0.00000000000E+00  0.45593999997E+02  0.45594000000E+02  0.51100000000E-03 0. -1.
         11   -1    0    0    0    0 -0.00000000000E+00 -0.00000000000E+00 -0.45593999997E+02  0.45594000000E+02  0.51100000000E-03 0.  1.
    9900012    2    1    2    0    0 -0.39077907839E+02  0.22045796642E+02  0.40016778533E+01  0.46142318117E+02  0.10000003248E+02 0.  0.
        -12    1    1    2    0    0  0.39077907839E+02 -0.22045796642E+02 -0.40016778533E+01  0.45045681883E+02  0.00000000000E+00 0.  1.
         11    1    3    3    0    0 -0.11608574831E+02  0.83699968943E+01  0.53035543062E+00  0.14321212755E+02  0.51100000000E-03 0.  1.
        -11    1    3    3    0    0 -0.24263284571E+02  0.89386158144E+01  0.35532395048E+01  0.26100408849E+02  0.51100000000E-03 0. -1.
         12    1    3    3    0    0 -0.32060484374E+01  0.47371839328E+01 -0.81917082120E-01  0.57206965139E+01  0.00000000000E+00 0. -1.
</event>
<event>
 7    1  0.3919732E-008  0.4614232E+02  0.7816164E-02  0.1320468E+00
        -11   -1    0    0    0    0  0.00000000000E+00  0.00000000000E+00  0.45593999997E+02  0.45594000000E+02  0.51100000000E-03 0.  1.
         11   -1    0    0    0    0 -0.00000000000E+00 -0.00000000000E+00 -0.45593999997E+02  0.45594000000E+02  0.51100000000E-03 0. -1.
    9900012    2    1    2    0    0 -0.36584647162E+02 -0.24204213730E+02 -0.10238803084E+02  0.46142318089E+02  0.10000002988E+02 0.  0.
        -12    1    1    2    0    0  0.36584647162E+02  0.24204213730E+02  0.10238803084E+02  0.45045681911E+02  0.00000000000E+00 0.  1.
         11    1    3    3    0    0 -0.10189342472E+01 -0.14211490186E+01 -0.12920279219E+01  0.21742189277E+01  0.51100000000E-03 0. -1.
        -11    1    3    3    0    0 -0.23265697961E+01 -0.36301963114E+00  0.11531318107E+01  0.26219121844E+01  0.51100000000E-03 0.  1.
         12    1    3    3    0    0 -0.33239143119E+02 -0.22420045080E+02 -0.10099906973E+02  0.41346186977E+02  0.00000000000E+00 0. -1.
</event>
<event>
 7    1  0.3919732E-008  0.4614232E+02  0.7816164E-02  0.1320468E+00
        -11   -1    0    0    0    0  0.00000000000E+00  0.00000000000E+00  0.45593999997E+02  0.45594000000E+02  0.51100000000E-03 0.  1.
         11   -1    0    0    0    0 -0.00000000000E+00 -0.00000000000E+00 -0.45593999997E+02  0.45594000000E+02  0.51100000000E-03 0. -1.
    9900012    2    1    2    0    0 -0.97460178104E+01 -0.12782937970E+02 -0.42079983514E+02  0.46142318977E+02  0.10000011088E+02 0.  0.
        -12    1    1    2    0    0  0.97460178104E+01  0.12782937970E+02  0.42079983514E+02  0.45045681023E+02  0.00000000000E+00 0.  1.
         11    1    3    3    0    0 -0.17345605878E+01 -0.45461789269E+01 -0.15734289194E+02  0.16469496045E+02  0.51100000000E-03 0. -1.
        -11    1    3    3    0    0 -0.64349921440E+01 -0.38089303703E+01 -0.89976224458E+01  0.11699328374E+02  0.51100000000E-03 0.  1.
        -12    1    3    3    0    0 -0.15764650787E+01 -0.44278286727E+01 -0.17348071874E+02  0.17973494558E+02  0.00000000000E+00 0.  1.
</event>
<event>
 7    1  0.3919732E-008  0.4614232E+02  0.7816164E-02  0.1320468E+00
        -11   -1    0    0    0    0  0.00000000000E+00  0.00000000000E+00  0.45593999997E+02  0.45594000000E+02  0.51100000000E-03 0.  1.
         11   -1    0    0    0    0 -0.00000000000E+00 -0.00000000000E+00 -0.45593999997E+02  0.45594000000E+02  0.51100000000E-03 0. -1.
    9900012    2    1    2    0    0 -0.10590286298E+02  0.35285379703E+02 -0.25921059338E+02  0.46142317611E+02  0.99999986347E+01 0.  0.
        -12    1    1    2    0    0  0.10590286298E+02 -0.35285379703E+02  0.25921059338E+02  0.45045682389E+02  0.00000000000E+00 0.  1.
         11    1    3    3    0    0 -0.26725515054E+01  0.98820268578E+01 -0.40703296267E+01  0.11016558896E+02  0.51100000000E-03 0. -1.
        -11    1    3    3    0    0  0.69254924945E+00  0.36401452518E+01 -0.52733559461E+01  0.64450419016E+01  0.51100000000E-03 0.  1.
        -12    1    3    3    0    0 -0.86102840417E+01  0.21763207594E+02 -0.16577373765E+02  0.28680716814E+02  0.00000000000E+00 0.  1.
</event>
<event>
 7    1  0.3919732E-008  0.4614232E+02  0.7816164E-02  0.1320468E+00
        -11   -1    0    0    0    0  0.00000000000E+00  0.00000000000E+00  0.45593999997E+02  0.45594000000E+02  0.51100000000E-03 0. -1.
         11   -1    0    0    0    0 -0.00000000000E+00 -0.00000000000E+00 -0.45593999997E+02  0.45594000000E+02  0.51100000000E-03 0.  1.
    9900012    2    1    2    0    0 -0.16096073231E+01 -0.43233507387E+02 -0.12545378973E+02  0.46142317296E+02  0.99999957549E+01 0.  0.
        -12    1    1    2    0    0  0.16096073231E+01  0.43233507387E+02  0.12545378973E+02  0.45045682704E+02  0.00000000000E+00 0.  1.
         11    1    3    3    0    0 -0.30129216273E+01 -0.16550944241E+02 -0.49204187246E+01  0.17527748649E+02  0.51100000000E-03 0.  1.
        -11    1    3    3    0    0 -0.66846176657E+00 -0.94722545801E+01  0.41795110472E+00  0.95050055944E+01  0.51100000000E-03 0. -1.
        -12    1    3    3    0    0  0.20717760708E+01 -0.17210308566E+02 -0.80429113529E+01  0.19109563053E+02  0.00000000000E+00 0.  1.
</event>
<event>
 7    1  0.3919732E-008  0.4614232E+02  0.7816164E-02  0.1320468E+00
        -11   -1    0    0    0    0  0.00000000000E+00  0.00000000000E+00  0.45593999997E+02  0.45594000000E+02  0.51100000000E-03 0.  1.
         11   -1    0    0    0    0 -0.00000000000E+00 -0.00000000000E+00 -0.45593999997E+02  0.45594000000E+02  0.51100000000E-03 0. -1.
    9900012    2    1    2    0    0 -0.22370309936E+02  0.34217657175E+01 -0.38948352253E+02  0.46142318848E+02  0.10000009912E+02 0.  0.
        -12    1    1    2    0    0  0.22370309936E+02 -0.34217657175E+01  0.38948352253E+02  0.45045681152E+02  0.00000000000E+00 0.  1.
         11    1    3    3    0    0 -0.74813781356E+01  0.19131658909E+00 -0.11644377022E+02  0.13841934017E+02  0.51100000000E-03 0. -1.
        -11    1    3    3    0    0 -0.29378398411E+01 -0.25212804844E+01 -0.78869318243E+01  0.87858666093E+01  0.51100000000E-03 0.  1.
         12    1    3    3    0    0 -0.11951091959E+02  0.57517296129E+01 -0.19417043407E+02  0.23514518222E+02  0.00000000000E+00 0. -1.
</event>
<event>
 7    1  0.3919732E-008  0.4614232E+02  0.7816164E-02  0.1320468E+00
        -11   -1    0    0    0    0  0.00000000000E+00  0.00000000000E+00  0.45593999997E+02  0.45594000000E+02  0.51100000000E-03 0.  1.
         11   -1    0    0    0    0 -0.00000000000E+00 -0.00000000000E+00 -0.45593999997E+02  0.45594000000E+02  0.51100000000E-03 0. -1.
    9900012    2    1    2    0    0  0.65620150448E+01 -0.22107376543E+02 -0.38695184987E+02  0.46142317851E+02  0.10000000823E+02 0.  0.
        -12    1    1    2    0    0 -0.65620150448E+01  0.22107376543E+02  0.38695184987E+02  0.45045682149E+02  0.00000000000E+00 0.  1.
         11    1    3    3    0    0 -0.16314509774E+01 -0.56701594472E+01 -0.68702505125E+01  0.90560854023E+01  0.51100000000E-03 0. -1.
        -11    1    3    3    0    0  0.82033470617E+00 -0.54287071075E+01 -0.12530678975E+02  0.13680706331E+02  0.51100000000E-03 0.  1.
        -12    1    3    3    0    0  0.73731313160E+01 -0.11008509988E+02 -0.19294255500E+02  0.23405526118E+02  0.00000000000E+00 0.  1.
</event>
<event>
 7    1  0.3919732E-008  0.4614232E+02  0.7816164E-02  0.1320468E+00
        -11   -1    0    0    0    0  0.00000000000E+00  0.00000000000E+00  0.45593999997E+02  0.45594000000E+02  0.51100000000E-03 0. -1.
         11   -1    0    0    0    0 -0.00000000000E+00 -0.00000000000E+00 -0.45593999997E+02  0.45594000000E+02  0.51100000000E-03 0.  1.
    9900012    2    1    2    0    0  0.43972391183E+02  0.79416008688E+01  0.56985357710E+01  0.46142317403E+02  0.99999967320E+01 0.  0.
        -12    1    1    2    0    0 -0.43972391183E+02 -0.79416008688E+01 -0.56985357710E+01  0.45045682597E+02  0.00000000000E+00 0.  1.
         11    1    3    3    0    0  0.28578146110E+02  0.44864524600E+01  0.64893510209E+01  0.29647097121E+02  0.51100000000E-03 0. -1.
        -11    1    3    3    0    0  0.64629220082E+01  0.13403708132E+01 -0.26812840169E+01  0.71242711235E+01  0.51100000000E-03 0.  1.
        -12    1    3    3    0    0  0.89313230646E+01  0.21147775956E+01  0.18904687671E+01  0.93709491581E+01  0.00000000000E+00 0.  1.
</event>
<event>
 7    1  0.3919732E-008  0.4614232E+02  0.7816164E-02  0.1320468E+00
        -11   -1    0    0    0    0  0.00000000000E+00  0.00000000000E+00  0.45593999997E+02  0.45594000000E+02  0.51100000000E-03 0. -1.
         11   -1    0    0    0    0 -0.00000000000E+00 -0.00000000000E+00 -0.45593999997E+02  0.45594000000E+02  0.51100000000E-03 0.  1.
    9900012    2    1    2    0    0 -0.17247560979E+02 -0.18741410381E+02  0.37153663602E+02  0.46142317167E+02  0.99999945849E+01 0.  0.
        -12    1    1    2    0    0  0.17247560979E+02  0.18741410381E+02 -0.37153663602E+02  0.45045682833E+02  0.00000000000E+00 0.  1.
         11    1    3    3    0    0 -0.71963108991E+01 -0.22632766791E+01  0.10370779320E+02  0.12824288513E+02  0.51100000000E-03 0. -1.
        -11    1    3    3    0    0 -0.31677095539E+00  0.11268006734E+00 -0.84900833814E-02  0.33632272952E+00  0.51100000000E-03 0.  1.
         12    1    3    3    0    0 -0.97344791248E+01 -0.16590813769E+02  0.26791374366E+02  0.32981705925E+02  0.00000000000E+00 0. -1.
</event>
<event>
 7    1  0.3919732E-008  0.4614232E+02  0.7816164E-02  0.1320468E+00
        -11   -1    0    0    0    0  0.00000000000E+00  0.00000000000E+00  0.45593999997E+02  0.45594000000E+02  0.51100000000E-03 0.  1.
         11   -1    0    0    0    0 -0.00000000000E+00 -0.00000000000E+00 -0.45593999997E+02  0.45594000000E+02  0.51100000000E-03 0. -1.
    9900012    2    1    2    0    0 -0.16534953332E+02 -0.20553962471E+02 -0.36513606404E+02  0.46142317548E+02  0.99999980600E+01 0.  0.
        -12    1    1    2    0    0  0.16534953332E+02  0.20553962471E+02  0.36513606404E+02  0.45045682452E+02  0.00000000000E+00 0.  1.
         11    1    3    3    0    0 -0.13745275843E+01 -0.78407490671E+01 -0.12397830818E+02  0.14733393407E+02  0.51100000000E-03 0.  1.
        -11    1    3    3    0    0 -0.79592731967E+01 -0.90167992744E+01 -0.14617527542E+02  0.18929469371E+02  0.51100000000E-03 0. -1.
        -12    1    3    3    0    0 -0.72011525510E+01 -0.36964141290E+01 -0.94982480432E+01  0.12479454770E+02  0.00000000000E+00 0.  1.
</event>
<event>
 7    1  0.3919732E-008  0.4614232E+02  0.7816164E-02  0.1320468E+00
        -11   -1    0    0    0    0  0.00000000000E+00  0.00000000000E+00  0.45593999997E+02  0.45594000000E+02  0.51100000000E-03 0.  1.
         11   -1    0    0    0    0 -0.00000000000E+00 -0.00000000000E+00 -0.45593999997E+02  0.45594000000E+02  0.51100000000E-03 0. -1.
    9900012    2    1    2    0    0  0.61582653038E+01  0.10366793690E+02 -0.43401829231E+02  0.46142318480E+02  0.10000006560E+02 0.  0.
        -12    1    1    2    0    0 -0.61582653038E+01 -0.10366793690E+02  0.43401829231E+02  0.45045681520E+02  0.00000000000E+00 0.  1.
         11    1    3    3    0    0  0.60014272960E+01  0.67407893650E+01 -0.31637864194E+02  0.32899997293E+02  0.51100000000E-03 0. -1.
        -11    1    3    3    0    0  0.10249947353E+01 -0.94903140631E+00 -0.32643535001E+01  0.35506730140E+01  0.51100000000E-03 0.  1.
        -12    1    3    3    0    0 -0.86815672746E+00  0.45750357308E+01 -0.84996115369E+01  0.96916481736E+01  0.00000000000E+00 0.  1.
</event>
<event>
 7    1  0.3919732E-008  0.4614232E+02  0.7816164E-02  0.1320468E+00
        -11   -1    0    0    0    0  0.00000000000E+00  0.00000000000E+00  0.45593999997E+02  0.45594000000E+02  0.51100000000E-03 0.  1.
         11   -1    0    0    0    0 -0.00000000000E+00 -0.00000000000E+00 -0.45593999997E+02  0.45594000000E+02  0.51100000000E-03 0. -1.
    9900012    2    1    2    0    0 -0.30099831649E+02 -0.19012173468E+02 -0.27598024030E+02  0.46142317236E+02  0.99999952113E+01 0.  0.
        -12    1    1    2    0    0  0.30099831649E+02  0.19012173468E+02  0.27598024030E+02  0.45045682764E+02  0.00000000000E+00 0.  1.
         11    1    3    3    0    0 -0.12371348532E+02 -0.57350793939E+01 -0.87816525117E+01  0.16219088176E+02  0.51100000000E-03 0. -1.
        -11    1    3    3    0    0 -0.17367338547E+02 -0.14085865477E+02 -0.18320884500E+02  0.28908318242E+02  0.51100000000E-03 0.  1.
        -12    1    3    3    0    0 -0.36114457003E+00  0.80877140317E+00 -0.49548701889E+00  0.10149108182E+01  0.00000000000E+00 0.  1.
</event>
<event>
 7    1  0.3919732E-008  0.4614232E+02  0.7816164E-02  0.1320468E+00
        -11   -1    0    0    0    0  0.00000000000E+00  0.00000000000E+00  0.45593999997E+02  0.45594000000E+02  0.51100000000E-03 0.  1.
         11   -1    0    0    0    0 -0.00000000000E+00 -0.00000000000E+00 -0.45593999997E+02  0.45594000000E+02  0.51100000000E-03 0. -1.
    9900012    2    1    2    0    0 -0.17515623044E+02 -0.79968557757E+01 -0.40723046449E+02  0.46142320240E+02  0.10000022609E+02 0.  0.
        -12    1    1    2    0    0  0.17515623044E+02  0.79968557757E+01  0.40723046449E+02  0.45045679760E+02  0.00000000000E+00 0.  1.
         11    1    3    3    0    0 -0.17580311857E+00  0.74204007120E+00 -0.85500359060E-01  0.76735961340E+00  0.51100000000E-03 0. -1.
        -11    1    3    3    0    0 -0.36280052240E+01  0.40489805969E+00 -0.87255614987E+01  0.94584241855E+01  0.51100000000E-03 0.  1.
        -12    1    3    3    0    0 -0.13711814702E+02 -0.91437939066E+01 -0.31911984591E+02  0.35916536442E+02  0.00000000000E+00 0.  1.
</event>
<event>
 7    1  0.3919732E-008  0.4614232E+02  0.7816164E-02  0.1320468E+00
        -11   -1    0    0    0    0  0.00000000000E+00  0.00000000000E+00  0.45593999997E+02  0.45594000000E+02  0.51100000000E-03 0.  1.
         11   -1    0    0    0    0 -0.00000000000E+00 -0.00000000000E+00 -0.45593999997E+02  0.45594000000E+02  0.51100000000E-03 0. -1.
    9900012    2    1    2    0    0  0.23048949187E+02  0.38620439715E+02  0.25141842292E+01  0.46142317135E+02  0.99999942915E+01 0.  0.
        -12    1    1    2    0    0 -0.23048949187E+02 -0.38620439715E+02 -0.25141842292E+01  0.45045682865E+02  0.00000000000E+00 0.  1.
         11    1    3    3    0    0  0.77086738929E+01  0.11536363707E+02 -0.14562258513E+00  0.13875609787E+02  0.51100000000E-03 0. -1.
        -11    1    3    3    0    0  0.20472512747E+01  0.96490022505E+01 -0.14209250406E+01  0.99656164106E+01  0.51100000000E-03 0.  1.
        -12    1    3    3    0    0  0.13293024020E+02  0.17435073758E+02  0.40807318549E+01  0.22301090937E+02  0.00000000000E+00 0.  1.
</event>
<event>
 7    1  0.3919732E-008  0.4614231E+02  0.7816164E-02  0.1320468E+00
        -11   -1    0    0    0    0  0.00000000000E+00  0.00000000000E+00  0.45593999997E+02  0.45594000000E+02  0.51100000000E-03 0.  1.
         11   -1    0    0    0    0 -0.00000000000E+00 -0.00000000000E+00 -0.45593999997E+02  0.45594000000E+02  0.51100000000E-03 0. -1.
    9900012    2    1    2    0    0  0.13127865638E+02 -0.30653273551E+02 -0.30284482168E+02  0.46142313238E+02  0.99999587571E+01 0.  0.
        -12    1    1    2    0    0 -0.13127865638E+02  0.30653273551E+02  0.30284482168E+02  0.45045686762E+02  0.00000000000E+00 0.  1.
         11    1    3    3    0    0  0.10346263525E+02 -0.20662611658E+02 -0.18785328746E+02  0.29780484647E+02  0.51100000000E-03 0. -1.
        -11    1    3    3    0    0  0.13443395676E+01 -0.45169013924E+01 -0.16326826488E+01  0.49875144064E+01  0.51100000000E-03 0.  1.
        -12    1    3    3    0    0  0.14372625458E+01 -0.54737605005E+01 -0.98664707736E+01  0.11374314185E+02  0.00000000000E+00 0.  1.
</event>
<event>
 7    1  0.3919732E-008  0.4614232E+02  0.7816164E-02  0.1320468E+00
        -11   -1    0    0    0    0  0.00000000000E+00  0.00000000000E+00  0.45593999997E+02  0.45594000000E+02  0.51100000000E-03 0.  1.
         11   -1    0    0    0    0 -0.00000000000E+00 -0.00000000000E+00 -0.45593999997E+02  0.45594000000E+02  0.51100000000E-03 0. -1.
    9900012    2    1    2    0    0 -0.12180273146E+02 -0.43169283784E+02 -0.41433536033E+01  0.46142317683E+02  0.99999992851E+01 0.  0.
        -12    1    1    2    0    0  0.12180273146E+02  0.43169283784E+02  0.41433536033E+01  0.45045682317E+02  0.00000000000E+00 0.  1.
         11    1    3    3    0    0 -0.10674896704E+02 -0.23864227889E+02 -0.15636520611E+01  0.26189688819E+02  0.51100000000E-03 0. -1.
        -11    1    3    3    0    0 -0.24637487236E+01 -0.17267798250E+02 -0.28881822172E+01  0.17680172821E+02  0.51100000000E-03 0.  1.
         12    1    3    3    0    0  0.95837228205E+00 -0.20372576448E+01  0.30848067500E+00  0.22724560434E+01  0.00000000000E+00 0. -1.
</event>
<event>
 7    1  0.3919732E-008  0.4614230E+02  0.7816164E-02  0.1320468E+00
        -11   -1    0    0    0    0  0.00000000000E+00  0.00000000000E+00  0.45593999997E+02  0.45594000000E+02  0.51100000000E-03 0.  1.
         11   -1    0    0    0    0 -0.00000000000E+00 -0.00000000000E+00 -0.45593999997E+02  0.45594000000E+02  0.51100000000E-03 0. -1.
    9900012    2    1    2    0    0  0.32789886871E+02  0.27282220781E+02 -0.14478211403E+02  0.46142302567E+02  0.99998614485E+01 0.  0.
        -12    1    1    2    0    0 -0.32789886871E+02 -0.27282220781E+02  0.14478211403E+02  0.45045697433E+02  0.00000000000E+00 0.  1.
         11    1    3    3    0    0  0.11896330860E+02  0.11606707795E+02 -0.63433711778E+01  0.17789792352E+02  0.51100000000E-03 0. -1.
        -11    1    3    3    0    0  0.87572788725E+01  0.60522884009E+01 -0.71684708606E+01  0.12833826510E+02  0.51100000000E-03 0.  1.
         12    1    3    3    0    0  0.12136277139E+02  0.96232245849E+01 -0.96636936510E+00  0.15518683705E+02  0.00000000000E+00 0. -1.
</event>
<event>
 7    1  0.3919732E-008  0.4614232E+02  0.7816164E-02  0.1320468E+00
        -11   -1    0    0    0    0  0.00000000000E+00  0.00000000000E+00  0.45593999997E+02  0.45594000000E+02  0.51100000000E-03 0. -1.
         11   -1    0    0    0    0 -0.00000000000E+00 -0.00000000000E+00 -0.45593999997E+02  0.45594000000E+02  0.51100000000E-03 0.  1.
    9900012    2    1    2    0    0  0.38792001599E+02  0.97644061885E+01  0.20711119575E+02  0.46142317739E+02  0.99999997993E+01 0.  0.
        -12    1    1    2    0    0 -0.38792001599E+02 -0.97644061885E+01 -0.20711119575E+02  0.45045682261E+02  0.00000000000E+00 0.  1.
         11    1    3    3    0    0  0.24877798754E+01  0.91846466674E+00 -0.21229407586E+00  0.26603937844E+01  0.51100000000E-03 0.  1.
        -11    1    3    3    0    0  0.16166585838E+02  0.42201619696E+01  0.13655937868E+02  0.21578992192E+02  0.51100000000E-03 0. -1.
         12    1    3    3    0    0  0.20137635886E+02  0.46257795522E+01  0.72674757827E+01  0.21902931762E+02  0.00000000000E+00 0. -1.
</event>
<event>
 7    1  0.3919732E-008  0.4614232E+02  0.7816164E-02  0.1320468E+00
        -11   -1    0    0    0    0  0.00000000000E+00  0.00000000000E+00  0.45593999997E+02  0.45594000000E+02  0.51100000000E-03 0. -1.
         11   -1    0    0    0    0 -0.00000000000E+00 -0.00000000000E+00 -0.45593999997E+02  0.45594000000E+02  0.51100000000E-03 0.  1.
    9900012    2    1    2    0    0  0.19397474685E+02 -0.26513049773E+02  0.30820603638E+02  0.46142318286E+02  0.10000004790E+02 0.  0.
        -12    1    1    2    0    0 -0.19397474685E+02  0.26513049773E+02 -0.30820603638E+02  0.45045681714E+02  0.00000000000E+00 0.  1.
         11    1    3    3    0    0  0.17851311542E+01 -0.26791567663E+00  0.11757152181E+01  0.21542466393E+01  0.51100000000E-03 0.  1.
        -11    1    3    3    0    0  0.24577879224E+01 -0.64065910791E+01  0.30417850539E+01  0.75058368821E+01  0.51100000000E-03 0. -1.
         12    1    3    3    0    0  0.15154555608E+02 -0.19838543017E+02  0.26603103366E+02  0.36482234765E+02  0.00000000000E+00 0. -1.
</event>
<event>
 7    1  0.3919732E-008  0.4614232E+02  0.7816164E-02  0.1320468E+00
        -11   -1    0    0    0    0  0.00000000000E+00  0.00000000000E+00  0.45593999997E+02  0.45594000000E+02  0.51100000000E-03 0. -1.
         11   -1    0    0    0    0 -0.00000000000E+00 -0.00000000000E+00 -0.45593999997E+02  0.45594000000E+02  0.51100000000E-03 0.  1.
    9900012    2    1    2    0    0 -0.42130601556E+02 -0.74555322119E+01  0.14090454655E+02  0.46142318071E+02  0.10000002828E+02 0.  0.
        -12    1    1    2    0    0  0.42130601556E+02  0.74555322119E+01 -0.14090454655E+02  0.45045681929E+02  0.00000000000E+00 0.  1.
         11    1    3    3    0    0 -0.18381361434E+02 -0.62879550892E+01  0.10102518480E+02  0.21896888073E+02  0.51100000000E-03 0. -1.
        -11    1    3    3    0    0 -0.96157240103E+01 -0.16371684344E+01  0.21132356019E+01  0.99803924620E+01  0.51100000000E-03 0.  1.
        -12    1    3    3    0    0 -0.14133516112E+02  0.46959131166E+00  0.18747005732E+01  0.14265037537E+02  0.00000000000E+00 0.  1.
</event>
<event>
 7    1  0.3919732E-008  0.4614232E+02  0.7816164E-02  0.1320468E+00
        -11   -1    0    0    0    0  0.00000000000E+00  0.00000000000E+00  0.45593999997E+02  0.45594000000E+02  0.51100000000E-03 0. -1.
         11   -1    0    0    0    0 -0.00000000000E+00 -0.00000000000E+00 -0.45593999997E+02  0.45594000000E+02  0.51100000000E-03 0.  1.
    9900012    2    1    2    0    0  0.19388380741E+02  0.38924729669E+02  0.11750299628E+02  0.46142318421E+02  0.10000006021E+02 0.  0.
        -12    1    1    2    0    0 -0.19388380741E+02 -0.38924729669E+02 -0.11750299628E+02  0.45045681579E+02  0.00000000000E+00 0.  1.
         11    1    3    3    0    0  0.46843738074E+01  0.17115318609E+02  0.28321107338E+01  0.17969372291E+02  0.51100000000E-03 0.  1.
        -11    1    3    3    0    0  0.42704209279E+01  0.74373926697E+01  0.70287003083E+00  0.86049596841E+01  0.51100000000E-03 0. -1.
         12    1    3    3    0    0  0.10433586005E+02  0.14372018390E+02  0.82153188636E+01  0.19567986446E+02  0.00000000000E+00 0. -1.
</event>
<event>
 7    1  0.3919732E-008  0.4614232E+02  0.7816164E-02  0.1320468E+00
        -11   -1    0    0    0    0  0.00000000000E+00  0.00000000000E+00  0.45593999997E+02  0.45594000000E+02  0.51100000000E-03 0.  1.
         11   -1    0    0    0    0 -0.00000000000E+00 -0.00000000000E+00 -0.45593999997E+02  0.45594000000E+02  0.51100000000E-03 0. -1.
    9900012    2    1    2    0    0  0.13508640786E+02 -0.37343004440E+02 -0.21263351919E+02  0.46142317728E+02  0.99999997019E+01 0.  0.
        -12    1    1    2    0    0 -0.13508640786E+02  0.37343004440E+02  0.21263351919E+02  0.45045682272E+02  0.00000000000E+00 0.  1.
         11    1    3    3    0    0  0.28912335593E+01 -0.84834066811E+01 -0.74288229380E+01  0.11641083752E+02  0.51100000000E-03 0. -1.
        -11    1    3    3    0    0  0.62090005016E+01 -0.14219165412E+02 -0.10823474554E+02  0.18917821067E+02  0.51100000000E-03 0.  1.
        -12    1    3    3    0    0  0.44084067252E+01 -0.14640432347E+02 -0.30110544276E+01  0.15583412910E+02  0.00000000000E+00 0.  1.
</event>
<event>
 7    1  0.3919732E-008  0.4614232E+02  0.7816164E-02  0.1320468E+00
        -11   -1    0    0    0    0  0.00000000000E+00  0.00000000000E+00  0.45593999997E+02  0.45594000000E+02  0.51100000000E-03 0. -1.
         11   -1    0    0    0    0 -0.00000000000E+00 -0.00000000000E+00 -0.45593999997E+02  0.45594000000E+02  0.51100000000E-03 0.  1.
    9900012    2    1    2    0    0  0.22479311788E+02 -0.39016829979E+02  0.12169707230E+01  0.46142317656E+02  0.99999990425E+01 0.  0.
        -12    1    1    2    0    0 -0.22479311788E+02  0.39016829979E+02 -0.12169707230E+01  0.45045682344E+02  0.00000000000E+00 0.  1.
         11    1    3    3    0    0  0.77530458035E+01 -0.68150985791E+01  0.57587111906E+00  0.10338612851E+02  0.51100000000E-03 0. -1.
        -11    1    3    3    0    0  0.71747912066E+00 -0.54631921070E+01 -0.87737930955E+00  0.55795196031E+01  0.51100000000E-03 0.  1.
         12    1    3    3    0    0  0.14008786863E+02 -0.26738539293E+02  0.15184789135E+01  0.30224185202E+02  0.00000000000E+00 0. -1.
</event>
<event>
 7    1  0.3919732E-008  0.4614232E+02  0.7816164E-02  0.1320468E+00
        -11   -1    0    0    0    0  0.00000000000E+00  0.00000000000E+00  0.45593999997E+02  0.45594000000E+02  0.51100000000E-03 0.  1.
         11   -1    0    0    0    0 -0.00000000000E+00 -0.00000000000E+00 -0.45593999997E+02  0.45594000000E+02  0.51100000000E-03 0. -1.
    9900012    2    1    2    0    0  0.93323325492E+01  0.18381809090E+02 -0.40051593647E+02  0.46142317744E+02  0.99999998452E+01 0.  0.
        -12    1    1    2    0    0 -0.93323325492E+01 -0.18381809090E+02  0.40051593647E+02  0.45045682256E+02  0.00000000000E+00 0.  1.
         11    1    3    3    0    0  0.70901380326E+01  0.93982052109E+01 -0.13942467195E+02  0.18247978251E+02  0.51100000000E-03 0. -1.
        -11    1    3    3    0    0  0.49392030715E+00  0.66454162814E+01 -0.15106571110E+02  0.16511026794E+02  0.51100000000E-03 0.  1.
         12    1    3    3    0    0  0.17482742095E+01  0.23381875976E+01 -0.11002555342E+02  0.11383312699E+02  0.00000000000E+00 0. -1.
</event>
<event>
 7    1  0.3919732E-008  0.4614232E+02  0.7816164E-02  0.1320468E+00
        -11   -1    0    0    0    0  0.00000000000E+00  0.00000000000E+00  0.45593999997E+02  0.45594000000E+02  0.51100000000E-03 0.  1.
         11   -1    0    0    0    0 -0.00000000000E+00 -0.00000000000E+00 -0.45593999997E+02  0.45594000000E+02  0.51100000000E-03 0. -1.
    9900012    2    1    2    0    0 -0.14382533643E+02  0.44652193008E+01 -0.42453715870E+02  0.46142318203E+02  0.10000004034E+02 0.  0.
        -12    1    1    2    0    0  0.14382533643E+02 -0.44652193008E+01  0.42453715870E+02  0.45045681797E+02  0.00000000000E+00 0.  1.
         11    1    3    3    0    0 -0.62314807517E+00  0.21868484371E+01 -0.35388223977E+01  0.42064098509E+01  0.51100000000E-03 0. -1.
        -11    1    3    3    0    0 -0.30076486226E+01  0.37020435068E+01 -0.12691953723E+02  0.13558641743E+02  0.51100000000E-03 0.  1.
        -12    1    3    3    0    0 -0.10751736945E+02 -0.14236726430E+01 -0.26222939749E+02  0.28377266609E+02  0.00000000000E+00 0.  1.
</event>
<event>
 7    1  0.3919732E-008  0.4614232E+02  0.7816164E-02  0.1320468E+00
        -11   -1    0    0    0    0  0.00000000000E+00  0.00000000000E+00  0.45593999997E+02  0.45594000000E+02  0.51100000000E-03 0. -1.
         11   -1    0    0    0    0 -0.00000000000E+00 -0.00000000000E+00 -0.45593999997E+02  0.45594000000E+02  0.51100000000E-03 0.  1.
    9900012    2    1    2    0    0  0.31978952645E+02 -0.17089359272E+02  0.26728521884E+02  0.46142317691E+02  0.99999993597E+01 0.  0.
        -12    1    1    2    0    0 -0.31978952645E+02  0.17089359272E+02 -0.26728521884E+02  0.45045682309E+02  0.00000000000E+00 0.  1.
         11    1    3    3    0    0  0.57751964295E+01 -0.43542669507E+01  0.86318776794E+01  0.11261520635E+02  0.51100000000E-03 0.  1.
        -11    1    3    3    0    0  0.53689357904E+01 -0.41940292928E+01  0.70341762824E+01  0.97925987084E+01  0.51100000000E-03 0. -1.
        -12    1    3    3    0    0  0.20834820425E+02 -0.85410630281E+01  0.11062467922E+02  0.25088198348E+02  0.00000000000E+00 0.  1.
</event>
<event>
 7    1  0.3919732E-008  0.4614232E+02  0.7816164E-02  0.1320468E+00
        -11   -1    0    0    0    0  0.00000000000E+00  0.00000000000E+00  0.45593999997E+02  0.45594000000E+02  0.51100000000E-03 0. -1.
         11   -1    0    0    0    0 -0.00000000000E+00 -0.00000000000E+00 -0.45593999997E+02  0.45594000000E+02  0.51100000000E-03 0.  1.
    9900012    2    1    2    0    0 -0.14953031011E+02 -0.41146258423E+02  0.10606870221E+02  0.46142318581E+02  0.10000007472E+02 0.  0.
        -12    1    1    2    0    0  0.14953031011E+02  0.41146258423E+02 -0.10606870221E+02  0.45045681419E+02  0.00000000000E+00 0.  1.
         11    1    3    3    0    0 -0.22687663181E+01 -0.82759481514E+01  0.80553605795E+00  0.86190200727E+01  0.51100000000E-03 0. -1.
        -11    1    3    3    0    0 -0.31533971626E+01 -0.10875758268E+02 -0.71693669455E+00  0.11346366381E+02  0.51100000000E-03 0.  1.
         12    1    3    3    0    0 -0.95308675299E+01 -0.21994552004E+02  0.10518270858E+02  0.26176932127E+02  0.00000000000E+00 0. -1.
</event>
<event>
 7    1  0.3919732E-008  0.4614232E+02  0.7816164E-02  0.1320468E+00
        -11   -1    0    0    0    0  0.00000000000E+00  0.00000000000E+00  0.45593999997E+02  0.45594000000E+02  0.51100000000E-03 0.  1.
         11   -1    0    0    0    0 -0.00000000000E+00 -0.00000000000E+00 -0.45593999997E+02  0.45594000000E+02  0.51100000000E-03 0. -1.
    9900012    2    1    2    0    0  0.28880836050E+02 -0.29005615213E+02 -0.18806513408E+02  0.46142319281E+02  0.10000013864E+02 0.  0.
        -12    1    1    2    0    0 -0.28880836050E+02  0.29005615213E+02  0.18806513408E+02  0.45045680719E+02  0.00000000000E+00 0.  1.
         11    1    3    3    0    0  0.22207808097E+02 -0.16421010200E+02 -0.13239048556E+02  0.30628560583E+02  0.51100000000E-03 0. -1.
        -11    1    3    3    0    0  0.56022067135E+01 -0.80933365560E+01 -0.41676825842E+01  0.10689078307E+02  0.51100000000E-03 0.  1.
         12    1    3    3    0    0  0.10708212391E+01 -0.44912684570E+01 -0.13997822675E+01  0.48246803910E+01  0.00000000000E+00 0. -1.
</event>
<event>
 7    1  0.3919732E-008  0.4614232E+02  0.7816164E-02  0.1320468E+00
        -11   -1    0    0    0    0  0.00000000000E+00  0.00000000000E+00  0.45593999997E+02  0.45594000000E+02  0.51100000000E-03 0.  1.
         11   -1    0    0    0    0 -0.00000000000E+00 -0.00000000000E+00 -0.45593999997E+02  0.45594000000E+02  0.51100000000E-03 0. -1.
    9900012    2    1    2    0    0 -0.48057455975E+01 -0.38836861558E+02 -0.22309562366E+02  0.46142316751E+02  0.99999907870E+01 0.  0.
        -12    1    1    2    0    0  0.48057455975E+01  0.38836861558E+02  0.22309562366E+02  0.45045683249E+02  0.00000000000E+00 0.  1.
         11    1    3    3    0    0 -0.29034325705E+01 -0.12680487373E+02 -0.50769375471E+01  0.13964239178E+02  0.51100000000E-03 0. -1.
        -11    1    3    3    0    0 -0.67571304748E-01  0.64530025407E-01 -0.15855971729E+01  0.15883477772E+01  0.51100000000E-03 0.  1.
         12    1    3    3    0    0 -0.18347417222E+01 -0.26220904211E+02 -0.15647027646E+02  0.30589729796E+02  0.00000000000E+00 0. -1.
</event>
<event>
 7    1  0.3919732E-008  0.4614232E+02  0.7816164E-02  0.1320468E+00
        -11   -1    0    0    0    0  0.00000000000E+00  0.00000000000E+00  0.45593999997E+02  0.45594000000E+02  0.51100000000E-03 0.  1.
         11   -1    0    0    0    0 -0.00000000000E+00 -0.00000000000E+00 -0.45593999997E+02  0.45594000000E+02  0.51100000000E-03 0. -1.
    9900012    2    1    2    0    0  0.20308784966E+02 -0.16875612099E+02 -0.36494936406E+02  0.46142318589E+02  0.10000007552E+02 0.  0.
        -12    1    1    2    0    0 -0.20308784966E+02  0.16875612099E+02  0.36494936406E+02  0.45045681411E+02  0.00000000000E+00 0.  1.
         11    1    3    3    0    0  0.71946910014E+01 -0.71411489612E+01 -0.74301246189E+01  0.12568466064E+02  0.51100000000E-03 0.  1.
        -11    1    3    3    0    0  0.79401914100E+01 -0.36728839806E+01 -0.13488855083E+02  0.16077497569E+02  0.51100000000E-03 0. -1.
        -12    1    3    3    0    0  0.51739025546E+01 -0.60615791571E+01 -0.15575956704E+02  0.17496354956E+02  0.00000000000E+00 0.  1.
</event>
<event>
 7    1  0.3919732E-008  0.4614232E+02  0.7816164E-02  0.1320468E+00
        -11   -1    0    0    0    0  0.00000000000E+00  0.00000000000E+00  0.45593999997E+02  0.45594000000E+02  0.51100000000E-03 0.  1.
         11   -1    0    0    0    0 -0.00000000000E+00 -0.00000000000E+00 -0.45593999997E+02  0.45594000000E+02  0.51100000000E-03 0. -1.
    9900012    2    1    2    0    0  0.14367907781E+02  0.42472836411E+02 -0.43283800300E+01  0.46142317849E+02  0.10000000799E+02 0.  0.
        -12    1    1    2    0    0 -0.14367907781E+02 -0.42472836411E+02  0.43283800300E+01  0.45045682151E+02  0.00000000000E+00 0.  1.
         11    1    3    3    0    0  0.95202392090E+01  0.18318585569E+02 -0.30292307411E+01  0.20865803866E+02  0.51100000000E-03 0. -1.
        -11    1    3    3    0    0  0.43324007215E+01  0.10008440928E+02  0.93579854927E+00  0.10945972091E+02  0.51100000000E-03 0.  1.
         12    1    3    3    0    0  0.51526785068E+00  0.14145809914E+02 -0.22349478382E+01  0.14330541892E+02  0.00000000000E+00 0. -1.
</event>
<event>
 7    1  0.3919732E-008  0.4614232E+02  0.7816164E-02  0.1320468E+00
        -11   -1    0    0    0    0  0.00000000000E+00  0.00000000000E+00  0.45593999997E+02  0.45594000000E+02  0.51100000000E-03 0.  1.
         11   -1    0    0    0    0 -0.00000000000E+00 -0.00000000000E+00 -0.45593999997E+02  0.45594000000E+02  0.51100000000E-03 0. -1.
    9900012    2    1    2    0    0 -0.37223294790E+02 -0.22095496372E+02 -0.12463098758E+02  0.46142318014E+02  0.10000002304E+02 0.  0.
        -12    1    1    2    0    0  0.37223294790E+02  0.22095496372E+02  0.12463098758E+02  0.45045681986E+02  0.00000000000E+00 0.  1.
         11    1    3    3    0    0 -0.11165357084E+02 -0.64110524999E+01 -0.55447932274E+01  0.14018256852E+02  0.51100000000E-03 0. -1.
        -11    1    3    3    0    0 -0.17442953714E+02 -0.12933880380E+02 -0.77169008322E+01  0.23045443252E+02  0.51100000000E-03 0.  1.
        -12    1    3    3    0    0 -0.86149839911E+01 -0.27505634920E+01  0.79859530126E+00  0.90786179094E+01  0.00000000000E+00 0.  1.
</event>
<event>
 7    1  0.3919732E-008  0.4614232E+02  0.7816164E-02  0.1320468E+00
        -11   -1    0    0    0    0  0.00000000000E+00  0.00000000000E+00  0.45593999997E+02  0.45594000000E+02  0.51100000000E-03 0. -1.
         11   -1    0    0    0    0 -0.00000000000E+00 -0.00000000000E+00 -0.45593999997E+02  0.45594000000E+02  0.51100000000E-03 0.  1.
    9900012    2    1    2    0    0 -0.79853061384E+00  0.18652774342E+02  0.40994509935E+02  0.46142317781E+02  0.10000000182E+02 0.  0.
        -12    1    1    2    0    0  0.79853061384E+00 -0.18652774342E+02 -0.40994509935E+02  0.45045682219E+02  0.00000000000E+00 0.  1.
         11    1    3    3    0    0 -0.19390397050E+01  0.16824189421E+01  0.20099035173E+01  0.32603866157E+01  0.51100000000E-03 0. -1.
        -11    1    3    3    0    0  0.18012293799E+01  0.64273329217E+01  0.99156142099E+01  0.11953009712E+02  0.51100000000E-03 0.  1.
         12    1    3    3    0    0 -0.66072028874E+00  0.10543022478E+02  0.29068992208E+02  0.30928921453E+02  0.00000000000E+00 0. -1.
</event>
<event>
 7    1  0.3919732E-008  0.4614232E+02  0.7816164E-02  0.1320468E+00
        -11   -1    0    0    0    0  0.00000000000E+00  0.00000000000E+00  0.45593999997E+02  0.45594000000E+02  0.51100000000E-03 0.  1.
         11   -1    0    0    0    0 -0.00000000000E+00 -0.00000000000E+00 -0.45593999997E+02  0.45594000000E+02  0.51100000000E-03 0. -1.
    9900012    2    1    2    0    0  0.23921427716E+02  0.23722310899E+02 -0.29902015576E+02  0.46142320142E+02  0.10000021715E+02 0.  0.
        -12    1    1    2    0    0 -0.23921427716E+02 -0.23722310899E+02  0.29902015576E+02  0.45045679858E+02  0.00000000000E+00 0.  1.
         11    1    3    3    0    0  0.37993880610E+01  0.54206003561E+01 -0.39815920167E+01  0.77247222026E+01  0.51100000000E-03 0. -1.
        -11    1    3    3    0    0  0.14367535414E+02  0.84649905113E+01 -0.12686677026E+02  0.20953136101E+02  0.51100000000E-03 0.  1.
        -12    1    3    3    0    0  0.57545042406E+01  0.98367200312E+01 -0.13233746533E+02  0.17464461839E+02  0.00000000000E+00 0.  1.
</event>
<event>
 7    1  0.3919732E-008  0.4614232E+02  0.7816164E-02  0.1320468E+00
        -11   -1    0    0    0    0  0.00000000000E+00  0.00000000000E+00  0.45593999997E+02  0.45594000000E+02  0.51100000000E-03 0. -1.
         11   -1    0    0    0    0 -0.00000000000E+00 -0.00000000000E+00 -0.45593999997E+02  0.45594000000E+02  0.51100000000E-03 0.  1.
    9900012    2    1    2    0    0 -0.43296729389E+01 -0.44331516449E+02  0.67144833184E+01  0.46142315361E+02  0.99999781112E+01 0.  0.
        -12    1    1    2    0    0  0.43296729389E+01  0.44331516449E+02 -0.67144833184E+01  0.45045684639E+02  0.00000000000E+00 0.  1.
         11    1    3    3    0    0 -0.49352649110E+00 -0.17930106678E+02 -0.17272637361E-01  0.17936905878E+02  0.51100000000E-03 0.  1.
        -11    1    3    3    0    0 -0.22840608669E+01 -0.22322937952E+02  0.33576543850E+01  0.22689300035E+02  0.51100000000E-03 0. -1.
         12    1    3    3    0    0 -0.15520855810E+01 -0.40784718188E+01  0.33741015708E+01  0.55161094476E+01  0.00000000000E+00 0. -1.
</event>
<event>
 7    1  0.3919732E-008  0.4614232E+02  0.7816164E-02  0.1320468E+00
        -11   -1    0    0    0    0  0.00000000000E+00  0.00000000000E+00  0.45593999997E+02  0.45594000000E+02  0.51100000000E-03 0.  1.
         11   -1    0    0    0    0 -0.00000000000E+00 -0.00000000000E+00 -0.45593999997E+02  0.45594000000E+02  0.51100000000E-03 0. -1.
    9900012    2    1    2    0    0  0.31733283636E+02 -0.24515366537E+02 -0.20520940011E+02  0.46142318013E+02  0.10000002293E+02 0.  0.
        -12    1    1    2    0    0 -0.31733283636E+02  0.24515366537E+02  0.20520940011E+02  0.45045681987E+02  0.00000000000E+00 0.  1.
         11    1    3    3    0    0  0.10253026698E+02 -0.10219622011E+02 -0.76105126439E+01  0.16354972745E+02  0.51100000000E-03 0. -1.
        -11    1    3    3    0    0  0.31115323754E+00 -0.38783455306E+00 -0.22534910630E+01  0.23076945660E+01  0.51100000000E-03 0.  1.
        -12    1    3    3    0    0  0.21169103701E+02 -0.13907909973E+02 -0.10656936304E+02  0.27479650702E+02  0.00000000000E+00 0.  1.
</event>
<event>
 7    1  0.3919732E-008  0.4614232E+02  0.7816164E-02  0.1320468E+00
        -11   -1    0    0    0    0  0.00000000000E+00  0.00000000000E+00  0.45593999997E+02  0.45594000000E+02  0.51100000000E-03 0.  1.
         11   -1    0    0    0    0 -0.00000000000E+00 -0.00000000000E+00 -0.45593999997E+02  0.45594000000E+02  0.51100000000E-03 0. -1.
    9900012    2    1    2    0    0 -0.19080615371E+02  0.28073092178E+02 -0.29613259298E+02  0.46142317481E+02  0.99999974413E+01 0.  0.
        -12    1    1    2    0    0  0.19080615371E+02 -0.28073092178E+02  0.29613259298E+02  0.45045682519E+02  0.00000000000E+00 0.  1.
         11    1    3    3    0    0 -0.15704177181E+02  0.17327266448E+02 -0.19713883220E+02  0.30585822456E+02  0.51100000000E-03 0. -1.
        -11    1    3    3    0    0 -0.20299363140E+01  0.84331475278E+01 -0.51021581122E+01  0.10063331274E+02  0.51100000000E-03 0.  1.
         12    1    3    3    0    0 -0.13465018764E+01  0.23126782028E+01 -0.47972179660E+01  0.54931637502E+01  0.00000000000E+00 0. -1.
</event>
<event>
 7    1  0.3919732E-008  0.4614232E+02  0.7816164E-02  0.1320468E+00
        -11   -1    0    0    0    0  0.00000000000E+00  0.00000000000E+00  0.45593999997E+02  0.45594000000E+02  0.51100000000E-03 0.  1.
         11   -1    0    0    0    0 -0.00000000000E+00 -0.00000000000E+00 -0.45593999997E+02  0.45594000000E+02  0.51100000000E-03 0. -1.
    9900012    2    1    2    0    0 -0.20781820509E+02  0.25748607734E+02 -0.30565313798E+02  0.46142320168E+02  0.10000021950E+02 0.  0.
        -12    1    1    2    0    0  0.20781820509E+02 -0.25748607734E+02  0.30565313798E+02  0.45045679832E+02  0.00000000000E+00 0.  1.
         11    1    3    3    0    0 -0.32203668092E+01  0.14352803396E+01 -0.35261751342E+01  0.49864519828E+01  0.51100000000E-03 0. -1.
        -11    1    3    3    0    0 -0.10217820339E+02  0.19393773373E+02 -0.21614420389E+02  0.30784825274E+02  0.51100000000E-03 0.  1.
        -12    1    3    3    0    0 -0.73436333607E+01  0.49195540219E+01 -0.54247182751E+01  0.10371042912E+02  0.00000000000E+00 0.  1.
</event>
<event>
 7    1  0.3919732E-008  0.4614231E+02  0.7816164E-02  0.1320468E+00
        -11   -1    0    0    0    0  0.00000000000E+00  0.00000000000E+00  0.45593999997E+02  0.45594000000E+02  0.51100000000E-03 0. -1.
         11   -1    0    0    0    0 -0.00000000000E+00 -0.00000000000E+00 -0.45593999997E+02  0.45594000000E+02  0.51100000000E-03 0.  1.
    9900012    2    1    2    0    0  0.32661218417E+01  0.44019459718E+02 -0.89851745181E+01  0.46142314892E+02  0.99999738365E+01 0.  0.
        -12    1    1    2    0    0 -0.32661218417E+01 -0.44019459718E+02  0.89851745181E+01  0.45045685108E+02  0.00000000000E+00 0.  1.
         11    1    3    3    0    0  0.24133870189E+01  0.14338039423E+02 -0.11512310744E+01  0.14585237216E+02  0.51100000000E-03 0.  1.
        -11    1    3    3    0    0  0.32740134998E+01  0.10209991820E+02 -0.95390517612E+00  0.10764433692E+02  0.51100000000E-03 0. -1.
        -12    1    3    3    0    0 -0.24212786771E+01  0.19471428475E+02 -0.68800382676E+01  0.20792643984E+02  0.00000000000E+00 0.  1.
</event>
<event>
 7    1  0.4545376E-008  0.4614232E+02  0.7816164E-02  0.1320468E+00
        -11   -1    0    0    0    0  0.00000000000E+00  0.00000000000E+00  0.45593999997E+02  0.45594000000E+02  0.51100000000E-03 0. -1.
         11   -1    0    0    0    0 -0.00000000000E+00 -0.00000000000E+00 -0.45593999997E+02  0.45594000000E+02  0.51100000000E-03 0.  1.
    9900012    2    1    2    0    0  0.43410525976E+02  0.11460397174E+01  0.11971893715E+02  0.46142318612E+02  0.10000007762E+02 0.  0.
        -12    1    1    2    0    0 -0.43410525976E+02 -0.11460397174E+01 -0.11971893715E+02  0.45045681388E+02  0.00000000000E+00 0.  1.
         11    1    3    3    0    0  0.21348894613E+02 -0.98592072594E+00  0.55264090440E+01  0.22074612976E+02  0.51100000000E-03 0. -1.
        -11    1    3    3    0    0  0.15699905584E+02 -0.16033214886E+01  0.49573398624E+01  0.16541852796E+02  0.51100000000E-03 0.  1.
        -12    1    3    3    0    0  0.63617257790E+01  0.37352819320E+01  0.14881448087E+01  0.75258528400E+01  0.00000000000E+00 0.  1.
</event>
<event>
 7    1  0.3919732E-008  0.4614232E+02  0.7816164E-02  0.1320468E+00
        -11   -1    0    0    0    0  0.00000000000E+00  0.00000000000E+00  0.45593999997E+02  0.45594000000E+02  0.51100000000E-03 0. -1.
         11   -1    0    0    0    0 -0.00000000000E+00 -0.00000000000E+00 -0.45593999997E+02  0.45594000000E+02  0.51100000000E-03 0.  1.
    9900012    2    1    2    0    0  0.20624549918E+02 -0.49093524862E+00  0.40043728669E+02  0.46142320047E+02  0.10000020843E+02 0.  0.
        -12    1    1    2    0    0 -0.20624549918E+02  0.49093524862E+00 -0.40043728669E+02  0.45045679953E+02  0.00000000000E+00 0.  1.
         11    1    3    3    0    0  0.17454865401E+02  0.10960385078E+01  0.30591303661E+02  0.35237784926E+02  0.51100000000E-03 0. -1.
        -11    1    3    3    0    0  0.11018619453E+01 -0.14888772037E+01  0.83621422015E+01  0.85648279337E+01  0.51100000000E-03 0.  1.
        -12    1    3    3    0    0  0.20678225720E+01 -0.98096552653E-01  0.10902828065E+01  0.23397071870E+01  0.00000000000E+00 0.  1.
</event>
<event>
 7    1  0.3919732E-008  0.4614232E+02  0.7816164E-02  0.1320468E+00
        -11   -1    0    0    0    0  0.00000000000E+00  0.00000000000E+00  0.45593999997E+02  0.45594000000E+02  0.51100000000E-03 0.  1.
         11   -1    0    0    0    0 -0.00000000000E+00 -0.00000000000E+00 -0.45593999997E+02  0.45594000000E+02  0.51100000000E-03 0. -1.
    9900012    2    1    2    0    0 -0.58007947587E+01  0.18927322620E+01 -0.44630503089E+02  0.46142318063E+02  0.10000002749E+02 0.  0.
        -12    1    1    2    0    0  0.58007947587E+01 -0.18927322620E+01  0.44630503089E+02  0.45045681937E+02  0.00000000000E+00 0.  1.
         11    1    3    3    0    0  0.24060277231E-01 -0.14214096578E+00 -0.88250206752E-01  0.16903050377E+00  0.51100000000E-03 0. -1.
        -11    1    3    3    0    0 -0.30051115482E+00 -0.19668714720E+01 -0.17779061296E+01  0.26683029829E+01  0.51100000000E-03 0.  1.
         12    1    3    3    0    0 -0.55243438811E+01  0.40017446998E+01 -0.42764346752E+02  0.43304984576E+02  0.00000000000E+00 0. -1.
</event>
<event>
 7    1  0.3919732E-008  0.4614232E+02  0.7816164E-02  0.1320468E+00
        -11   -1    0    0    0    0  0.00000000000E+00  0.00000000000E+00  0.45593999997E+02  0.45594000000E+02  0.51100000000E-03 0.  1.
         11   -1    0    0    0    0 -0.00000000000E+00 -0.00000000000E+00 -0.45593999997E+02  0.45594000000E+02  0.51100000000E-03 0. -1.
    9900012    2    1    2    0    0 -0.24525311508E+02  0.37398501971E+02 -0.53828077484E+01  0.46142317926E+02  0.10000001505E+02 0.  0.
        -12    1    1    2    0    0  0.24525311508E+02 -0.37398501971E+02  0.53828077484E+01  0.45045682074E+02  0.00000000000E+00 0.  1.
         11    1    3    3    0    0 -0.16084346107E+00  0.44012325511E+01  0.44354973024E+00  0.44264495041E+01  0.51100000000E-03 0. -1.
        -11    1    3    3    0    0 -0.36051370264E+01  0.65468971855E+01 -0.27009317508E+01  0.79469433319E+01  0.51100000000E-03 0.  1.
         12    1    3    3    0    0 -0.20759331021E+02  0.26450372234E+02 -0.31254257278E+01  0.33768925090E+02  0.00000000000E+00 0. -1.
</event>
<event>
 7    1  0.3919732E-008  0.4614232E+02  0.7816164E-02  0.1320468E+00
        -11   -1    0    0    0    0  0.00000000000E+00  0.00000000000E+00  0.45593999997E+02  0.45594000000E+02  0.51100000000E-03 0.  1.
         11   -1    0    0    0    0 -0.00000000000E+00 -0.00000000000E+00 -0.45593999997E+02  0.45594000000E+02  0.51100000000E-03 0. -1.
    9900012    2    1    2    0    0  0.54755230236E+01  0.14819143590E+02 -0.42184418425E+02  0.46142317332E+02  0.99999960893E+01 0.  0.
        -12    1    1    2    0    0 -0.54755230236E+01 -0.14819143590E+02  0.42184418425E+02  0.45045682668E+02  0.00000000000E+00 0.  1.
         11    1    3    3    0    0  0.76846640498E+00  0.60578251675E+01 -0.20344457929E+02  0.21241110024E+02  0.51100000000E-03 0. -1.
        -11    1    3    3    0    0  0.29291107052E+01  0.95701616061E+01 -0.18219890222E+02  0.20787786863E+02  0.51100000000E-03 0.  1.
        -12    1    3    3    0    0  0.17779459134E+01 -0.80884318400E+00 -0.36200702750E+01  0.41134204457E+01  0.00000000000E+00 0.  1.
</event>
<event>
 7    1  0.3919732E-008  0.4614232E+02  0.7816164E-02  0.1320468E+00
        -11   -1    0    0    0    0  0.00000000000E+00  0.00000000000E+00  0.45593999997E+02  0.45594000000E+02  0.51100000000E-03 0.  1.
         11   -1    0    0    0    0 -0.00000000000E+00 -0.00000000000E+00 -0.45593999997E+02  0.45594000000E+02  0.51100000000E-03 0. -1.
    9900012    2    1    2    0    0  0.37654880901E+02  0.23828555391E+02  0.65896370945E+01  0.46142318468E+02  0.10000006444E+02 0.  0.
        -12    1    1    2    0    0 -0.37654880901E+02 -0.23828555391E+02 -0.65896370945E+01  0.45045681532E+02  0.00000000000E+00 0.  1.
         11    1    3    3    0    0  0.26910190066E+02  0.15434585033E+02  0.37894777374E+01  0.31252918045E+02  0.51100000000E-03 0. -1.
        -11    1    3    3    0    0  0.76186792300E+01  0.41716401295E+01 -0.47423235055E+00  0.86989511530E+01  0.51100000000E-03 0.  1.
        -12    1    3    3    0    0  0.31260116050E+01  0.42223302285E+01  0.32743917077E+01  0.61904492703E+01  0.00000000000E+00 0.  1.
</event>
<event>
 7    1  0.3919732E-008  0.4614232E+02  0.7816164E-02  0.1320468E+00
        -11   -1    0    0    0    0  0.00000000000E+00  0.00000000000E+00  0.45593999997E+02  0.45594000000E+02  0.51100000000E-03 0.  1.
         11   -1    0    0    0    0 -0.00000000000E+00 -0.00000000000E+00 -0.45593999997E+02  0.45594000000E+02  0.51100000000E-03 0. -1.
    9900012    2    1    2    0    0  0.16484380639E+02 -0.25309612684E+01 -0.41844628972E+02  0.46142317146E+02  0.99999943871E+01 0.  0.
        -12    1    1    2    0    0 -0.16484380639E+02  0.25309612684E+01  0.41844628972E+02  0.45045682854E+02  0.00000000000E+00 0.  1.
         11    1    3    3    0    0  0.13636405240E+02 -0.23874128275E+01 -0.33704833627E+02  0.36437166437E+02  0.51100000000E-03 0. -1.
        -11    1    3    3    0    0  0.40139792963E+01 -0.22077772243E+00 -0.70032385351E+01  0.80750308256E+01  0.51100000000E-03 0.  1.
        -12    1    3    3    0    0 -0.11660038972E+01  0.77229281524E-01 -0.11365568105E+01  0.16301198833E+01  0.00000000000E+00 0.  1.
</event>
<event>
 7    1  0.3919732E-008  0.4614232E+02  0.7816164E-02  0.1320468E+00
        -11   -1    0    0    0    0  0.00000000000E+00  0.00000000000E+00  0.45593999997E+02  0.45594000000E+02  0.51100000000E-03 0.  1.
         11   -1    0    0    0    0 -0.00000000000E+00 -0.00000000000E+00 -0.45593999997E+02  0.45594000000E+02  0.51100000000E-03 0. -1.
    9900012    2    1    2    0    0 -0.31789557960E+02  0.13976870153E+02 -0.28691193714E+02  0.46142317729E+02  0.99999997044E+01 0.  0.
        -12    1    1    2    0    0  0.31789557960E+02 -0.13976870153E+02  0.28691193714E+02  0.45045682271E+02  0.00000000000E+00 0.  1.
         11    1    3    3    0    0 -0.20332901209E+02  0.98329189067E+01 -0.16708745691E+02  0.28094400663E+02  0.51100000000E-03 0. -1.
        -11    1    3    3    0    0 -0.10364108234E+02  0.25810417697E+01 -0.71503859570E+01  0.12853191654E+02  0.51100000000E-03 0.  1.
        -12    1    3    3    0    0 -0.10925485172E+01  0.15629094769E+01 -0.48320620652E+01  0.51947254112E+01  0.00000000000E+00 0.  1.
</event>
<event>
 7    1  0.3919732E-008  0.4614232E+02  0.7816164E-02  0.1320468E+00
        -11   -1    0    0    0    0  0.00000000000E+00  0.00000000000E+00  0.45593999997E+02  0.45594000000E+02  0.51100000000E-03 0.  1.
         11   -1    0    0    0    0 -0.00000000000E+00 -0.00000000000E+00 -0.45593999997E+02  0.45594000000E+02  0.51100000000E-03 0. -1.
    9900012    2    1    2    0    0 -0.37072685154E+02 -0.22636445167E+02 -0.11929829652E+02  0.46142317967E+02  0.10000001874E+02 0.  0.
        -12    1    1    2    0    0  0.37072685154E+02  0.22636445167E+02  0.11929829652E+02  0.45045682033E+02  0.00000000000E+00 0.  1.
         11    1    3    3    0    0 -0.27210521913E+01 -0.16200701422E+01  0.69211233347E+00  0.32415693786E+01  0.51100000000E-03 0. -1.
        -11    1    3    3    0    0 -0.71411275864E+01 -0.42200124717E+01  0.55903609808E+00  0.83136472193E+01  0.51100000000E-03 0.  1.
         12    1    3    3    0    0 -0.27210505376E+02 -0.16796362554E+02 -0.13180978084E+02  0.34587101369E+02  0.00000000000E+00 0. -1.
</event>
<event>
 7    1  0.3919732E-008  0.4614232E+02  0.7816164E-02  0.1320468E+00
        -11   -1    0    0    0    0  0.00000000000E+00  0.00000000000E+00  0.45593999997E+02  0.45594000000E+02  0.51100000000E-03 0.  1.
         11   -1    0    0    0    0 -0.00000000000E+00 -0.00000000000E+00 -0.45593999997E+02  0.45594000000E+02  0.51100000000E-03 0. -1.
    9900012    2    1    2    0    0 -0.26669714615E+02 -0.16037121567E+02 -0.32567629425E+02  0.46142318385E+02  0.10000005689E+02 0.  0.
        -12    1    1    2    0    0  0.26669714615E+02  0.16037121567E+02  0.32567629425E+02  0.45045681615E+02  0.00000000000E+00 0.  1.
         11    1    3    3    0    0 -0.13820433144E+02 -0.10213859346E+02 -0.17348490275E+02  0.24419201668E+02  0.51100000000E-03 0. -1.
        -11    1    3    3    0    0 -0.50510571030E+01 -0.26277294375E+01 -0.10795882901E+02  0.12205295069E+02  0.51100000000E-03 0.  1.
        -12    1    3    3    0    0 -0.77982243687E+01 -0.31955327837E+01 -0.44232562485E+01  0.95178216477E+01  0.00000000000E+00 0.  1.
</event>
<event>
 7    1  0.3919732E-008  0.4614232E+02  0.7816164E-02  0.1320468E+00
        -11   -1    0    0    0    0  0.00000000000E+00  0.00000000000E+00  0.45593999997E+02  0.45594000000E+02  0.51100000000E-03 0.  1.
         11   -1    0    0    0    0 -0.00000000000E+00 -0.00000000000E+00 -0.45593999997E+02  0.45594000000E+02  0.51100000000E-03 0. -1.
    9900012    2    1    2    0    0  0.13000759540E+02 -0.41831337452E+02 -0.10499184510E+02  0.46142318553E+02  0.10000007224E+02 0.  0.
        -12    1    1    2    0    0 -0.13000759540E+02  0.41831337452E+02  0.10499184510E+02  0.45045681447E+02  0.00000000000E+00 0.  1.
         11    1    3    3    0    0 -0.58945652202E-01 -0.10898670178E+01 -0.13352406369E+01  0.17245731431E+01  0.51100000000E-03 0. -1.
        -11    1    3    3    0    0  0.30714217533E+01 -0.57662327147E+01 -0.40494096541E+01  0.76864029373E+01  0.51100000000E-03 0.  1.
         12    1    3    3    0    0  0.99882834385E+01 -0.34975237720E+02 -0.51145342187E+01  0.36731342473E+02  0.00000000000E+00 0. -1.
</event>
<event>
 7    1  0.3919732E-008  0.4614232E+02  0.7816164E-02  0.1320468E+00
        -11   -1    0    0    0    0  0.00000000000E+00  0.00000000000E+00  0.45593999997E+02  0.45594000000E+02  0.51100000000E-03 0.  1.
         11   -1    0    0    0    0 -0.00000000000E+00 -0.00000000000E+00 -0.45593999997E+02  0.45594000000E+02  0.51100000000E-03 0. -1.
    9900012    2    1    2    0    0  0.18269540461E+02 -0.98201553461E+01 -0.39986271451E+02  0.46142318029E+02  0.10000002446E+02 0.  0.
        -12    1    1    2    0    0 -0.18269540461E+02  0.98201553461E+01  0.39986271451E+02  0.45045681971E+02  0.00000000000E+00 0.  1.
         11    1    3    3    0    0  0.10124947543E+01 -0.26375233191E+00 -0.70506787246E+01  0.71278876014E+01  0.51100000000E-03 0. -1.
        -11    1    3    3    0    0  0.11973234012E+02 -0.52855262574E+01 -0.15409321271E+02  0.20217376259E+02  0.51100000000E-03 0.  1.
        -12    1    3    3    0    0  0.52838116948E+01 -0.42708767568E+01 -0.17526271455E+02  0.18797054169E+02  0.00000000000E+00 0.  1.
</event>
<event>
 7    1  0.3919732E-008  0.4614232E+02  0.7816164E-02  0.1320468E+00
        -11   -1    0    0    0    0  0.00000000000E+00  0.00000000000E+00  0.45593999997E+02  0.45594000000E+02  0.51100000000E-03 0.  1.
         11   -1    0    0    0    0 -0.00000000000E+00 -0.00000000000E+00 -0.45593999997E+02  0.45594000000E+02  0.51100000000E-03 0. -1.
    9900012    2    1    2    0    0 -0.44231881731E+02 -0.38613900104E+01 -0.75989103432E+01  0.46142321709E+02  0.10000036000E+02 0.  0.
        -12    1    1    2    0    0  0.44231881731E+02  0.38613900104E+01  0.75989103432E+01  0.45045678291E+02  0.00000000000E+00 0.  1.
         11    1    3    3    0    0 -0.13843381232E+02 -0.26967286737E+01 -0.28685303504E+01  0.14392359643E+02  0.51100000000E-03 0. -1.
        -11    1    3    3    0    0 -0.57520518090E+01 -0.17119114936E+01  0.17839600862E+01  0.62609308274E+01  0.51100000000E-03 0.  1.
         12    1    3    3    0    0 -0.24636448690E+02  0.54725015691E+00 -0.65143400789E+01  0.25489031238E+02  0.00000000000E+00 0. -1.
</event>
<event>
 7    1  0.3919732E-008  0.4614232E+02  0.7816164E-02  0.1320468E+00
        -11   -1    0    0    0    0  0.00000000000E+00  0.00000000000E+00  0.45593999997E+02  0.45594000000E+02  0.51100000000E-03 0.  1.
         11   -1    0    0    0    0 -0.00000000000E+00 -0.00000000000E+00 -0.45593999997E+02  0.45594000000E+02  0.51100000000E-03 0. -1.
    9900012    2    1    2    0    0  0.21712146121E+02  0.29643640356E+02 -0.26056680331E+02  0.46142319934E+02  0.10000019818E+02 0.  0.
        -12    1    1    2    0    0 -0.21712146121E+02 -0.29643640356E+02  0.26056680331E+02  0.45045680066E+02  0.00000000000E+00 0.  1.
         11    1    3    3    0    0  0.18596765888E+02  0.21126912199E+02 -0.17022268218E+02  0.32892913159E+02  0.51100000000E-03 0. -1.
        -11    1    3    3    0    0  0.34102068562E+01  0.46374261099E+01 -0.60067817930E+01  0.83196550107E+01  0.51100000000E-03 0.  1.
         12    1    3    3    0    0 -0.29482662303E+00  0.38793020468E+01 -0.30276303196E+01  0.49297517646E+01  0.00000000000E+00 0. -1.
</event>
<event>
 7    1  0.3919732E-008  0.4614232E+02  0.7816164E-02  0.1320468E+00
        -11   -1    0    0    0    0  0.00000000000E+00  0.00000000000E+00  0.45593999997E+02  0.45594000000E+02  0.51100000000E-03 0.  1.
         11   -1    0    0    0    0 -0.00000000000E+00 -0.00000000000E+00 -0.45593999997E+02  0.45594000000E+02  0.51100000000E-03 0. -1.
    9900012    2    1    2    0    0 -0.19732218970E+02 -0.25930977573E+02 -0.31102047963E+02  0.46142318178E+02  0.10000003798E+02 0.  0.
        -12    1    1    2    0    0  0.19732218970E+02  0.25930977573E+02  0.31102047963E+02  0.45045681822E+02  0.00000000000E+00 0.  1.
         11    1    3    3    0    0 -0.12045741106E+02 -0.21424527943E+02 -0.22283217237E+02  0.33176076427E+02  0.51100000000E-03 0. -1.
        -11    1    3    3    0    0 -0.16883018639E+00 -0.11443222457E+00 -0.17210861886E+01  0.17331290476E+01  0.51100000000E-03 0.  1.
        -12    1    3    3    0    0 -0.75176476773E+01 -0.43920174049E+01 -0.70977445371E+01  0.11233112703E+02  0.00000000000E+00 0.  1.
</event>
<event>
 7    1  0.3919732E-008  0.4614232E+02  0.7816164E-02  0.1320468E+00
        -11   -1    0    0    0    0  0.00000000000E+00  0.00000000000E+00  0.45593999997E+02  0.45594000000E+02  0.51100000000E-03 0.  1.
         11   -1    0    0    0    0 -0.00000000000E+00 -0.00000000000E+00 -0.45593999997E+02  0.45594000000E+02  0.51100000000E-03 0. -1.
    9900012    2    1    2    0    0  0.18789246997E+02  0.17033786839E+02 -0.37228049283E+02  0.46142319295E+02  0.10000013988E+02 0.  0.
        -12    1    1    2    0    0 -0.18789246997E+02 -0.17033786839E+02  0.37228049283E+02  0.45045680705E+02  0.00000000000E+00 0.  1.
         11    1    3    3    0    0  0.70910097252E+01  0.61926897099E+01 -0.19212629318E+02  0.21395255323E+02  0.51100000000E-03 0. -1.
        -11    1    3    3    0    0  0.63458312530E+01  0.76520709182E+01 -0.14538147511E+02  0.17611970274E+02  0.51100000000E-03 0.  1.
        -12    1    3    3    0    0  0.53524060187E+01  0.31890262105E+01 -0.34772724540E+01  0.71350936980E+01  0.00000000000E+00 0.  1.
</event>
<event>
 7    1  0.3919732E-008  0.4614232E+02  0.7816164E-02  0.1320468E+00
        -11   -1    0    0    0    0  0.00000000000E+00  0.00000000000E+00  0.45593999997E+02  0.45594000000E+02  0.51100000000E-03 0.  1.
         11   -1    0    0    0    0 -0.00000000000E+00 -0.00000000000E+00 -0.45593999997E+02  0.45594000000E+02  0.51100000000E-03 0. -1.
    9900012    2    1    2    0    0 -0.14357019304E+02 -0.15140574127E+02 -0.39921830188E+02  0.46142317479E+02  0.99999974278E+01 0.  0.
        -12    1    1    2    0    0  0.14357019304E+02  0.15140574127E+02  0.39921830188E+02  0.45045682521E+02  0.00000000000E+00 0.  1.
         11    1    3    3    0    0 -0.42872602900E+01 -0.31993353128E+01 -0.54451185643E+01  0.76331948540E+01  0.51100000000E-03 0. -1.
        -11    1    3    3    0    0 -0.17873380855E+01 -0.72339075882E+01 -0.12433709233E+02  0.14495555249E+02  0.51100000000E-03 0.  1.
        -12    1    3    3    0    0 -0.82824209287E+01 -0.47073312257E+01 -0.22043002391E+02  0.24013567376E+02  0.00000000000E+00 0.  1.
</event>
<event>
 7    1  0.3919732E-008  0.4614232E+02  0.7816164E-02  0.1320468E+00
        -11   -1    0    0    0    0  0.00000000000E+00  0.00000000000E+00  0.45593999997E+02  0.45594000000E+02  0.51100000000E-03 0.  1.
         11   -1    0    0    0    0 -0.00000000000E+00 -0.00000000000E+00 -0.45593999997E+02  0.45594000000E+02  0.51100000000E-03 0. -1.
    9900012    2    1    2    0    0 -0.37211399127E+02 -0.11718105887E+02 -0.22519130956E+02  0.46142317748E+02  0.99999998792E+01 0.  0.
        -12    1    1    2    0    0  0.37211399127E+02  0.11718105887E+02  0.22519130956E+02  0.45045682252E+02  0.00000000000E+00 0.  1.
         11    1    3    3    0    0 -0.19217974310E+02 -0.27127020159E+01 -0.10131125493E+02  0.21893583370E+02  0.51100000000E-03 0. -1.
        -11    1    3    3    0    0 -0.13513064521E+02 -0.42004259467E+01 -0.71981287528E+01  0.15876383363E+02  0.51100000000E-03 0.  1.
        -12    1    3    3    0    0 -0.44803602959E+01 -0.48049779246E+01 -0.51898767103E+01  0.83723510142E+01  0.00000000000E+00 0.  1.
</event>
<event>
 7    1  0.3919732E-008  0.4614232E+02  0.7816164E-02  0.1320468E+00
        -11   -1    0    0    0    0  0.00000000000E+00  0.00000000000E+00  0.45593999997E+02  0.45594000000E+02  0.51100000000E-03 0.  1.
         11   -1    0    0    0    0 -0.00000000000E+00 -0.00000000000E+00 -0.45593999997E+02  0.45594000000E+02  0.51100000000E-03 0. -1.
    9900012    2    1    2    0    0 -0.38462698804E+02 -0.18830169684E+02  0.13969936402E+02  0.46142316381E+02  0.99999874121E+01 0.  0.
        -12    1    1    2    0    0  0.38462698804E+02  0.18830169684E+02 -0.13969936402E+02  0.45045683619E+02  0.00000000000E+00 0.  1.
         11    1    3    3    0    0 -0.67803159297E+01 -0.26100997029E+00  0.22180330410E+01  0.71386610189E+01  0.51100000000E-03 0. -1.
        -11    1    3    3    0    0 -0.36812641157E+01 -0.28104704405E+01 -0.40644148250E+00  0.46492627939E+01  0.51100000000E-03 0.  1.
        -12    1    3    3    0    0 -0.28001118759E+02 -0.15758689274E+02  0.12158344844E+02  0.34354392568E+02  0.00000000000E+00 0.  1.
</event>
<event>
 7    1  0.3919732E-008  0.4614232E+02  0.7816164E-02  0.1320468E+00
        -11   -1    0    0    0    0  0.00000000000E+00  0.00000000000E+00  0.45593999997E+02  0.45594000000E+02  0.51100000000E-03 0.  1.
         11   -1    0    0    0    0 -0.00000000000E+00 -0.00000000000E+00 -0.45593999997E+02  0.45594000000E+02  0.51100000000E-03 0. -1.
    9900012    2    1    2    0    0  0.13654531682E+02 -0.33414841522E+02 -0.26946530164E+02  0.46142319217E+02  0.10000013272E+02 0.  0.
        -12    1    1    2    0    0 -0.13654531682E+02  0.33414841522E+02  0.26946530164E+02  0.45045680783E+02  0.00000000000E+00 0.  1.
         11    1    3    3    0    0  0.35365929792E+01 -0.15563296312E+02 -0.10101575777E+02  0.18888237488E+02  0.51100000000E-03 0. -1.
        -11    1    3    3    0    0  0.75512505211E+00 -0.58026714182E+00  0.47446704978E+00  0.10639751137E+01  0.51100000000E-03 0.  1.
         12    1    3    3    0    0  0.93628136504E+01 -0.17271278069E+02 -0.17319421437E+02  0.26190106615E+02  0.00000000000E+00 0. -1.
</event>
<event>
 7    1  0.3919732E-008  0.4614232E+02  0.7816164E-02  0.1320468E+00
        -11   -1    0    0    0    0  0.00000000000E+00  0.00000000000E+00  0.45593999997E+02  0.45594000000E+02  0.51100000000E-03 0. -1.
         11   -1    0    0    0    0 -0.00000000000E+00 -0.00000000000E+00 -0.45593999997E+02  0.45594000000E+02  0.51100000000E-03 0.  1.
    9900012    2    1    2    0    0 -0.26300902950E+02  0.31239959616E+02  0.19011595012E+02  0.46142319655E+02  0.10000017272E+02 0.  0.
        -12    1    1    2    0    0  0.26300902950E+02 -0.31239959616E+02 -0.19011595012E+02  0.45045680345E+02  0.00000000000E+00 0.  1.
         11    1    3    3    0    0 -0.20996454832E+01  0.81469287792E+01  0.32897202015E+01  0.90334500029E+01  0.51100000000E-03 0. -1.
        -11    1    3    3    0    0 -0.49114386133E+01  0.32149552099E+01  0.20351330116E+01  0.62128844259E+01  0.51100000000E-03 0.  1.
         12    1    3    3    0    0 -0.19289818854E+02  0.19878075627E+02  0.13686741799E+02  0.30895985226E+02  0.00000000000E+00 0. -1.
</event>
<event>
 7    1  0.3919732E-008  0.4614232E+02  0.7816164E-02  0.1320468E+00
        -11   -1    0    0    0    0  0.00000000000E+00  0.00000000000E+00  0.45593999997E+02  0.45594000000E+02  0.51100000000E-03 0.  1.
         11   -1    0    0    0    0 -0.00000000000E+00 -0.00000000000E+00 -0.45593999997E+02  0.45594000000E+02  0.51100000000E-03 0. -1.
    9900012    2    1    2    0    0  0.42883768224E+02 -0.75046095462E+01 -0.11566190441E+02  0.46142317600E+02  0.99999985330E+01 0.  0.
        -12    1    1    2    0    0 -0.42883768224E+02  0.75046095462E+01  0.11566190441E+02  0.45045682400E+02  0.00000000000E+00 0.  1.
         11    1    3    3    0    0  0.80497933165E+01 -0.14989772121E+01 -0.29704378473E+01  0.87103160899E+01  0.51100000000E-03 0. -1.
        -11    1    3    3    0    0  0.95090657090E+01 -0.34446103160E+01 -0.62059695126E+01  0.11865990424E+02  0.51100000000E-03 0.  1.
         12    1    3    3    0    0  0.25324909199E+02 -0.25610220181E+01 -0.23897830811E+01  0.25566011086E+02  0.00000000000E+00 0. -1.
</event>
<event>
 7    1  0.3919732E-008  0.4614232E+02  0.7816164E-02  0.1320468E+00
        -11   -1    0    0    0    0  0.00000000000E+00  0.00000000000E+00  0.45593999997E+02  0.45594000000E+02  0.51100000000E-03 0.  1.
         11   -1    0    0    0    0 -0.00000000000E+00 -0.00000000000E+00 -0.45593999997E+02  0.45594000000E+02  0.51100000000E-03 0. -1.
    9900012    2    1    2    0    0 -0.20017323806E+02 -0.32995252311E+01 -0.40218570596E+02  0.46142317190E+02  0.99999947878E+01 0.  0.
        -12    1    1    2    0    0  0.20017323806E+02  0.32995252311E+01  0.40218570596E+02  0.45045682810E+02  0.00000000000E+00 0.  1.
         11    1    3    3    0    0 -0.54236719943E+01 -0.19812588886E+00 -0.98597592767E+01  0.11254791203E+02  0.51100000000E-03 0. -1.
        -11    1    3    3    0    0 -0.14267659523E+02 -0.47849707559E+01 -0.29098048924E+02  0.32759098047E+02  0.51100000000E-03 0.  1.
        -12    1    3    3    0    0 -0.32599228826E+00  0.16835714136E+01 -0.12607623952E+01  0.21284279396E+01  0.00000000000E+00 0.  1.
</event>
<event>
 7    1  0.3919732E-008  0.4614232E+02  0.7816164E-02  0.1320468E+00
        -11   -1    0    0    0    0  0.00000000000E+00  0.00000000000E+00  0.45593999997E+02  0.45594000000E+02  0.51100000000E-03 0. -1.
         11   -1    0    0    0    0 -0.00000000000E+00 -0.00000000000E+00 -0.45593999997E+02  0.45594000000E+02  0.51100000000E-03 0.  1.
    9900012    2    1    2    0    0 -0.23322786338E+01  0.44023008923E+02  0.92546574158E+01  0.46142317386E+02  0.99999965827E+01 0.  0.
        -12    1    1    2    0    0  0.23322786338E+01 -0.44023008923E+02 -0.92546574158E+01  0.45045682614E+02  0.00000000000E+00 0.  1.
         11    1    3    3    0    0 -0.17758009710E+01  0.24401283156E+02  0.16979363894E+01  0.24524662628E+02  0.51100000000E-03 0. -1.
        -11    1    3    3    0    0  0.15674937295E+01  0.15469643272E+02  0.63859850112E+01  0.16809155373E+02  0.51100000000E-03 0.  1.
        -12    1    3    3    0    0 -0.21239713923E+01  0.41520824950E+01  0.11707360152E+01  0.48084993853E+01  0.00000000000E+00 0.  1.
</event>
<event>
 7    1  0.3919732E-008  0.4614232E+02  0.7816164E-02  0.1320468E+00
        -11   -1    0    0    0    0  0.00000000000E+00  0.00000000000E+00  0.45593999997E+02  0.45594000000E+02  0.51100000000E-03 0.  1.
         11   -1    0    0    0    0 -0.00000000000E+00 -0.00000000000E+00 -0.45593999997E+02  0.45594000000E+02  0.51100000000E-03 0. -1.
    9900012    2    1    2    0    0 -0.66422610459E+01  0.42888379583E+02 -0.12065680377E+02  0.46142318986E+02  0.10000011172E+02 0.  0.
        -12    1    1    2    0    0  0.66422610459E+01 -0.42888379583E+02  0.12065680377E+02  0.45045681014E+02  0.00000000000E+00 0.  1.
         11    1    3    3    0    0 -0.41789993203E+00  0.72166042104E+01 -0.11027143050E+01  0.73123180854E+01  0.51100000000E-03 0.  1.
        -11    1    3    3    0    0 -0.23092866120E+01  0.14324839065E+01 -0.19487713623E+00  0.27244801629E+01  0.51100000000E-03 0. -1.
         12    1    3    3    0    0 -0.39150745019E+01  0.34239291466E+02 -0.10768088935E+02  0.36105520738E+02  0.00000000000E+00 0. -1.
</event>
<event>
 7    1  0.3919732E-008  0.4614232E+02  0.7816164E-02  0.1320468E+00
        -11   -1    0    0    0    0  0.00000000000E+00  0.00000000000E+00  0.45593999997E+02  0.45594000000E+02  0.51100000000E-03 0.  1.
         11   -1    0    0    0    0 -0.00000000000E+00 -0.00000000000E+00 -0.45593999997E+02  0.45594000000E+02  0.51100000000E-03 0. -1.
    9900012    2    1    2    0    0 -0.95969112574E+01  0.43994402403E+00 -0.44009309045E+02  0.46142317199E+02  0.99999948712E+01 0.  0.
        -12    1    1    2    0    0  0.95969112574E+01 -0.43994402403E+00  0.44009309045E+02  0.45045682801E+02  0.00000000000E+00 0.  1.
         11    1    3    3    0    0 -0.57071135437E+01  0.36447387523E+01 -0.19116159957E+02  0.20280109401E+02  0.51100000000E-03 0. -1.
        -11    1    3    3    0    0 -0.33120350296E+01 -0.29137966052E+01 -0.97076804873E+01  0.10662966163E+02  0.51100000000E-03 0.  1.
        -12    1    3    3    0    0 -0.57776268416E+00 -0.29099812314E+00 -0.15185468601E+02  0.15199241634E+02  0.00000000000E+00 0.  1.
</event>
<event>
 7    1  0.3919732E-008  0.4614232E+02  0.7816164E-02  0.1320468E+00
        -11   -1    0    0    0    0  0.00000000000E+00  0.00000000000E+00  0.45593999997E+02  0.45594000000E+02  0.51100000000E-03 0.  1.
         11   -1    0    0    0    0 -0.00000000000E+00 -0.00000000000E+00 -0.45593999997E+02  0.45594000000E+02  0.51100000000E-03 0. -1.
    9900012    2    1    2    0    0  0.44344875528E+02 -0.83083565472E+00  0.78711645386E+01  0.46142317580E+02  0.99999983502E+01 0.  0.
        -12    1    1    2    0    0 -0.44344875528E+02  0.83083565472E+00 -0.78711645386E+01  0.45045682420E+02  0.00000000000E+00 0.  1.
         11    1    3    3    0    0  0.19659706765E+02 -0.29481045814E+01  0.14100968273E+01  0.19929469738E+02  0.51100000000E-03 0. -1.
        -11    1    3    3    0    0  0.23260935649E+02  0.26383001350E+01  0.46794716875E+01  0.23873190202E+02  0.51100000000E-03 0.  1.
         12    1    3    3    0    0  0.14242331136E+01 -0.52103120829E+00  0.17815960238E+01  0.23396576403E+01  0.00000000000E+00 0. -1.
</event>
<event>
 7    1  0.3919732E-008  0.4614232E+02  0.7816164E-02  0.1320468E+00
        -11   -1    0    0    0    0  0.00000000000E+00  0.00000000000E+00  0.45593999997E+02  0.45594000000E+02  0.51100000000E-03 0.  1.
         11   -1    0    0    0    0 -0.00000000000E+00 -0.00000000000E+00 -0.45593999997E+02  0.45594000000E+02  0.51100000000E-03 0. -1.
    9900012    2    1    2    0    0 -0.30822111943E+02 -0.32100490475E+02 -0.69763485102E+01  0.46142317500E+02  0.99999976224E+01 0.  0.
        -12    1    1    2    0    0  0.30822111943E+02  0.32100490475E+02  0.69763485102E+01  0.45045682500E+02  0.00000000000E+00 0.  1.
         11    1    3    3    0    0 -0.10227966005E+02 -0.13063259700E+02 -0.47775689648E+00  0.16597840055E+02  0.51100000000E-03 0. -1.
        -11    1    3    3    0    0 -0.48066810856E+00 -0.26918838017E+01  0.29764347366E+00  0.27506130464E+01  0.51100000000E-03 0.  1.
        -12    1    3    3    0    0 -0.20113477829E+02 -0.16345346973E+02 -0.67962350874E+01  0.26793864399E+02  0.00000000000E+00 0.  1.
</event>
<event>
 7    1  0.3919732E-008  0.4614232E+02  0.7816164E-02  0.1320468E+00
        -11   -1    0    0    0    0  0.00000000000E+00  0.00000000000E+00  0.45593999997E+02  0.45594000000E+02  0.51100000000E-03 0. -1.
         11   -1    0    0    0    0 -0.00000000000E+00 -0.00000000000E+00 -0.45593999997E+02  0.45594000000E+02  0.51100000000E-03 0.  1.
    9900012    2    1    2    0    0 -0.34872798128E+02  0.21740506732E+02  0.18448626396E+02  0.46142317653E+02  0.99999990168E+01 0.  0.
        -12    1    1    2    0    0  0.34872798128E+02 -0.21740506732E+02 -0.18448626396E+02  0.45045682347E+02  0.00000000000E+00 0.  1.
         11    1    3    3    0    0 -0.22475768648E+01  0.35711404855E+01  0.12826758405E+01  0.44102044968E+01  0.51100000000E-03 0. -1.
        -11    1    3    3    0    0 -0.15096184375E+01  0.26677357452E+01  0.26063437092E+00  0.30763114878E+01  0.51100000000E-03 0.  1.
        -12    1    3    3    0    0 -0.31115602825E+02  0.15501630501E+02  0.16905316184E+02  0.38655801669E+02  0.00000000000E+00 0.  1.
</event>
<event>
 7    1  0.3919732E-008  0.4614232E+02  0.7816164E-02  0.1320468E+00
        -11   -1    0    0    0    0  0.00000000000E+00  0.00000000000E+00  0.45593999997E+02  0.45594000000E+02  0.51100000000E-03 0.  1.
         11   -1    0    0    0    0 -0.00000000000E+00 -0.00000000000E+00 -0.45593999997E+02  0.45594000000E+02  0.51100000000E-03 0. -1.
    9900012    2    1    2    0    0 -0.31341832816E+01 -0.38074157507E+02 -0.23867319071E+02  0.46142317695E+02  0.99999993941E+01 0.  0.
        -12    1    1    2    0    0  0.31341832816E+01  0.38074157507E+02  0.23867319071E+02  0.45045682305E+02  0.00000000000E+00 0.  1.
         11    1    3    3    0    0 -0.49635961159E+00 -0.23757703432E+02 -0.16923580497E+02  0.29173316958E+02  0.51100000000E-03 0. -1.
        -11    1    3    3    0    0 -0.92168188359E+00 -0.13583021188E+02 -0.60022762254E+01  0.14878685501E+02  0.51100000000E-03 0.  1.
         12    1    3    3    0    0 -0.17161417864E+01 -0.73343288699E+00 -0.94146234803E+00  0.20903152354E+01  0.00000000000E+00 0. -1.
</event>
<event>
 7    1  0.3919732E-008  0.4614232E+02  0.7816164E-02  0.1320468E+00
        -11   -1    0    0    0    0  0.00000000000E+00  0.00000000000E+00  0.45593999997E+02  0.45594000000E+02  0.51100000000E-03 0. -1.
         11   -1    0    0    0    0 -0.00000000000E+00 -0.00000000000E+00 -0.45593999997E+02  0.45594000000E+02  0.51100000000E-03 0.  1.
    9900012    2    1    2    0    0  0.35420188602E+02  0.16109706027E+02  0.22693636098E+02  0.46142317540E+02  0.99999979877E+01 0.  0.
        -12    1    1    2    0    0 -0.35420188602E+02 -0.16109706027E+02 -0.22693636098E+02  0.45045682460E+02  0.00000000000E+00 0.  1.
         11    1    3    3    0    0  0.20426723382E+01  0.27067025112E+00  0.94491560643E+00  0.22668565086E+01  0.51100000000E-03 0.  1.
        -11    1    3    3    0    0  0.29650616312E+02  0.13886436378E+02  0.22325727408E+02  0.39628654627E+02  0.51100000000E-03 0. -1.
         12    1    3    3    0    0  0.37268999516E+01  0.19525993979E+01 -0.57700691645E+00  0.42468064047E+01  0.00000000000E+00 0. -1.
</event>
<event>
 7    1  0.3919732E-008  0.4614232E+02  0.7816164E-02  0.1320468E+00
        -11   -1    0    0    0    0  0.00000000000E+00  0.00000000000E+00  0.45593999997E+02  0.45594000000E+02  0.51100000000E-03 0.  1.
         11   -1    0    0    0    0 -0.00000000000E+00 -0.00000000000E+00 -0.45593999997E+02  0.45594000000E+02  0.51100000000E-03 0. -1.
    9900012    2    1    2    0    0  0.33912494421E+02 -0.36528166834E+01 -0.29423003382E+02  0.46142317903E+02  0.10000001293E+02 0.  0.
        -12    1    1    2    0    0 -0.33912494421E+02  0.36528166834E+01  0.29423003382E+02  0.45045682097E+02  0.00000000000E+00 0.  1.
         11    1    3    3    0    0  0.15236589214E+02 -0.51606714366E+00 -0.12314138962E+02  0.19597397654E+02  0.51100000000E-03 0. -1.
        -11    1    3    3    0    0  0.15835798467E+02 -0.52372678706E+01 -0.14991512691E+02  0.22426478566E+02  0.51100000000E-03 0.  1.
         12    1    3    3    0    0  0.28401067400E+01  0.21005183309E+01 -0.21173517289E+01  0.41184416831E+01  0.00000000000E+00 0. -1.
</event>
<event>
 7    1  0.3919732E-008  0.4614232E+02  0.7816164E-02  0.1320468E+00
        -11   -1    0    0    0    0  0.00000000000E+00  0.00000000000E+00  0.45593999997E+02  0.45594000000E+02  0.51100000000E-03 0.  1.
         11   -1    0    0    0    0 -0.00000000000E+00 -0.00000000000E+00 -0.45593999997E+02  0.45594000000E+02  0.51100000000E-03 0. -1.
    9900012    2    1    2    0    0 -0.17374227150E+02  0.32689773220E+02  0.25663756812E+02  0.46142318120E+02  0.10000003277E+02 0.  0.
        -12    1    1    2    0    0  0.17374227150E+02 -0.32689773220E+02 -0.25663756812E+02  0.45045681880E+02  0.00000000000E+00 0.  1.
         11    1    3    3    0    0 -0.15628931250E+02  0.28331086117E+02  0.19689913193E+02  0.37876201161E+02  0.51100000000E-03 0. -1.
        -11    1    3    3    0    0 -0.19271769366E+01  0.36818576309E+01  0.62560903134E+01  0.75105760650E+01  0.51100000000E-03 0.  1.
         12    1    3    3    0    0  0.18188103628E+00  0.67682947277E+00 -0.28224669432E+00  0.75554089434E+00  0.00000000000E+00 0. -1.
</event>
<event>
 7    1  0.3919732E-008  0.4614232E+02  0.7816164E-02  0.1320468E+00
        -11   -1    0    0    0    0  0.00000000000E+00  0.00000000000E+00  0.45593999997E+02  0.45594000000E+02  0.51100000000E-03 0.  1.
         11   -1    0    0    0    0 -0.00000000000E+00 -0.00000000000E+00 -0.45593999997E+02  0.45594000000E+02  0.51100000000E-03 0. -1.
    9900012    2    1    2    0    0 -0.17693261356E+02 -0.14268391515E+02 -0.38890550983E+02  0.46142318192E+02  0.10000003926E+02 0.  0.
        -12    1    1    2    0    0  0.17693261356E+02  0.14268391515E+02  0.38890550983E+02  0.45045681808E+02  0.00000000000E+00 0.  1.
         11    1    3    3    0    0 -0.12519690205E+01 -0.73096192162E+00 -0.89260724828E+00  0.17024922085E+01  0.51100000000E-03 0. -1.
        -11    1    3    3    0    0 -0.11233257867E+02 -0.12218450278E+02 -0.21964820096E+02  0.27530527267E+02  0.51100000000E-03 0.  1.
        -12    1    3    3    0    0 -0.52080344688E+01 -0.13189793156E+01 -0.16033123638E+02  0.16909298716E+02  0.00000000000E+00 0.  1.
</event>
<event>
 7    1  0.3919732E-008  0.4614232E+02  0.7816164E-02  0.1320468E+00
        -11   -1    0    0    0    0  0.00000000000E+00  0.00000000000E+00  0.45593999997E+02  0.45594000000E+02  0.51100000000E-03 0. -1.
         11   -1    0    0    0    0 -0.00000000000E+00 -0.00000000000E+00 -0.45593999997E+02  0.45594000000E+02  0.51100000000E-03 0.  1.
    9900012    2    1    2    0    0 -0.36188194052E+02 -0.26127162241E+02  0.60744955395E+01  0.46142317725E+02  0.99999996710E+01 0.  0.
        -12    1    1    2    0    0  0.36188194052E+02  0.26127162241E+02 -0.60744955395E+01  0.45045682275E+02  0.00000000000E+00 0.  1.
         11    1    3    3    0    0 -0.10692832107E+02 -0.93072585957E+01  0.42471247789E+01  0.14798641498E+02  0.51100000000E-03 0. -1.
        -11    1    3    3    0    0 -0.12276608705E+02 -0.58233273646E+01  0.36034498737E+01  0.14057422030E+02  0.51100000000E-03 0.  1.
        -12    1    3    3    0    0 -0.13218753240E+02 -0.10996576281E+02 -0.17760791130E+01  0.17286254196E+02  0.00000000000E+00 0.  1.
</event>
<event>
 7    1  0.3919732E-008  0.4614232E+02  0.7816164E-02  0.1320468E+00
        -11   -1    0    0    0    0  0.00000000000E+00  0.00000000000E+00  0.45593999997E+02  0.45594000000E+02  0.51100000000E-03 0.  1.
         11   -1    0    0    0    0 -0.00000000000E+00 -0.00000000000E+00 -0.45593999997E+02  0.45594000000E+02  0.51100000000E-03 0. -1.
    9900012    2    1    2    0    0  0.25725604379E+02 -0.80130992327E+01 -0.36098435038E+02  0.46142317719E+02  0.99999996148E+01 0.  0.
        -12    1    1    2    0    0 -0.25725604379E+02  0.80130992327E+01  0.36098435038E+02  0.45045682281E+02  0.00000000000E+00 0.  1.
         11    1    3    3    0    0  0.15041189574E+02 -0.22260790640E+01 -0.19186209387E+02  0.24480674883E+02  0.51100000000E-03 0. -1.
        -11    1    3    3    0    0 -0.88511637320E-01 -0.16564983130E+01 -0.40849573530E+01  0.44089338629E+01  0.51100000000E-03 0.  1.
         12    1    3    3    0    0  0.10772926442E+02 -0.41305218557E+01 -0.12827268298E+02  0.17252708973E+02  0.00000000000E+00 0. -1.
</event>
<event>
 7    1  0.3919732E-008  0.4614232E+02  0.7816164E-02  0.1320468E+00
        -11   -1    0    0    0    0  0.00000000000E+00  0.00000000000E+00  0.45593999997E+02  0.45594000000E+02  0.51100000000E-03 0.  1.
         11   -1    0    0    0    0 -0.00000000000E+00 -0.00000000000E+00 -0.45593999997E+02  0.45594000000E+02  0.51100000000E-03 0. -1.
    9900012    2    1    2    0    0 -0.29975754979E+02 -0.87275747296E+00 -0.33612584478E+02  0.46142318437E+02  0.10000006163E+02 0.  0.
        -12    1    1    2    0    0  0.29975754979E+02  0.87275747296E+00  0.33612584478E+02  0.45045681563E+02  0.00000000000E+00 0.  1.
         11    1    3    3    0    0 -0.33673884908E+01  0.67122572263E+00 -0.48332776190E+01  0.59287791342E+01  0.51100000000E-03 0. -1.
        -11    1    3    3    0    0 -0.29786735958E+00  0.53596979347E-01 -0.40787769581E+01  0.40899901388E+01  0.51100000000E-03 0.  1.
         12    1    3    3    0    0 -0.26310499129E+02 -0.15975801749E+01 -0.24700529901E+02  0.36123549164E+02  0.00000000000E+00 0. -1.
</event>
<event>
 7    1  0.3919732E-008  0.4614232E+02  0.7816164E-02  0.1320468E+00
        -11   -1    0    0    0    0  0.00000000000E+00  0.00000000000E+00  0.45593999997E+02  0.45594000000E+02  0.51100000000E-03 0.  1.
         11   -1    0    0    0    0 -0.00000000000E+00 -0.00000000000E+00 -0.45593999997E+02  0.45594000000E+02  0.51100000000E-03 0. -1.
    9900012    2    1    2    0    0 -0.71748999514E+01  0.19071480487E+02 -0.40173535742E+02  0.46142317285E+02  0.99999956574E+01 0.  0.
        -12    1    1    2    0    0  0.71748999514E+01 -0.19071480487E+02  0.40173535742E+02  0.45045682715E+02  0.00000000000E+00 0.  1.
         11    1    3    3    0    0 -0.89747859517E+00  0.16859982118E+01 -0.25064118908E+01  0.31512154205E+01  0.51100000000E-03 0. -1.
        -11    1    3    3    0    0  0.20793942666E+00  0.12652593739E+02 -0.24322696056E+02  0.27417602208E+02  0.51100000000E-03 0.  1.
        -12    1    3    3    0    0 -0.64853607829E+01  0.47328885363E+01 -0.13344427795E+02  0.15573499657E+02  0.00000000000E+00 0.  1.
</event>
<event>
 7    1  0.3919732E-008  0.4614232E+02  0.7816164E-02  0.1320468E+00
        -11   -1    0    0    0    0  0.00000000000E+00  0.00000000000E+00  0.45593999997E+02  0.45594000000E+02  0.51100000000E-03 0.  1.
         11   -1    0    0    0    0 -0.00000000000E+00 -0.00000000000E+00 -0.45593999997E+02  0.45594000000E+02  0.51100000000E-03 0. -1.
    9900012    2    1    2    0    0  0.17403089507E+02 -0.38667870566E+02 -0.15200058240E+02  0.46142317532E+02  0.99999979141E+01 0.  0.
        -12    1    1    2    0    0 -0.17403089507E+02  0.38667870566E+02  0.15200058240E+02  0.45045682468E+02  0.00000000000E+00 0.  1.
         11    1    3    3    0    0  0.38676122320E+01 -0.12833338998E+02 -0.66424429056E+01  0.14959113016E+02  0.51100000000E-03 0. -1.
        -11    1    3    3    0    0  0.14104520723E+02 -0.25597196229E+02 -0.87979987402E+01  0.30521447241E+02  0.51100000000E-03 0.  1.
        -12    1    3    3    0    0 -0.56904344850E+00 -0.23733534002E+00  0.24038340622E+00  0.66175727566E+00  0.00000000000E+00 0.  1.
</event>
<event>
 7    1  0.3919732E-008  0.4614232E+02  0.7816164E-02  0.1320468E+00
        -11   -1    0    0    0    0  0.00000000000E+00  0.00000000000E+00  0.45593999997E+02  0.45594000000E+02  0.51100000000E-03 0.  1.
         11   -1    0    0    0    0 -0.00000000000E+00 -0.00000000000E+00 -0.45593999997E+02  0.45594000000E+02  0.51100000000E-03 0. -1.
    9900012    2    1    2    0    0 -0.11986358878E+02  0.42285886852E+02 -0.98663192222E+01  0.46142320063E+02  0.10000020990E+02 0.  0.
        -12    1    1    2    0    0  0.11986358878E+02 -0.42285886852E+02  0.98663192222E+01  0.45045679937E+02  0.00000000000E+00 0.  1.
         11    1    3    3    0    0 -0.54029516797E+01  0.90821760810E+01  0.59555107801E+00  0.10584540168E+02  0.51100000000E-03 0. -1.
        -11    1    3    3    0    0 -0.24842771026E+00  0.53393760591E+01 -0.24538650162E+01  0.58815054881E+01  0.51100000000E-03 0.  1.
         12    1    3    3    0    0 -0.63349794885E+01  0.27864334712E+02 -0.80080052840E+01  0.29676274407E+02  0.00000000000E+00 0. -1.
</event>
<event>
 7    1  0.3919732E-008  0.4614232E+02  0.7816164E-02  0.1320468E+00
        -11   -1    0    0    0    0  0.00000000000E+00  0.00000000000E+00  0.45593999997E+02  0.45594000000E+02  0.51100000000E-03 0.  1.
         11   -1    0    0    0    0 -0.00000000000E+00 -0.00000000000E+00 -0.45593999997E+02  0.45594000000E+02  0.51100000000E-03 0. -1.
    9900012    2    1    2    0    0  0.24697413646E+02 -0.27593041381E+02 -0.25647133511E+02  0.46142316181E+02  0.99999855876E+01 0.  0.
        -12    1    1    2    0    0 -0.24697413646E+02  0.27593041381E+02  0.25647133511E+02  0.45045683819E+02  0.00000000000E+00 0.  1.
         11    1    3    3    0    0  0.48554366369E+01 -0.46436840647E+01 -0.88174455070E+01  0.11085414388E+02  0.51100000000E-03 0. -1.
        -11    1    3    3    0    0  0.63864739051E+01 -0.41048236608E+01 -0.38620734987E+01  0.85177601632E+01  0.51100000000E-03 0.  1.
        -12    1    3    3    0    0  0.13455503104E+02 -0.18844533655E+02 -0.12967614505E+02  0.26539141629E+02  0.00000000000E+00 0.  1.
</event>
<event>
 7    1  0.3919732E-008  0.4614232E+02  0.7816164E-02  0.1320468E+00
        -11   -1    0    0    0    0  0.00000000000E+00  0.00000000000E+00  0.45593999997E+02  0.45594000000E+02  0.51100000000E-03 0.  1.
         11   -1    0    0    0    0 -0.00000000000E+00 -0.00000000000E+00 -0.45593999997E+02  0.45594000000E+02  0.51100000000E-03 0. -1.
    9900012    2    1    2    0    0 -0.86828786329E+01  0.30975170224E+02 -0.31531888485E+02  0.46142317152E+02  0.99999944482E+01 0.  0.
        -12    1    1    2    0    0  0.86828786329E+01 -0.30975170224E+02  0.31531888485E+02  0.45045682848E+02  0.00000000000E+00 0.  1.
         11    1    3    3    0    0  0.16987591590E+00  0.32903201850E+01 -0.26381148441E+01  0.42207481491E+01  0.51100000000E-03 0. -1.
        -11    1    3    3    0    0 -0.64838544984E+01  0.79277169054E+01 -0.12349038110E+02  0.16043310350E+02  0.51100000000E-03 0.  1.
        -12    1    3    3    0    0 -0.23689000504E+01  0.19757133134E+02 -0.16544735531E+02  0.25878258653E+02  0.00000000000E+00 0.  1.
</event>
