<event>
 7    1  0.1563903E-008  0.4614232E+02  0.7816164E-02  0.1320468E+00
        -11   -1    0    0    0    0  0.00000000000E+00  0.00000000000E+00  0.45593999997E+02  0.45594000000E+02  0.51100000000E-03 0. -1.
         11   -1    0    0    0    0 -0.00000000000E+00 -0.00000000000E+00 -0.45593999997E+02  0.45594000000E+02  0.51100000000E-03 0.  1.
    9900012    2    1    2    0    0  0.36066251998E+02 -0.24756138133E+02  0.10745814573E+02  0.46142318306E+02  0.10000004968E+02 0.  0.
        -12    1    1    2    0    0 -0.36066251998E+02  0.24756138133E+02 -0.10745814573E+02  0.45045681694E+02  0.00000000000E+00 0.  1.
         11    1    3    3    0    0  0.24292369635E+02 -0.18902508616E+02  0.78979741547E+01  0.31777382688E+02  0.51100000000E-03 0.  1.
        -11    1    3    3    0    0  0.10372809241E+02 -0.52255411824E+01  0.58381581574E+00  0.11629372011E+02  0.51100000000E-03 0. -1.
        -12    1    3    3    0    0  0.14010731218E+01 -0.62808833495E+00  0.22640246027E+01  0.27355636075E+01  0.00000000000E+00 0.  1.
</event>
<event>
 7    1  0.1563903E-008  0.4614232E+02  0.7816164E-02  0.1320468E+00
        -11   -1    0    0    0    0  0.00000000000E+00  0.00000000000E+00  0.45593999997E+02  0.45594000000E+02  0.51100000000E-03 0. -1.
         11   -1    0    0    0    0 -0.00000000000E+00 -0.00000000000E+00 -0.45593999997E+02  0.45594000000E+02  0.51100000000E-03 0.  1.
    9900012    2    1    2    0    0  0.14622075272E+02  0.31243591059E+02  0.28968026353E+02  0.46142316319E+02  0.99999868454E+01 0.  0.
        -12    1    1    2    0    0 -0.14622075272E+02 -0.31243591059E+02 -0.28968026353E+02  0.45045683681E+02  0.00000000000E+00 0.  1.
         11    1    3    3    0    0  0.27897837024E+01  0.11470791963E+02  0.12964797431E+02  0.17534193282E+02  0.51100000000E-03 0. -1.
        -11    1    3    3    0    0  0.98662804777E+01  0.13514364006E+02  0.13796365988E+02  0.21686890964E+02  0.51100000000E-03 0.  1.
        -12    1    3    3    0    0  0.19660110923E+01  0.62584350902E+01  0.22068629345E+01  0.69212320728E+01  0.00000000000E+00 0.  1.
</event>
<event>
 7    1  0.1563903E-008  0.4614232E+02  0.7816164E-02  0.1320468E+00
        -11   -1    0    0    0    0  0.00000000000E+00  0.00000000000E+00  0.45593999997E+02  0.45594000000E+02  0.51100000000E-03 0.  1.
         11   -1    0    0    0    0 -0.00000000000E+00 -0.00000000000E+00 -0.45593999997E+02  0.45594000000E+02  0.51100000000E-03 0. -1.
    9900012    2    1    2    0    0 -0.43534169475E+02 -0.93125980118E+01 -0.68676799956E+01  0.46142318497E+02  0.10000006708E+02 0.  0.
        -12    1    1    2    0    0  0.43534169475E+02  0.93125980118E+01  0.68676799956E+01  0.45045681503E+02  0.00000000000E+00 0.  1.
         11    1    3    3    0    0 -0.15655012491E+02 -0.31335909735E+01 -0.69597571611E+01  0.17416573385E+02  0.51100000000E-03 0. -1.
        -11    1    3    3    0    0 -0.19917091010E+02 -0.39546271293E+01  0.14082917174E+01  0.20354677002E+02  0.51100000000E-03 0.  1.
        -12    1    3    3    0    0 -0.79620659734E+01 -0.22243799091E+01 -0.13162145518E+01  0.83710681093E+01  0.00000000000E+00 0.  1.
</event>
<event>
 7    1  0.1563903E-008  0.4614232E+02  0.7816164E-02  0.1320468E+00
        -11   -1    0    0    0    0  0.00000000000E+00  0.00000000000E+00  0.45593999997E+02  0.45594000000E+02  0.51100000000E-03 0. -1.
         11   -1    0    0    0    0 -0.00000000000E+00 -0.00000000000E+00 -0.45593999997E+02  0.45594000000E+02  0.51100000000E-03 0.  1.
    9900012    2    1    2    0    0 -0.19390535895E+02 -0.37295074288E+02 -0.16192530552E+02  0.46142317697E+02  0.99999994185E+01 0.  0.
        -12    1    1    2    0    0  0.19390535895E+02  0.37295074288E+02  0.16192530552E+02  0.45045682303E+02  0.00000000000E+00 0.  1.
         11    1    3    3    0    0 -0.10789070641E+02 -0.24194012542E+02 -0.11748739561E+02  0.28979081589E+02  0.51100000000E-03 0. -1.
        -11    1    3    3    0    0 -0.16375016632E+00 -0.11780669045E+00 -0.13600997110E+01  0.13749778247E+01  0.51100000000E-03 0.  1.
         12    1    3    3    0    0 -0.84377150877E+01 -0.12983255055E+02 -0.30836912797E+01  0.15788258284E+02  0.00000000000E+00 0. -1.
</event>
<event>
 7    1  0.1563903E-008  0.4614232E+02  0.7816164E-02  0.1320468E+00
        -11   -1    0    0    0    0  0.00000000000E+00  0.00000000000E+00  0.45593999997E+02  0.45594000000E+02  0.51100000000E-03 0. -1.
         11   -1    0    0    0    0 -0.00000000000E+00 -0.00000000000E+00 -0.45593999997E+02  0.45594000000E+02  0.51100000000E-03 0.  1.
    9900012    2    1    2    0    0  0.13558099225E+02 -0.70120509964E+01  0.42380686603E+02  0.46142317513E+02  0.99999977374E+01 0.  0.
        -12    1    1    2    0    0 -0.13558099225E+02  0.70120509964E+01 -0.42380686603E+02  0.45045682487E+02  0.00000000000E+00 0.  1.
         11    1    3    3    0    0  0.79609447867E+01 -0.15111889214E+01  0.15601027250E+02  0.17579885818E+02  0.51100000000E-03 0.  1.
        -11    1    3    3    0    0 -0.12535056444E+01 -0.53031980566E+00  0.24514798845E+01  0.28039738554E+01  0.51100000000E-03 0. -1.
         12    1    3    3    0    0  0.68506600830E+01 -0.49705422693E+01  0.24328179469E+02  0.25758457840E+02  0.00000000000E+00 0. -1.
</event>
<event>
 7    1  0.1563903E-008  0.4614232E+02  0.7816164E-02  0.1320468E+00
        -11   -1    0    0    0    0  0.00000000000E+00  0.00000000000E+00  0.45593999997E+02  0.45594000000E+02  0.51100000000E-03 0.  1.
         11   -1    0    0    0    0 -0.00000000000E+00 -0.00000000000E+00 -0.45593999997E+02  0.45594000000E+02  0.51100000000E-03 0. -1.
    9900012    2    1    2    0    0 -0.10582944499E+02  0.39680895320E+02 -0.18507872004E+02  0.46142317701E+02  0.99999994537E+01 0.  0.
        -12    1    1    2    0    0  0.10582944499E+02 -0.39680895320E+02  0.18507872004E+02  0.45045682299E+02  0.00000000000E+00 0.  1.
         11    1    3    3    0    0 -0.28567284360E+01  0.37094839145E+01 -0.46170593788E+00  0.47047147525E+01  0.51100000000E-03 0.  1.
        -11    1    3    3    0    0 -0.34857137001E+00  0.14437552126E+02 -0.55581544996E+01  0.15474414208E+02  0.51100000000E-03 0. -1.
        -12    1    3    3    0    0 -0.73776446928E+01  0.21533859280E+02 -0.12488011567E+02  0.25963188740E+02  0.00000000000E+00 0.  1.
</event>
<event>
 7    1  0.1563903E-008  0.4614232E+02  0.7816164E-02  0.1320468E+00
        -11   -1    0    0    0    0  0.00000000000E+00  0.00000000000E+00  0.45593999997E+02  0.45594000000E+02  0.51100000000E-03 0. -1.
         11   -1    0    0    0    0 -0.00000000000E+00 -0.00000000000E+00 -0.45593999997E+02  0.45594000000E+02  0.51100000000E-03 0.  1.
    9900012    2    1    2    0    0 -0.40695132619E+02  0.18407448181E+02 -0.58468389823E+01  0.46142317704E+02  0.99999994779E+01 0.  0.
        -12    1    1    2    0    0  0.40695132619E+02 -0.18407448181E+02  0.58468389823E+01  0.45045682296E+02  0.00000000000E+00 0.  1.
         11    1    3    3    0    0 -0.13926080135E+02  0.49546387065E+01  0.22209769917E+01  0.14947136571E+02  0.51100000000E-03 0. -1.
        -11    1    3    3    0    0 -0.24671186837E+02  0.12504962791E+02 -0.65087844634E+01  0.28414887467E+02  0.51100000000E-03 0.  1.
         12    1    3    3    0    0 -0.20978656480E+01  0.94784668441E+00 -0.15590315106E+01  0.27802936653E+01  0.00000000000E+00 0. -1.
</event>
<event>
 7    1  0.1563903E-008  0.4614232E+02  0.7816164E-02  0.1320468E+00
        -11   -1    0    0    0    0  0.00000000000E+00  0.00000000000E+00  0.45593999997E+02  0.45594000000E+02  0.51100000000E-03 0.  1.
         11   -1    0    0    0    0 -0.00000000000E+00 -0.00000000000E+00 -0.45593999997E+02  0.45594000000E+02  0.51100000000E-03 0. -1.
    9900012    2    1    2    0    0  0.34181459997E+02 -0.18576796042E+01 -0.29279521819E+02  0.46142316755E+02  0.99999908285E+01 0.  0.
        -12    1    1    2    0    0 -0.34181459997E+02  0.18576796042E+01  0.29279521819E+02  0.45045683245E+02  0.00000000000E+00 0.  1.
         11    1    3    3    0    0  0.23902944162E+02 -0.44805193117E+01 -0.20148207215E+02  0.31581261013E+02  0.51100000000E-03 0.  1.
        -11    1    3    3    0    0  0.47798074865E+01  0.32722623316E+01 -0.50111803626E+01  0.76593856975E+01  0.51100000000E-03 0. -1.
         12    1    3    3    0    0  0.54987083486E+01 -0.64942262408E+00 -0.41201342414E+01  0.69016700453E+01  0.00000000000E+00 0. -1.
</event>
<event>
 7    1  0.1563903E-008  0.4614231E+02  0.7816164E-02  0.1320468E+00
        -11   -1    0    0    0    0  0.00000000000E+00  0.00000000000E+00  0.45593999997E+02  0.45594000000E+02  0.51100000000E-03 0. -1.
         11   -1    0    0    0    0 -0.00000000000E+00 -0.00000000000E+00 -0.45593999997E+02  0.45594000000E+02  0.51100000000E-03 0.  1.
    9900012    2    1    2    0    0 -0.23179821065E+02  0.51930512445E+01  0.38273254032E+02  0.46142313636E+02  0.99999623797E+01 0.  0.
        -12    1    1    2    0    0  0.23179821065E+02 -0.51930512445E+01 -0.38273254032E+02  0.45045686364E+02  0.00000000000E+00 0.  1.
         11    1    3    3    0    0 -0.58568041824E+01  0.96443886781E+00  0.91368848296E+01  0.10895639596E+02  0.51100000000E-03 0. -1.
        -11    1    3    3    0    0 -0.14839767233E+02  0.60433856274E+01  0.27327200897E+02  0.31678338191E+02  0.51100000000E-03 0.  1.
        -12    1    3    3    0    0 -0.24832496491E+01 -0.18147732507E+01  0.18091683055E+01  0.35683358487E+01  0.00000000000E+00 0.  1.
</event>
<event>
 7    1  0.1563903E-008  0.4614232E+02  0.7816164E-02  0.1320468E+00
        -11   -1    0    0    0    0  0.00000000000E+00  0.00000000000E+00  0.45593999997E+02  0.45594000000E+02  0.51100000000E-03 0.  1.
         11   -1    0    0    0    0 -0.00000000000E+00 -0.00000000000E+00 -0.45593999997E+02  0.45594000000E+02  0.51100000000E-03 0. -1.
    9900012    2    1    2    0    0 -0.36098534266E+02 -0.24279832915E+02 -0.11683282071E+02  0.46142317161E+02  0.99999945236E+01 0.  0.
        -12    1    1    2    0    0  0.36098534266E+02  0.24279832915E+02  0.11683282071E+02  0.45045682839E+02  0.00000000000E+00 0.  1.
         11    1    3    3    0    0 -0.29613218222E+02 -0.22183647193E+02 -0.66661183073E+01  0.37596462995E+02  0.51100000000E-03 0. -1.
        -11    1    3    3    0    0 -0.51736976558E+01 -0.11598746684E+01 -0.37167498801E+01  0.64750819773E+01  0.51100000000E-03 0.  1.
         12    1    3    3    0    0 -0.13116183886E+01 -0.93631105384E+00 -0.13004138831E+01  0.20707721879E+01  0.00000000000E+00 0. -1.
</event>
<event>
 7    1  0.1563903E-008  0.4614232E+02  0.7816164E-02  0.1320468E+00
        -11   -1    0    0    0    0  0.00000000000E+00  0.00000000000E+00  0.45593999997E+02  0.45594000000E+02  0.51100000000E-03 0.  1.
         11   -1    0    0    0    0 -0.00000000000E+00 -0.00000000000E+00 -0.45593999997E+02  0.45594000000E+02  0.51100000000E-03 0. -1.
    9900012    2    1    2    0    0  0.30405749616E+02 -0.13360256584E+02 -0.30432013835E+02  0.46142317279E+02  0.99999956080E+01 0.  0.
        -12    1    1    2    0    0 -0.30405749616E+02  0.13360256584E+02  0.30432013835E+02  0.45045682721E+02  0.00000000000E+00 0.  1.
         11    1    3    3    0    0  0.13119159559E+02 -0.95452697763E+01 -0.12173263589E+02  0.20283315047E+02  0.51100000000E-03 0. -1.
        -11    1    3    3    0    0  0.81557391275E+01 -0.13905966976E+01 -0.11813865160E+02  0.14422803131E+02  0.51100000000E-03 0.  1.
        -12    1    3    3    0    0  0.91308509290E+01 -0.24243901101E+01 -0.64448850869E+01  0.11436199101E+02  0.00000000000E+00 0.  1.
</event>
<event>
 7    1  0.1563903E-008  0.4614232E+02  0.7816164E-02  0.1320468E+00
        -11   -1    0    0    0    0  0.00000000000E+00  0.00000000000E+00  0.45593999997E+02  0.45594000000E+02  0.51100000000E-03 0. -1.
         11   -1    0    0    0    0 -0.00000000000E+00 -0.00000000000E+00 -0.45593999997E+02  0.45594000000E+02  0.51100000000E-03 0.  1.
    9900012    2    1    2    0    0 -0.25893806305E+01  0.44014236971E+02  0.92279780006E+01  0.46142317342E+02  0.99999961755E+01 0.  0.
        -12    1    1    2    0    0  0.25893806305E+01 -0.44014236971E+02 -0.92279780006E+01  0.45045682658E+02  0.00000000000E+00 0.  1.
         11    1    3    3    0    0 -0.26189259193E+01  0.32678094863E+02  0.10336408343E+02  0.34373798081E+02  0.51100000000E-03 0. -1.
        -11    1    3    3    0    0 -0.10401917043E+01  0.49904692111E+01 -0.15218692273E+01  0.53200439787E+01  0.51100000000E-03 0.  1.
        -12    1    3    3    0    0  0.10697369932E+01  0.63456728966E+01  0.41343888498E+00  0.64484752816E+01  0.00000000000E+00 0.  1.
</event>
<event>
 7    1  0.1563903E-008  0.4614232E+02  0.7816164E-02  0.1320468E+00
        -11   -1    0    0    0    0  0.00000000000E+00  0.00000000000E+00  0.45593999997E+02  0.45594000000E+02  0.51100000000E-03 0.  1.
         11   -1    0    0    0    0 -0.00000000000E+00 -0.00000000000E+00 -0.45593999997E+02  0.45594000000E+02  0.51100000000E-03 0. -1.
    9900012    2    1    2    0    0 -0.36570752751E+02  0.11169839517E+02  0.23810246612E+02  0.46142321902E+02  0.10000037762E+02 0.  0.
        -12    1    1    2    0    0  0.36570752751E+02 -0.11169839517E+02 -0.23810246612E+02  0.45045678098E+02  0.00000000000E+00 0.  1.
         11    1    3    3    0    0 -0.12939953671E+02  0.69826360831E+01  0.10865274094E+02  0.18282608924E+02  0.51100000000E-03 0. -1.
        -11    1    3    3    0    0 -0.19234135192E+01 -0.12213529923E+01  0.87828683712E+00  0.24418457623E+01  0.51100000000E-03 0.  1.
         12    1    3    3    0    0 -0.21707385560E+02  0.54085564260E+01  0.12066685680E+02  0.25417867216E+02  0.00000000000E+00 0. -1.
</event>
<event>
 7    1  0.1563903E-008  0.4614232E+02  0.7816164E-02  0.1320468E+00
        -11   -1    0    0    0    0  0.00000000000E+00  0.00000000000E+00  0.45593999997E+02  0.45594000000E+02  0.51100000000E-03 0. -1.
         11   -1    0    0    0    0 -0.00000000000E+00 -0.00000000000E+00 -0.45593999997E+02  0.45594000000E+02  0.51100000000E-03 0.  1.
    9900012    2    1    2    0    0 -0.26197051828E+01 -0.21561550878E+02  0.39463274610E+02  0.46142319026E+02  0.10000011532E+02 0.  0.
        -12    1    1    2    0    0  0.26197051828E+01  0.21561550878E+02 -0.39463274610E+02  0.45045680974E+02  0.00000000000E+00 0.  1.
         11    1    3    3    0    0  0.62822256994E-02 -0.70352364410E+01  0.84171102112E+01  0.10970065443E+02  0.51100000000E-03 0.  1.
        -11    1    3    3    0    0 -0.78380033949E+00 -0.14493456521E+02  0.28925953623E+02  0.32363334472E+02  0.51100000000E-03 0. -1.
        -12    1    3    3    0    0 -0.18421870690E+01 -0.32857916311E-01  0.21202107754E+01  0.28089191109E+01  0.00000000000E+00 0.  1.
</event>
<event>
 7    1  0.1563903E-008  0.4614232E+02  0.7816164E-02  0.1320468E+00
        -11   -1    0    0    0    0  0.00000000000E+00  0.00000000000E+00  0.45593999997E+02  0.45594000000E+02  0.51100000000E-03 0. -1.
         11   -1    0    0    0    0 -0.00000000000E+00 -0.00000000000E+00 -0.45593999997E+02  0.45594000000E+02  0.51100000000E-03 0.  1.
    9900012    2    1    2    0    0  0.38789130034E+02  0.19974266940E+02  0.11204712166E+02  0.46142317373E+02  0.99999964614E+01 0.  0.
        -12    1    1    2    0    0 -0.38789130034E+02 -0.19974266940E+02 -0.11204712166E+02  0.45045682627E+02  0.00000000000E+00 0.  1.
         11    1    3    3    0    0  0.85869280796E+01  0.92760719733E+01  0.24699337858E+01  0.12879496041E+02  0.51100000000E-03 0. -1.
        -11    1    3    3    0    0  0.58822700908E+01  0.14408247394E+01  0.12276091931E+01  0.61793285997E+01  0.51100000000E-03 0.  1.
         12    1    3    3    0    0  0.24319931864E+02  0.92573702270E+01  0.75071691871E+01  0.27083492733E+02  0.00000000000E+00 0. -1.
</event>
<event>
 7    1  0.1563903E-008  0.4614232E+02  0.7816164E-02  0.1320468E+00
        -11   -1    0    0    0    0  0.00000000000E+00  0.00000000000E+00  0.45593999997E+02  0.45594000000E+02  0.51100000000E-03 0. -1.
         11   -1    0    0    0    0 -0.00000000000E+00 -0.00000000000E+00 -0.45593999997E+02  0.45594000000E+02  0.51100000000E-03 0.  1.
    9900012    2    1    2    0    0 -0.28135709827E+01  0.44883027464E+02  0.25905369443E+01  0.46142320766E+02  0.10000027399E+02 0.  0.
        -12    1    1    2    0    0  0.28135709827E+01 -0.44883027464E+02 -0.25905369443E+01  0.45045679234E+02  0.00000000000E+00 0.  1.
         11    1    3    3    0    0  0.16831238327E+01  0.11924580414E+02 -0.15954612192E+01  0.12148004801E+02  0.51100000000E-03 0. -1.
        -11    1    3    3    0    0 -0.10428539922E+00  0.11385719683E+02 -0.82442269935E+00  0.11416004607E+02  0.51100000000E-03 0.  1.
         12    1    3    3    0    0 -0.43924094162E+01  0.21572727367E+02  0.50104208628E+01  0.22578311357E+02  0.00000000000E+00 0. -1.
</event>
<event>
 7    1  0.1563903E-008  0.4614232E+02  0.7816164E-02  0.1320468E+00
        -11   -1    0    0    0    0  0.00000000000E+00  0.00000000000E+00  0.45593999997E+02  0.45594000000E+02  0.51100000000E-03 0.  1.
         11   -1    0    0    0    0 -0.00000000000E+00 -0.00000000000E+00 -0.45593999997E+02  0.45594000000E+02  0.51100000000E-03 0. -1.
    9900012    2    1    2    0    0  0.50969045788E+01 -0.45508297000E+01 -0.44524432457E+02  0.46142316823E+02  0.99999914485E+01 0.  0.
        -12    1    1    2    0    0 -0.50969045788E+01  0.45508297000E+01  0.44524432457E+02  0.45045683177E+02  0.00000000000E+00 0.  1.
         11    1    3    3    0    0  0.98253923540E+00 -0.14004906904E+01 -0.23478304102E+02  0.23540550573E+02  0.51100000000E-03 0. -1.
        -11    1    3    3    0    0 -0.14382300994E+01 -0.19887588675E+01 -0.81866922897E+01  0.85466717825E+01  0.51100000000E-03 0.  1.
        -12    1    3    3    0    0  0.55525954428E+01 -0.11615801421E+01 -0.12859436066E+02  0.14055094468E+02  0.00000000000E+00 0.  1.
</event>
<event>
 7    1  0.1563903E-008  0.4614232E+02  0.7816164E-02  0.1320468E+00
        -11   -1    0    0    0    0  0.00000000000E+00  0.00000000000E+00  0.45593999997E+02  0.45594000000E+02  0.51100000000E-03 0. -1.
         11   -1    0    0    0    0 -0.00000000000E+00 -0.00000000000E+00 -0.45593999997E+02  0.45594000000E+02  0.51100000000E-03 0.  1.
    9900012    2    1    2    0    0  0.99705797932E+00  0.40510413813E+02  0.19672968399E+02  0.46142318326E+02  0.10000005147E+02 0.  0.
        -12    1    1    2    0    0 -0.99705797932E+00 -0.40510413813E+02 -0.19672968399E+02  0.45045681674E+02  0.00000000000E+00 0.  1.
         11    1    3    3    0    0  0.36242131072E+01  0.11810935869E+02  0.94773743250E+01  0.15570926469E+02  0.51100000000E-03 0. -1.
        -11    1    3    3    0    0 -0.18369534263E+01  0.21183267773E+02  0.74235664048E+01  0.22521424686E+02  0.51100000000E-03 0.  1.
         12    1    3    3    0    0 -0.79020170162E+00  0.75162101698E+01  0.27720276692E+01  0.80499671704E+01  0.00000000000E+00 0. -1.
</event>
<event>
 7    1  0.1563903E-008  0.4614232E+02  0.7816164E-02  0.1320468E+00
        -11   -1    0    0    0    0  0.00000000000E+00  0.00000000000E+00  0.45593999997E+02  0.45594000000E+02  0.51100000000E-03 0. -1.
         11   -1    0    0    0    0 -0.00000000000E+00 -0.00000000000E+00 -0.45593999997E+02  0.45594000000E+02  0.51100000000E-03 0.  1.
    9900012    2    1    2    0    0 -0.34227945194E+02 -0.26381456006E+02  0.12711412500E+02  0.46142318066E+02  0.10000002777E+02 0.  0.
        -12    1    1    2    0    0  0.34227945194E+02  0.26381456006E+02 -0.12711412500E+02  0.45045681934E+02  0.00000000000E+00 0.  1.
         11    1    3    3    0    0 -0.21044581167E+02 -0.19660443338E+02  0.91537308963E+01  0.30219169716E+02  0.51100000000E-03 0. -1.
        -11    1    3    3    0    0 -0.52467965532E+01 -0.40756564628E+00  0.21484838953E+01  0.56842736683E+01  0.51100000000E-03 0.  1.
         12    1    3    3    0    0 -0.79365674737E+01 -0.63134470216E+01  0.14091977081E+01  0.10238874681E+02  0.00000000000E+00 0. -1.
</event>
<event>
 7    1  0.1563903E-008  0.4614232E+02  0.7816164E-02  0.1320468E+00
        -11   -1    0    0    0    0  0.00000000000E+00  0.00000000000E+00  0.45593999997E+02  0.45594000000E+02  0.51100000000E-03 0. -1.
         11   -1    0    0    0    0 -0.00000000000E+00 -0.00000000000E+00 -0.45593999997E+02  0.45594000000E+02  0.51100000000E-03 0.  1.
    9900012    2    1    2    0    0  0.30853596706E+02 -0.30228596250E+01  0.32680750297E+02  0.46142317077E+02  0.99999937632E+01 0.  0.
        -12    1    1    2    0    0 -0.30853596706E+02  0.30228596250E+01 -0.32680750297E+02  0.45045682923E+02  0.00000000000E+00 0.  1.
         11    1    3    3    0    0  0.23026019927E+02  0.85170933289E+00  0.26989902293E+02  0.35487713768E+02  0.51100000000E-03 0. -1.
        -11    1    3    3    0    0  0.15491992579E+01 -0.16010508752E+01  0.75977336420E+00  0.23538560006E+01  0.51100000000E-03 0.  1.
         12    1    3    3    0    0  0.62783775211E+01 -0.22735180828E+01  0.49310746404E+01  0.83007473085E+01  0.00000000000E+00 0. -1.
</event>
<event>
 7    1  0.1563903E-008  0.4614232E+02  0.7816164E-02  0.1320468E+00
        -11   -1    0    0    0    0  0.00000000000E+00  0.00000000000E+00  0.45593999997E+02  0.45594000000E+02  0.51100000000E-03 0. -1.
         11   -1    0    0    0    0 -0.00000000000E+00 -0.00000000000E+00 -0.45593999997E+02  0.45594000000E+02  0.51100000000E-03 0.  1.
    9900012    2    1    2    0    0 -0.28956160511E+02 -0.24778359408E+02  0.24014307273E+02  0.46142320070E+02  0.10000021057E+02 0.  0.
        -12    1    1    2    0    0  0.28956160511E+02  0.24778359408E+02 -0.24014307273E+02  0.45045679930E+02  0.00000000000E+00 0.  1.
         11    1    3    3    0    0 -0.11677833127E+02 -0.39338098511E+01  0.74065617113E+01  0.14377197333E+02  0.51100000000E-03 0. -1.
        -11    1    3    3    0    0 -0.96651961082E+01 -0.11353160432E+02  0.90736700888E+01  0.17453989708E+02  0.51100000000E-03 0.  1.
         12    1    3    3    0    0 -0.76131312757E+01 -0.94913891255E+01  0.75340754726E+01  0.14311133029E+02  0.00000000000E+00 0. -1.
</event>
<event>
 7    1  0.1563903E-008  0.4614232E+02  0.7816164E-02  0.1320468E+00
        -11   -1    0    0    0    0  0.00000000000E+00  0.00000000000E+00  0.45593999997E+02  0.45594000000E+02  0.51100000000E-03 0.  1.
         11   -1    0    0    0    0 -0.00000000000E+00 -0.00000000000E+00 -0.45593999997E+02  0.45594000000E+02  0.51100000000E-03 0. -1.
    9900012    2    1    2    0    0  0.21836087500E+02 -0.21369818304E+02 -0.33100296440E+02  0.46142317898E+02  0.10000001244E+02 0.  0.
        -12    1    1    2    0    0 -0.21836087500E+02  0.21369818304E+02  0.33100296440E+02  0.45045682102E+02  0.00000000000E+00 0.  1.
         11    1    3    3    0    0  0.13770420463E+02 -0.13624311756E+02 -0.25695325855E+02  0.32179125557E+02  0.51100000000E-03 0. -1.
        -11    1    3    3    0    0  0.80235734124E+01 -0.66963555684E+01 -0.75644493566E+01  0.12901155085E+02  0.51100000000E-03 0.  1.
        -12    1    3    3    0    0  0.42093624157E-01 -0.10491509799E+01  0.15947877215E+00  0.10620372548E+01  0.00000000000E+00 0.  1.
</event>
<event>
 7    1  0.1563903E-008  0.4614232E+02  0.7816164E-02  0.1320468E+00
        -11   -1    0    0    0    0  0.00000000000E+00  0.00000000000E+00  0.45593999997E+02  0.45594000000E+02  0.51100000000E-03 0.  1.
         11   -1    0    0    0    0 -0.00000000000E+00 -0.00000000000E+00 -0.45593999997E+02  0.45594000000E+02  0.51100000000E-03 0. -1.
    9900012    2    1    2    0    0  0.10372374076E+02  0.42230555317E+02 -0.11751922175E+02  0.46142316287E+02  0.99999865572E+01 0.  0.
        -12    1    1    2    0    0 -0.10372374076E+02 -0.42230555317E+02  0.11751922175E+02  0.45045683713E+02  0.00000000000E+00 0.  1.
         11    1    3    3    0    0  0.45977238094E+01  0.61425527503E+01 -0.18689403153E+01  0.78970220134E+01  0.51100000000E-03 0.  1.
        -11    1    3    3    0    0  0.55048671971E+01  0.26797740960E+02 -0.52349839590E+01  0.27853680918E+02  0.51100000000E-03 0. -1.
        -12    1    3    3    0    0  0.26978306967E+00  0.92902616074E+01 -0.46479979005E+01  0.10391613355E+02  0.00000000000E+00 0.  1.
</event>
<event>
 7    1  0.1563903E-008  0.4614232E+02  0.7816164E-02  0.1320468E+00
        -11   -1    0    0    0    0  0.00000000000E+00  0.00000000000E+00  0.45593999997E+02  0.45594000000E+02  0.51100000000E-03 0. -1.
         11   -1    0    0    0    0 -0.00000000000E+00 -0.00000000000E+00 -0.45593999997E+02  0.45594000000E+02  0.51100000000E-03 0.  1.
    9900012    2    1    2    0    0  0.44254980244E+02  0.79135852223E+00  0.83656297785E+01  0.46142320004E+02  0.10000020450E+02 0.  0.
        -12    1    1    2    0    0 -0.44254980244E+02 -0.79135852223E+00 -0.83656297785E+01  0.45045679996E+02  0.00000000000E+00 0.  1.
         11    1    3    3    0    0  0.16970791077E+02  0.33224161362E+01  0.70396114906E+01  0.18670895237E+02  0.51100000000E-03 0. -1.
        -11    1    3    3    0    0  0.17323066158E+02 -0.16685052201E+01  0.15354179415E+01  0.17470833961E+02  0.51100000000E-03 0.  1.
         12    1    3    3    0    0  0.99611230092E+01 -0.86255239388E+00 -0.20939965366E+00  0.10000590805E+02  0.00000000000E+00 0. -1.
</event>
<event>
 7    1  0.1563903E-008  0.4614232E+02  0.7816164E-02  0.1320468E+00
        -11   -1    0    0    0    0  0.00000000000E+00  0.00000000000E+00  0.45593999997E+02  0.45594000000E+02  0.51100000000E-03 0.  1.
         11   -1    0    0    0    0 -0.00000000000E+00 -0.00000000000E+00 -0.45593999997E+02  0.45594000000E+02  0.51100000000E-03 0. -1.
    9900012    2    1    2    0    0 -0.33696761595E+02 -0.28975267359E+02 -0.73536229257E+01  0.46142316182E+02  0.99999855969E+01 0.  0.
        -12    1    1    2    0    0  0.33696761595E+02  0.28975267359E+02  0.73536229257E+01  0.45045683818E+02  0.00000000000E+00 0.  1.
         11    1    3    3    0    0 -0.14839589666E+02 -0.88970406817E+01 -0.56539190401E+01  0.18202679888E+02  0.51100000000E-03 0. -1.
        -11    1    3    3    0    0 -0.93546036836E+01 -0.68451546298E+01 -0.45102490044E+00  0.11600352396E+02  0.51100000000E-03 0.  1.
         12    1    3    3    0    0 -0.95025682461E+01 -0.13233072048E+02 -0.12486789851E+01  0.16339283898E+02  0.00000000000E+00 0. -1.
</event>
<event>
 7    1  0.1563903E-008  0.4614232E+02  0.7816164E-02  0.1320468E+00
        -11   -1    0    0    0    0  0.00000000000E+00  0.00000000000E+00  0.45593999997E+02  0.45594000000E+02  0.51100000000E-03 0. -1.
         11   -1    0    0    0    0 -0.00000000000E+00 -0.00000000000E+00 -0.45593999997E+02  0.45594000000E+02  0.51100000000E-03 0.  1.
    9900012    2    1    2    0    0  0.23213977946E+01  0.17613556199E+02  0.41394291081E+02  0.46142316701E+02  0.99999903362E+01 0.  0.
        -12    1    1    2    0    0 -0.23213977946E+01 -0.17613556199E+02 -0.41394291081E+02  0.45045683299E+02  0.00000000000E+00 0.  1.
         11    1    3    3    0    0  0.52270955087E+00  0.91141063945E+01  0.24193767132E+02  0.25858819172E+02  0.51100000000E-03 0. -1.
        -11    1    3    3    0    0 -0.17764425584E+01  0.30659862144E+00  0.25965255058E+01  0.31609643847E+01  0.51100000000E-03 0.  1.
         12    1    3    3    0    0  0.35751308021E+01  0.81928511834E+01  0.14603998443E+02  0.17122533145E+02  0.00000000000E+00 0. -1.
</event>
<event>
 7    1  0.1563903E-008  0.4614232E+02  0.7816164E-02  0.1320468E+00
        -11   -1    0    0    0    0  0.00000000000E+00  0.00000000000E+00  0.45593999997E+02  0.45594000000E+02  0.51100000000E-03 0.  1.
         11   -1    0    0    0    0 -0.00000000000E+00 -0.00000000000E+00 -0.45593999997E+02  0.45594000000E+02  0.51100000000E-03 0. -1.
    9900012    2    1    2    0    0  0.14493178985E+02  0.29087391928E+02 -0.31192707147E+02  0.46142316683E+02  0.99999901728E+01 0.  0.
        -12    1    1    2    0    0 -0.14493178985E+02 -0.29087391928E+02  0.31192707147E+02  0.45045683317E+02  0.00000000000E+00 0.  1.
         11    1    3    3    0    0  0.14129392672E+02  0.26995590834E+02 -0.29874647435E+02  0.42671960599E+02  0.51100000000E-03 0. -1.
        -11    1    3    3    0    0  0.85572253337E+00 -0.47125413453E-01 -0.88750785691E+00  0.12337553712E+01  0.51100000000E-03 0.  1.
         12    1    3    3    0    0 -0.49193622005E+00  0.21389265079E+01 -0.43055185567E+00  0.22366007135E+01  0.00000000000E+00 0. -1.
</event>
<event>
 7    1  0.1563903E-008  0.4614232E+02  0.7816164E-02  0.1320468E+00
        -11   -1    0    0    0    0  0.00000000000E+00  0.00000000000E+00  0.45593999997E+02  0.45594000000E+02  0.51100000000E-03 0.  1.
         11   -1    0    0    0    0 -0.00000000000E+00 -0.00000000000E+00 -0.45593999997E+02  0.45594000000E+02  0.51100000000E-03 0. -1.
    9900012    2    1    2    0    0 -0.23709575435E+02  0.19193858821E+02 -0.33144613628E+02  0.46142316563E+02  0.99999890772E+01 0.  0.
        -12    1    1    2    0    0  0.23709575435E+02 -0.19193858821E+02  0.33144613628E+02  0.45045683437E+02  0.00000000000E+00 0.  1.
         11    1    3    3    0    0 -0.19486864078E+02  0.11779150413E+02 -0.19687292700E+02  0.30101092176E+02  0.51100000000E-03 0. -1.
        -11    1    3    3    0    0 -0.25371400432E+01  0.31985774683E+01 -0.76317048881E+01  0.86551081553E+01  0.51100000000E-03 0.  1.
         12    1    3    3    0    0 -0.16855713135E+01  0.42161309402E+01 -0.58256160392E+01  0.73861162321E+01  0.00000000000E+00 0. -1.
</event>
<event>
 7    1  0.1563903E-008  0.4614233E+02  0.7816164E-02  0.1320468E+00
        -11   -1    0    0    0    0  0.00000000000E+00  0.00000000000E+00  0.45593999997E+02  0.45594000000E+02  0.51100000000E-03 0.  1.
         11   -1    0    0    0    0 -0.00000000000E+00 -0.00000000000E+00 -0.45593999997E+02  0.45594000000E+02  0.51100000000E-03 0. -1.
    9900012    2    1    2    0    0  0.43389724102E+02  0.28746248567E-01  0.12101376372E+02  0.46142331017E+02  0.10000120880E+02 0.  0.
        -12    1    1    2    0    0 -0.43389724102E+02 -0.28746248567E-01 -0.12101376372E+02  0.45045668983E+02  0.00000000000E+00 0.  1.
         11    1    3    3    0    0  0.40678688867E+02  0.78710991053E+00  0.86221433530E+01  0.41589862061E+02  0.51100000000E-03 0. -1.
        -11    1    3    3    0    0  0.12371295086E+00 -0.26178861575E+00  0.47884748725E+00  0.55958319374E+00  0.51100000000E-03 0.  1.
         12    1    3    3    0    0  0.25873222842E+01 -0.49657504621E+00  0.30003855317E+01  0.39928857631E+01  0.00000000000E+00 0. -1.
</event>
<event>
 7    1  0.1563903E-008  0.4614232E+02  0.7816164E-02  0.1320468E+00
        -11   -1    0    0    0    0  0.00000000000E+00  0.00000000000E+00  0.45593999997E+02  0.45594000000E+02  0.51100000000E-03 0.  1.
         11   -1    0    0    0    0 -0.00000000000E+00 -0.00000000000E+00 -0.45593999997E+02  0.45594000000E+02  0.51100000000E-03 0. -1.
    9900012    2    1    2    0    0 -0.43622568211E+02 -0.91943350386E+01 -0.64536211222E+01  0.46142317858E+02  0.10000000880E+02 0.  0.
        -12    1    1    2    0    0  0.43622568211E+02  0.91943350386E+01  0.64536211222E+01  0.45045682142E+02  0.00000000000E+00 0.  1.
         11    1    3    3    0    0 -0.15160707786E+01 -0.94270865256E+00  0.29493370135E+00  0.18094630029E+01  0.51100000000E-03 0. -1.
        -11    1    3    3    0    0 -0.20885391932E+02 -0.79579327583E+01 -0.11304228156E+01  0.22378698486E+02  0.51100000000E-03 0.  1.
        -12    1    3    3    0    0 -0.21221105500E+02 -0.29369362770E+00 -0.56181320079E+01  0.21954156369E+02  0.00000000000E+00 0.  1.
</event>
<event>
 7    1  0.1563903E-008  0.4614232E+02  0.7816164E-02  0.1320468E+00
        -11   -1    0    0    0    0  0.00000000000E+00  0.00000000000E+00  0.45593999997E+02  0.45594000000E+02  0.51100000000E-03 0.  1.
         11   -1    0    0    0    0 -0.00000000000E+00 -0.00000000000E+00 -0.45593999997E+02  0.45594000000E+02  0.51100000000E-03 0. -1.
    9900012    2    1    2    0    0 -0.23350837188E+01 -0.41646780385E+02 -0.17006069921E+02  0.46142319336E+02  0.10000014357E+02 0.  0.
        -12    1    1    2    0    0  0.23350837188E+01  0.41646780385E+02  0.17006069921E+02  0.45045680664E+02  0.00000000000E+00 0.  1.
         11    1    3    3    0    0  0.23727482717E+01 -0.13325155636E+02 -0.29589170951E+01  0.13854417985E+02  0.51100000000E-03 0. -1.
        -11    1    3    3    0    0 -0.96022442830E+00 -0.10274840605E+02 -0.27891049943E+01  0.10689877798E+02  0.51100000000E-03 0.  1.
         12    1    3    3    0    0 -0.37476075623E+01 -0.18046784144E+02 -0.11258047831E+02  0.21598023552E+02  0.00000000000E+00 0. -1.
</event>
<event>
 7    1  0.1563903E-008  0.4614232E+02  0.7816164E-02  0.1320468E+00
        -11   -1    0    0    0    0  0.00000000000E+00  0.00000000000E+00  0.45593999997E+02  0.45594000000E+02  0.51100000000E-03 0. -1.
         11   -1    0    0    0    0 -0.00000000000E+00 -0.00000000000E+00 -0.45593999997E+02  0.45594000000E+02  0.51100000000E-03 0.  1.
    9900012    2    1    2    0    0  0.25694211700E+02 -0.20364119739E+02  0.30890508637E+02  0.46142318614E+02  0.10000007780E+02 0.  0.
        -12    1    1    2    0    0 -0.25694211700E+02  0.20364119739E+02 -0.30890508637E+02  0.45045681386E+02  0.00000000000E+00 0.  1.
         11    1    3    3    0    0  0.11359839708E+02 -0.12183446028E+02  0.18928788858E+02  0.25214705296E+02  0.51100000000E-03 0. -1.
        -11    1    3    3    0    0  0.37714624008E+01 -0.12644517511E+01  0.76155603535E+00  0.40500289786E+01  0.51100000000E-03 0.  1.
         12    1    3    3    0    0  0.10562909592E+02 -0.69162219602E+01  0.11200163744E+02  0.16877584340E+02  0.00000000000E+00 0. -1.
</event>
<event>
 7    1  0.1563903E-008  0.4614232E+02  0.7816164E-02  0.1320468E+00
        -11   -1    0    0    0    0  0.00000000000E+00  0.00000000000E+00  0.45593999997E+02  0.45594000000E+02  0.51100000000E-03 0. -1.
         11   -1    0    0    0    0 -0.00000000000E+00 -0.00000000000E+00 -0.45593999997E+02  0.45594000000E+02  0.51100000000E-03 0.  1.
    9900012    2    1    2    0    0 -0.12983529639E+02 -0.22129117456E+02  0.37024904447E+02  0.46142318403E+02  0.10000005854E+02 0.  0.
        -12    1    1    2    0    0  0.12983529639E+02  0.22129117456E+02 -0.37024904447E+02  0.45045681597E+02  0.00000000000E+00 0.  1.
         11    1    3    3    0    0 -0.98719538601E+01 -0.90154444318E+01  0.15944353282E+02  0.20807597487E+02  0.51100000000E-03 0. -1.
        -11    1    3    3    0    0 -0.25069205021E+01 -0.38277097369E+01  0.51814490855E+01  0.69125557590E+01  0.51100000000E-03 0.  1.
         12    1    3    3    0    0 -0.60465527634E+00 -0.92859632872E+01  0.15899102079E+02  0.18422165157E+02  0.00000000000E+00 0. -1.
</event>
<event>
 7    1  0.1563903E-008  0.4614232E+02  0.7816164E-02  0.1320468E+00
        -11   -1    0    0    0    0  0.00000000000E+00  0.00000000000E+00  0.45593999997E+02  0.45594000000E+02  0.51100000000E-03 0.  1.
         11   -1    0    0    0    0 -0.00000000000E+00 -0.00000000000E+00 -0.45593999997E+02  0.45594000000E+02  0.51100000000E-03 0. -1.
    9900012    2    1    2    0    0 -0.43077052481E+02 -0.12410275618E+02 -0.44120388169E+01  0.46142317877E+02  0.10000001058E+02 0.  0.
        -12    1    1    2    0    0  0.43077052481E+02  0.12410275618E+02  0.44120388169E+01  0.45045682123E+02  0.00000000000E+00 0.  1.
         11    1    3    3    0    0 -0.34066365514E+02 -0.11296189479E+02 -0.42295213213E+01  0.36138760451E+02  0.51100000000E-03 0. -1.
        -11    1    3    3    0    0  0.11820371753E+00 -0.85326822047E+00  0.95616697324E-01  0.86670732594E+00  0.51100000000E-03 0.  1.
        -12    1    3    3    0    0 -0.91288906848E+01 -0.26081791887E+00 -0.27813419293E+00  0.91368501000E+01  0.00000000000E+00 0.  1.
</event>
<event>
 7    1  0.1563903E-008  0.4614232E+02  0.7816164E-02  0.1320468E+00
        -11   -1    0    0    0    0  0.00000000000E+00  0.00000000000E+00  0.45593999997E+02  0.45594000000E+02  0.51100000000E-03 0. -1.
         11   -1    0    0    0    0 -0.00000000000E+00 -0.00000000000E+00 -0.45593999997E+02  0.45594000000E+02  0.51100000000E-03 0.  1.
    9900012    2    1    2    0    0  0.24262979915E+02 -0.32946811444E+02  0.18839549744E+02  0.46142320816E+02  0.10000027853E+02 0.  0.
        -12    1    1    2    0    0 -0.24262979915E+02  0.32946811444E+02 -0.18839549744E+02  0.45045679184E+02  0.00000000000E+00 0.  1.
         11    1    3    3    0    0  0.10640429915E+02 -0.91488686623E+01  0.61316991248E+01  0.15313989715E+02  0.51100000000E-03 0. -1.
        -11    1    3    3    0    0  0.41817234361E-01 -0.43748261156E+01  0.16544932360E+01  0.46774138530E+01  0.51100000000E-03 0.  1.
         12    1    3    3    0    0  0.13580732766E+02 -0.19423116666E+02  0.11053357383E+02  0.26150917248E+02  0.00000000000E+00 0. -1.
</event>
<event>
 7    1  0.1563903E-008  0.4614232E+02  0.7816164E-02  0.1320468E+00
        -11   -1    0    0    0    0  0.00000000000E+00  0.00000000000E+00  0.45593999997E+02  0.45594000000E+02  0.51100000000E-03 0.  1.
         11   -1    0    0    0    0 -0.00000000000E+00 -0.00000000000E+00 -0.45593999997E+02  0.45594000000E+02  0.51100000000E-03 0. -1.
    9900012    2    1    2    0    0  0.30743450402E+02  0.28867585061E+02 -0.15830862635E+02  0.46142318502E+02  0.10000006758E+02 0.  0.
        -12    1    1    2    0    0 -0.30743450402E+02 -0.28867585061E+02  0.15830862635E+02  0.45045681498E+02  0.00000000000E+00 0.  1.
         11    1    3    3    0    0  0.13454548983E+02  0.11678703207E+02 -0.96801729785E+01  0.20276162016E+02  0.51100000000E-03 0. -1.
        -11    1    3    3    0    0  0.38414770632E+01  0.92541993675E+00 -0.16863914907E+01  0.42961918727E+01  0.51100000000E-03 0.  1.
         12    1    3    3    0    0  0.13447424356E+02  0.16263461917E+02 -0.44642981656E+01  0.21569964614E+02  0.00000000000E+00 0. -1.
</event>
<event>
 7    1  0.1563903E-008  0.4614232E+02  0.7816164E-02  0.1320468E+00
        -11   -1    0    0    0    0  0.00000000000E+00  0.00000000000E+00  0.45593999997E+02  0.45594000000E+02  0.51100000000E-03 0.  1.
         11   -1    0    0    0    0 -0.00000000000E+00 -0.00000000000E+00 -0.45593999997E+02  0.45594000000E+02  0.51100000000E-03 0. -1.
    9900012    2    1    2    0    0 -0.13773369989E+02  0.14002917651E+01 -0.42865452282E+02  0.46142317219E+02  0.99999950573E+01 0.  0.
        -12    1    1    2    0    0  0.13773369989E+02 -0.14002917651E+01  0.42865452282E+02  0.45045682781E+02  0.00000000000E+00 0.  1.
         11    1    3    3    0    0 -0.42588950550E+01 -0.17711188218E+01 -0.66693344490E+01  0.81089500692E+01  0.51100000000E-03 0. -1.
        -11    1    3    3    0    0  0.62563153257E+00  0.23019806868E+00 -0.57458098757E+00  0.88008496054E+00  0.51100000000E-03 0.  1.
         12    1    3    3    0    0 -0.10140106467E+02  0.29412125183E+01 -0.35621536845E+02  0.37153282189E+02  0.00000000000E+00 0. -1.
</event>
<event>
 7    1  0.1563903E-008  0.4614232E+02  0.7816164E-02  0.1320468E+00
        -11   -1    0    0    0    0  0.00000000000E+00  0.00000000000E+00  0.45593999997E+02  0.45594000000E+02  0.51100000000E-03 0.  1.
         11   -1    0    0    0    0 -0.00000000000E+00 -0.00000000000E+00 -0.45593999997E+02  0.45594000000E+02  0.51100000000E-03 0. -1.
    9900012    2    1    2    0    0 -0.10911835220E+02 -0.27740819276E+02 -0.33771174250E+02  0.46142318607E+02  0.10000007710E+02 0.  0.
        -12    1    1    2    0    0  0.10911835220E+02  0.27740819276E+02  0.33771174250E+02  0.45045681393E+02  0.00000000000E+00 0.  1.
         11    1    3    3    0    0 -0.72202562860E+01 -0.14111178723E+02 -0.17650139441E+02  0.23723087665E+02  0.51100000000E-03 0. -1.
        -11    1    3    3    0    0 -0.43878890963E+01 -0.64504685523E+01 -0.53630153889E+01  0.94669979185E+01  0.51100000000E-03 0.  1.
        -12    1    3    3    0    0  0.69631016242E+00 -0.71791720003E+01 -0.10758019420E+02  0.12952233024E+02  0.00000000000E+00 0.  1.
</event>
<event>
 7    1  0.1563903E-008  0.4614232E+02  0.7816164E-02  0.1320468E+00
        -11   -1    0    0    0    0  0.00000000000E+00  0.00000000000E+00  0.45593999997E+02  0.45594000000E+02  0.51100000000E-03 0. -1.
         11   -1    0    0    0    0 -0.00000000000E+00 -0.00000000000E+00 -0.45593999997E+02  0.45594000000E+02  0.51100000000E-03 0.  1.
    9900012    2    1    2    0    0 -0.36748663708E+02 -0.51256155645E+01  0.25541678300E+02  0.46142317081E+02  0.99999937974E+01 0.  0.
        -12    1    1    2    0    0  0.36748663708E+02  0.51256155645E+01 -0.25541678300E+02  0.45045682919E+02  0.00000000000E+00 0.  1.
         11    1    3    3    0    0 -0.12322423755E+02  0.18248844360E+01  0.68799923861E+01  0.14230482279E+02  0.51100000000E-03 0. -1.
        -11    1    3    3    0    0 -0.11113373081E+01 -0.55005963528E+00 -0.18865020294E+00  0.12542828130E+01  0.51100000000E-03 0.  1.
         12    1    3    3    0    0 -0.23314902645E+02 -0.64004403652E+01  0.18850336117E+02  0.30657551989E+02  0.00000000000E+00 0. -1.
</event>
<event>
 7    1  0.1563903E-008  0.4614232E+02  0.7816164E-02  0.1320468E+00
        -11   -1    0    0    0    0  0.00000000000E+00  0.00000000000E+00  0.45593999997E+02  0.45594000000E+02  0.51100000000E-03 0.  1.
         11   -1    0    0    0    0 -0.00000000000E+00 -0.00000000000E+00 -0.45593999997E+02  0.45594000000E+02  0.51100000000E-03 0. -1.
    9900012    2    1    2    0    0 -0.11075330668E+01  0.30678134892E+02 -0.32965722668E+02  0.46142318065E+02  0.10000002771E+02 0.  0.
        -12    1    1    2    0    0  0.11075330668E+01 -0.30678134892E+02  0.32965722668E+02  0.45045681935E+02  0.00000000000E+00 0.  1.
         11    1    3    3    0    0  0.17655728215E+01  0.84662540348E+01 -0.10959358326E+02  0.13960739234E+02  0.51100000000E-03 0. -1.
        -11    1    3    3    0    0 -0.36824366515E+01  0.17843325706E+02 -0.13821891987E+02  0.22868959537E+02  0.51100000000E-03 0.  1.
        -12    1    3    3    0    0  0.80933076316E+00  0.43685551513E+01 -0.81844723544E+01  0.93126192940E+01  0.00000000000E+00 0.  1.
</event>
<event>
 7    1  0.1563903E-008  0.4614232E+02  0.7816164E-02  0.1320468E+00
        -11   -1    0    0    0    0  0.00000000000E+00  0.00000000000E+00  0.45593999997E+02  0.45594000000E+02  0.51100000000E-03 0.  1.
         11   -1    0    0    0    0 -0.00000000000E+00 -0.00000000000E+00 -0.45593999997E+02  0.45594000000E+02  0.51100000000E-03 0. -1.
    9900012    2    1    2    0    0 -0.12135904141E+02  0.14985498582E+02 -0.40709559136E+02  0.46142317165E+02  0.99999945604E+01 0.  0.
        -12    1    1    2    0    0  0.12135904141E+02 -0.14985498582E+02  0.40709559136E+02  0.45045682835E+02  0.00000000000E+00 0.  1.
         11    1    3    3    0    0 -0.59519751823E+01  0.72084384595E+01 -0.22264205078E+02  0.24147099652E+02  0.51100000000E-03 0. -1.
        -11    1    3    3    0    0 -0.23774206557E+01  0.10917993572E+01 -0.78394817050E+00  0.27310675213E+01  0.51100000000E-03 0.  1.
        -12    1    3    3    0    0 -0.38065083025E+01  0.66852607658E+01 -0.17661405887E+02  0.19264149991E+02  0.00000000000E+00 0.  1.
</event>
<event>
 7    1  0.1563903E-008  0.4614232E+02  0.7816164E-02  0.1320468E+00
        -11   -1    0    0    0    0  0.00000000000E+00  0.00000000000E+00  0.45593999997E+02  0.45594000000E+02  0.51100000000E-03 0.  1.
         11   -1    0    0    0    0 -0.00000000000E+00 -0.00000000000E+00 -0.45593999997E+02  0.45594000000E+02  0.51100000000E-03 0. -1.
    9900012    2    1    2    0    0 -0.17328065124E+02  0.71943687654E+01 -0.40952323911E+02  0.46142316338E+02  0.99999870186E+01 0.  0.
        -12    1    1    2    0    0  0.17328065124E+02 -0.71943687654E+01  0.40952323911E+02  0.45045683662E+02  0.00000000000E+00 0.  1.
         11    1    3    3    0    0 -0.70293998196E+00  0.31907328719E+01 -0.73003711823E+01  0.79981448185E+01  0.51100000000E-03 0. -1.
        -11    1    3    3    0    0 -0.22164480102E+01 -0.68012435345E+00 -0.20364623764E+01  0.30858370322E+01  0.51100000000E-03 0.  1.
         12    1    3    3    0    0 -0.14408677132E+02  0.46837602470E+01 -0.31615490353E+02  0.35058334487E+02  0.00000000000E+00 0. -1.
</event>
<event>
 7    1  0.1563903E-008  0.4614232E+02  0.7816164E-02  0.1320468E+00
        -11   -1    0    0    0    0  0.00000000000E+00  0.00000000000E+00  0.45593999997E+02  0.45594000000E+02  0.51100000000E-03 0.  1.
         11   -1    0    0    0    0 -0.00000000000E+00 -0.00000000000E+00 -0.45593999997E+02  0.45594000000E+02  0.51100000000E-03 0. -1.
    9900012    2    1    2    0    0 -0.41513340809E+02  0.39646519135E+01 -0.17030488891E+02  0.46142317834E+02  0.10000000667E+02 0.  0.
        -12    1    1    2    0    0  0.41513340809E+02 -0.39646519135E+01  0.17030488891E+02  0.45045682166E+02  0.00000000000E+00 0.  1.
         11    1    3    3    0    0 -0.17957884267E+02 -0.23890194228E+01 -0.86266958144E+01  0.20065216223E+02  0.51100000000E-03 0. -1.
        -11    1    3    3    0    0 -0.20315034898E+02  0.50920565347E+01 -0.57964755330E+01  0.21730826296E+02  0.51100000000E-03 0.  1.
         12    1    3    3    0    0 -0.32404216446E+01  0.12616148016E+01 -0.26073175435E+01  0.43462753152E+01  0.00000000000E+00 0. -1.
</event>
<event>
 7    1  0.1563903E-008  0.4614232E+02  0.7816164E-02  0.1320468E+00
        -11   -1    0    0    0    0  0.00000000000E+00  0.00000000000E+00  0.45593999997E+02  0.45594000000E+02  0.51100000000E-03 0.  1.
         11   -1    0    0    0    0 -0.00000000000E+00 -0.00000000000E+00 -0.45593999997E+02  0.45594000000E+02  0.51100000000E-03 0. -1.
    9900012    2    1    2    0    0  0.20451734079E+02 -0.28572619681E+02 -0.28185908761E+02  0.46142317910E+02  0.10000001358E+02 0.  0.
        -12    1    1    2    0    0 -0.20451734079E+02  0.28572619681E+02  0.28185908761E+02  0.45045682090E+02  0.00000000000E+00 0.  1.
         11    1    3    3    0    0  0.18219427915E+02 -0.23214623728E+02 -0.18450424899E+02  0.34803512576E+02  0.51100000000E-03 0. -1.
        -11    1    3    3    0    0  0.16010739881E+01 -0.41820774277E+01 -0.75290203681E+01  0.87601003129E+01  0.51100000000E-03 0.  1.
         12    1    3    3    0    0  0.63123217537E+00 -0.11759185249E+01 -0.22064634943E+01  0.25787050215E+01  0.00000000000E+00 0. -1.
</event>
<event>
 7    1  0.1563903E-008  0.4614232E+02  0.7816164E-02  0.1320468E+00
        -11   -1    0    0    0    0  0.00000000000E+00  0.00000000000E+00  0.45593999997E+02  0.45594000000E+02  0.51100000000E-03 0. -1.
         11   -1    0    0    0    0 -0.00000000000E+00 -0.00000000000E+00 -0.45593999997E+02  0.45594000000E+02  0.51100000000E-03 0.  1.
    9900012    2    1    2    0    0 -0.32329269370E+02  0.30158059413E+02 -0.86268944443E+01  0.46142317485E+02  0.99999974780E+01 0.  0.
        -12    1    1    2    0    0  0.32329269370E+02 -0.30158059413E+02  0.86268944443E+01  0.45045682515E+02  0.00000000000E+00 0.  1.
         11    1    3    3    0    0 -0.18299709556E+02  0.11027332702E+02 -0.33438656657E+01  0.21625514426E+02  0.51100000000E-03 0.  1.
        -11    1    3    3    0    0 -0.12331103051E+02  0.14862367987E+02 -0.37393457875E+01  0.19670505632E+02  0.51100000000E-03 0. -1.
        -12    1    3    3    0    0 -0.16984567635E+01  0.42683587233E+01 -0.15436829911E+01  0.48462974264E+01  0.00000000000E+00 0.  1.
</event>
<event>
 7    1  0.1563903E-008  0.4614232E+02  0.7816164E-02  0.1320468E+00
        -11   -1    0    0    0    0  0.00000000000E+00  0.00000000000E+00  0.45593999997E+02  0.45594000000E+02  0.51100000000E-03 0. -1.
         11   -1    0    0    0    0 -0.00000000000E+00 -0.00000000000E+00 -0.45593999997E+02  0.45594000000E+02  0.51100000000E-03 0.  1.
    9900012    2    1    2    0    0 -0.38057639847E+02  0.16821241958E+02  0.17256167995E+02  0.46142318014E+02  0.10000002306E+02 0.  0.
        -12    1    1    2    0    0  0.38057639847E+02 -0.16821241958E+02 -0.17256167995E+02  0.45045681986E+02  0.00000000000E+00 0.  1.
         11    1    3    3    0    0 -0.47458971829E+01  0.16743214470E+01  0.12982020503E+01  0.51973282755E+01  0.51100000000E-03 0. -1.
        -11    1    3    3    0    0 -0.23014515654E+02  0.12786919448E+02  0.15087973672E+02  0.30345019188E+02  0.51100000000E-03 0.  1.
        -12    1    3    3    0    0 -0.10297227010E+02  0.23600010639E+01  0.86999227227E+00  0.10599970550E+02  0.00000000000E+00 0.  1.
</event>
<event>
 7    1  0.1563903E-008  0.4614232E+02  0.7816164E-02  0.1320468E+00
        -11   -1    0    0    0    0  0.00000000000E+00  0.00000000000E+00  0.45593999997E+02  0.45594000000E+02  0.51100000000E-03 0.  1.
         11   -1    0    0    0    0 -0.00000000000E+00 -0.00000000000E+00 -0.45593999997E+02  0.45594000000E+02  0.51100000000E-03 0. -1.
    9900012    2    1    2    0    0 -0.16680600856E+02 -0.41703122376E+02 -0.34235373893E+01  0.46142317975E+02  0.10000001953E+02 0.  0.
        -12    1    1    2    0    0  0.16680600856E+02  0.41703122376E+02  0.34235373893E+01  0.45045682025E+02  0.00000000000E+00 0.  1.
         11    1    3    3    0    0 -0.93713431414E+00 -0.84870751488E+01  0.16356990447E+01  0.86939160871E+01  0.51100000000E-03 0. -1.
        -11    1    3    3    0    0 -0.11705819324E+02 -0.25960648251E+02 -0.18204135404E+01  0.28535861111E+02  0.51100000000E-03 0.  1.
        -12    1    3    3    0    0 -0.40376472179E+01 -0.72553989764E+01 -0.32388228936E+01  0.89125407768E+01  0.00000000000E+00 0.  1.
</event>
<event>
 7    1  0.1563903E-008  0.4614232E+02  0.7816164E-02  0.1320468E+00
        -11   -1    0    0    0    0  0.00000000000E+00  0.00000000000E+00  0.45593999997E+02  0.45594000000E+02  0.51100000000E-03 0.  1.
         11   -1    0    0    0    0 -0.00000000000E+00 -0.00000000000E+00 -0.45593999997E+02  0.45594000000E+02  0.51100000000E-03 0. -1.
    9900012    2    1    2    0    0 -0.41388767396E+02 -0.10695001795E+02 -0.14202111866E+02  0.46142321945E+02  0.10000038153E+02 0.  0.
        -12    1    1    2    0    0  0.41388767396E+02  0.10695001795E+02  0.14202111866E+02  0.45045678055E+02  0.00000000000E+00 0.  1.
         11    1    3    3    0    0 -0.13594753760E+01 -0.72065424413E+00 -0.10352320664E+01  0.18545138258E+01  0.51100000000E-03 0. -1.
        -11    1    3    3    0    0 -0.39897252861E+02 -0.85764014438E+01 -0.13177914363E+02  0.42883596803E+02  0.51100000000E-03 0.  1.
        -12    1    3    3    0    0 -0.13203915950E+00 -0.13979461073E+01  0.11034563838E-01  0.14042113161E+01  0.00000000000E+00 0.  1.
</event>
<event>
 7    1  0.1563903E-008  0.4614231E+02  0.7816164E-02  0.1320468E+00
        -11   -1    0    0    0    0  0.00000000000E+00  0.00000000000E+00  0.45593999997E+02  0.45594000000E+02  0.51100000000E-03 0.  1.
         11   -1    0    0    0    0 -0.00000000000E+00 -0.00000000000E+00 -0.45593999997E+02  0.45594000000E+02  0.51100000000E-03 0. -1.
    9900012    2    1    2    0    0 -0.81735802798E+01 -0.17548133246E+02 -0.40673940374E+02  0.46142314074E+02  0.99999663756E+01 0.  0.
        -12    1    1    2    0    0  0.81735802798E+01  0.17548133246E+02  0.40673940374E+02  0.45045685926E+02  0.00000000000E+00 0.  1.
         11    1    3    3    0    0 -0.46124091324E+01 -0.28749883525E+01 -0.68497781834E+01  0.87441030103E+01  0.51100000000E-03 0. -1.
        -11    1    3    3    0    0 -0.17621074767E+01 -0.38330961812E+01 -0.49499425862E+01  0.65038128018E+01  0.51100000000E-03 0.  1.
         12    1    3    3    0    0 -0.17990636707E+01 -0.10840048712E+02 -0.28874219605E+02  0.30894398262E+02  0.00000000000E+00 0. -1.
</event>
<event>
 7    1  0.1563903E-008  0.4614232E+02  0.7816164E-02  0.1320468E+00
        -11   -1    0    0    0    0  0.00000000000E+00  0.00000000000E+00  0.45593999997E+02  0.45594000000E+02  0.51100000000E-03 0. -1.
         11   -1    0    0    0    0 -0.00000000000E+00 -0.00000000000E+00 -0.45593999997E+02  0.45594000000E+02  0.51100000000E-03 0.  1.
    9900012    2    1    2    0    0 -0.17134358551E+01  0.44704587533E+02 -0.52609363157E+01  0.46142318078E+02  0.10000002888E+02 0.  0.
        -12    1    1    2    0    0  0.17134358551E+01 -0.44704587533E+02  0.52609363157E+01  0.45045681922E+02  0.00000000000E+00 0.  1.
         11    1    3    3    0    0 -0.15340735530E+01  0.29125614112E+02 -0.47420806304E+01  0.29548978122E+02  0.51100000000E-03 0. -1.
        -11    1    3    3    0    0 -0.18620331478E+00  0.15636406880E+02 -0.14094166102E+01  0.15700902752E+02  0.51100000000E-03 0.  1.
        -12    1    3    3    0    0  0.68410126488E-02 -0.57433459385E-01  0.89056092490E+00  0.89243720377E+00  0.00000000000E+00 0.  1.
</event>
<event>
 7    1  0.1563903E-008  0.4614232E+02  0.7816164E-02  0.1320468E+00
        -11   -1    0    0    0    0  0.00000000000E+00  0.00000000000E+00  0.45593999997E+02  0.45594000000E+02  0.51100000000E-03 0.  1.
         11   -1    0    0    0    0 -0.00000000000E+00 -0.00000000000E+00 -0.45593999997E+02  0.45594000000E+02  0.51100000000E-03 0. -1.
    9900012    2    1    2    0    0 -0.29401668707E+01 -0.29480216585E+02 -0.33932076476E+02  0.46142316909E+02  0.99999922312E+01 0.  0.
        -12    1    1    2    0    0  0.29401668707E+01  0.29480216585E+02  0.33932076476E+02  0.45045683091E+02  0.00000000000E+00 0.  1.
         11    1    3    3    0    0  0.10939200038E+00 -0.14899797863E+02 -0.22409985133E+02  0.26911398642E+02  0.51100000000E-03 0. -1.
        -11    1    3    3    0    0  0.67175316217E+00 -0.11764254736E+01 -0.37756354500E+00  0.14063369786E+01  0.51100000000E-03 0.  1.
         12    1    3    3    0    0 -0.37213120332E+01 -0.13403993248E+02 -0.11144527798E+02  0.17824581288E+02  0.00000000000E+00 0. -1.
</event>
<event>
 7    1  0.1563903E-008  0.4614232E+02  0.7816164E-02  0.1320468E+00
        -11   -1    0    0    0    0  0.00000000000E+00  0.00000000000E+00  0.45593999997E+02  0.45594000000E+02  0.51100000000E-03 0. -1.
         11   -1    0    0    0    0 -0.00000000000E+00 -0.00000000000E+00 -0.45593999997E+02  0.45594000000E+02  0.51100000000E-03 0.  1.
    9900012    2    1    2    0    0  0.34752878984E+01 -0.42219396655E+02  0.15315299531E+02  0.46142317858E+02  0.10000000885E+02 0.  0.
        -12    1    1    2    0    0 -0.34752878984E+01  0.42219396655E+02 -0.15315299531E+02  0.45045682142E+02  0.00000000000E+00 0.  1.
         11    1    3    3    0    0  0.35671159702E+01 -0.12987289377E+02  0.27173827672E+01  0.13739656876E+02  0.51100000000E-03 0. -1.
        -11    1    3    3    0    0 -0.27079504524E+01 -0.82425684290E+01  0.42764153666E+01  0.96726758763E+01  0.51100000000E-03 0.  1.
         12    1    3    3    0    0  0.26161223806E+01 -0.20989538849E+02  0.83215013972E+01  0.22729985106E+02  0.00000000000E+00 0. -1.
</event>
<event>
 7    1  0.1563903E-008  0.4614231E+02  0.7816164E-02  0.1320468E+00
        -11   -1    0    0    0    0  0.00000000000E+00  0.00000000000E+00  0.45593999997E+02  0.45594000000E+02  0.51100000000E-03 0. -1.
         11   -1    0    0    0    0 -0.00000000000E+00 -0.00000000000E+00 -0.45593999997E+02  0.45594000000E+02  0.51100000000E-03 0.  1.
    9900012    2    1    2    0    0 -0.22243742848E+02 -0.30179686842E+02  0.24970310514E+02  0.46142312072E+02  0.99999481217E+01 0.  0.
        -12    1    1    2    0    0  0.22243742848E+02  0.30179686842E+02 -0.24970310514E+02  0.45045687928E+02  0.00000000000E+00 0.  1.
         11    1    3    3    0    0 -0.49081248840E+01 -0.10983527859E+02  0.91293161771E+01  0.15102052451E+02  0.51100000000E-03 0. -1.
        -11    1    3    3    0    0 -0.78643780944E+01 -0.94776453921E+01  0.37742574501E+01  0.12880963650E+02  0.51100000000E-03 0.  1.
         12    1    3    3    0    0 -0.94712398694E+01 -0.97185135909E+01  0.12066736887E+02  0.18159295971E+02  0.00000000000E+00 0. -1.
</event>
<event>
 7    1  0.1563903E-008  0.4614232E+02  0.7816164E-02  0.1320468E+00
        -11   -1    0    0    0    0  0.00000000000E+00  0.00000000000E+00  0.45593999997E+02  0.45594000000E+02  0.51100000000E-03 0.  1.
         11   -1    0    0    0    0 -0.00000000000E+00 -0.00000000000E+00 -0.45593999997E+02  0.45594000000E+02  0.51100000000E-03 0. -1.
    9900012    2    1    2    0    0  0.37220396807E+02 -0.21610348281E+01 -0.25280140344E+02  0.46142317568E+02  0.99999982377E+01 0.  0.
        -12    1    1    2    0    0 -0.37220396807E+02  0.21610348281E+01  0.25280140344E+02  0.45045682432E+02  0.00000000000E+00 0.  1.
         11    1    3    3    0    0  0.14294471797E+02 -0.10044906773E+01 -0.59138747036E+01  0.15502091463E+02  0.51100000000E-03 0.  1.
        -11    1    3    3    0    0  0.15999236730E+02 -0.27651285396E+00 -0.96870440960E+01  0.18705369787E+02  0.51100000000E-03 0. -1.
        -12    1    3    3    0    0  0.69266882802E+01 -0.88003129689E+00 -0.96792215442E+01  0.11934856317E+02  0.00000000000E+00 0.  1.
</event>
<event>
 7    1  0.1563903E-008  0.4614232E+02  0.7816164E-02  0.1320468E+00
        -11   -1    0    0    0    0  0.00000000000E+00  0.00000000000E+00  0.45593999997E+02  0.45594000000E+02  0.51100000000E-03 0. -1.
         11   -1    0    0    0    0 -0.00000000000E+00 -0.00000000000E+00 -0.45593999997E+02  0.45594000000E+02  0.51100000000E-03 0.  1.
    9900012    2    1    2    0    0  0.12991945332E+02 -0.38661236569E+02 -0.19121495188E+02  0.46142318356E+02  0.10000005424E+02 0.  0.
        -12    1    1    2    0    0 -0.12991945332E+02  0.38661236569E+02  0.19121495188E+02  0.45045681644E+02  0.00000000000E+00 0.  1.
         11    1    3    3    0    0  0.13522786041E+02 -0.27847208373E+02 -0.15482363415E+02  0.34612661465E+02  0.51100000000E-03 0. -1.
        -11    1    3    3    0    0 -0.81795956018E+00 -0.63862265538E+01 -0.15345903351E+01  0.66187548071E+01  0.51100000000E-03 0.  1.
         12    1    3    3    0    0  0.28711885100E+00 -0.44278016426E+01 -0.21045414373E+01  0.49109020843E+01  0.00000000000E+00 0. -1.
</event>
<event>
 7    1  0.1563903E-008  0.4614232E+02  0.7816164E-02  0.1320468E+00
        -11   -1    0    0    0    0  0.00000000000E+00  0.00000000000E+00  0.45593999997E+02  0.45594000000E+02  0.51100000000E-03 0. -1.
         11   -1    0    0    0    0 -0.00000000000E+00 -0.00000000000E+00 -0.45593999997E+02  0.45594000000E+02  0.51100000000E-03 0.  1.
    9900012    2    1    2    0    0 -0.62230003280E+01  0.44557032349E+02  0.22491448608E+01  0.46142317438E+02  0.99999970537E+01 0.  0.
        -12    1    1    2    0    0  0.62230003280E+01 -0.44557032349E+02 -0.22491448608E+01  0.45045682562E+02  0.00000000000E+00 0.  1.
         11    1    3    3    0    0 -0.48298296364E+01  0.35708904283E+02  0.26467171214E+00  0.36035026721E+02  0.51100000000E-03 0. -1.
        -11    1    3    3    0    0  0.79218404182E+00 -0.13247818463E-02  0.90802242625E-01  0.79737232178E+00  0.51100000000E-03 0.  1.
         12    1    3    3    0    0 -0.21853547334E+01  0.88494528482E+01  0.18936709060E+01  0.93099183951E+01  0.00000000000E+00 0. -1.
</event>
<event>
 7    1  0.1563903E-008  0.4614232E+02  0.7816164E-02  0.1320468E+00
        -11   -1    0    0    0    0  0.00000000000E+00  0.00000000000E+00  0.45593999997E+02  0.45594000000E+02  0.51100000000E-03 0.  1.
         11   -1    0    0    0    0 -0.00000000000E+00 -0.00000000000E+00 -0.45593999997E+02  0.45594000000E+02  0.51100000000E-03 0. -1.
    9900012    2    1    2    0    0  0.13126646718E+02 -0.42877995623E+02  0.42757593553E+01  0.46142317846E+02  0.10000000771E+02 0.  0.
        -12    1    1    2    0    0 -0.13126646718E+02  0.42877995623E+02 -0.42757593553E+01  0.45045682154E+02  0.00000000000E+00 0.  1.
         11    1    3    3    0    0  0.22374741660E+01 -0.12540279052E+01 -0.14893971038E+00  0.25692527958E+01  0.51100000000E-03 0. -1.
        -11    1    3    3    0    0  0.12638877728E+01 -0.10387841580E+01  0.11413384986E+00  0.16399730565E+01  0.51100000000E-03 0.  1.
         12    1    3    3    0    0  0.96252847796E+01 -0.40585183559E+02  0.43105652158E+01  0.41933091993E+02  0.00000000000E+00 0. -1.
</event>
<event>
 7    1  0.1563903E-008  0.4614232E+02  0.7816164E-02  0.1320468E+00
        -11   -1    0    0    0    0  0.00000000000E+00  0.00000000000E+00  0.45593999997E+02  0.45594000000E+02  0.51100000000E-03 0.  1.
         11   -1    0    0    0    0 -0.00000000000E+00 -0.00000000000E+00 -0.45593999997E+02  0.45594000000E+02  0.51100000000E-03 0. -1.
    9900012    2    1    2    0    0 -0.48281129820E+01 -0.44705954174E+02 -0.26796248486E+01  0.46142318710E+02  0.10000008649E+02 0.  0.
        -12    1    1    2    0    0  0.48281129820E+01  0.44705954174E+02  0.26796248486E+01  0.45045681290E+02  0.00000000000E+00 0.  1.
         11    1    3    3    0    0  0.22851789285E+01 -0.12284661137E+02  0.73621577598E+00  0.12517066586E+02  0.51100000000E-03 0.  1.
        -11    1    3    3    0    0 -0.43249952069E+01 -0.22659277356E+02 -0.41804918416E+01  0.23444081260E+02  0.51100000000E-03 0. -1.
        -12    1    3    3    0    0 -0.27882967036E+01 -0.97620156818E+01  0.76465121706E+00  0.10181170864E+02  0.00000000000E+00 0.  1.
</event>
<event>
 7    1  0.1563903E-008  0.4614232E+02  0.7816164E-02  0.1320468E+00
        -11   -1    0    0    0    0  0.00000000000E+00  0.00000000000E+00  0.45593999997E+02  0.45594000000E+02  0.51100000000E-03 0. -1.
         11   -1    0    0    0    0 -0.00000000000E+00 -0.00000000000E+00 -0.45593999997E+02  0.45594000000E+02  0.51100000000E-03 0.  1.
    9900012    2    1    2    0    0 -0.32516980488E+02  0.26371665099E+02  0.16622110757E+02  0.46142319783E+02  0.10000018438E+02 0.  0.
        -12    1    1    2    0    0  0.32516980488E+02 -0.26371665099E+02 -0.16622110757E+02  0.45045680217E+02  0.00000000000E+00 0.  1.
         11    1    3    3    0    0 -0.17114487194E+02  0.12033835449E+02  0.54390731720E+01  0.21617178001E+02  0.51100000000E-03 0. -1.
        -11    1    3    3    0    0 -0.79648209699E+01  0.10123651730E+02  0.89637967247E+01  0.15693194366E+02  0.51100000000E-03 0.  1.
        -12    1    3    3    0    0 -0.74376723243E+01  0.42141779205E+01  0.22192408604E+01  0.88319474153E+01  0.00000000000E+00 0.  1.
</event>
<event>
 7    1  0.1563903E-008  0.4614232E+02  0.7816164E-02  0.1320468E+00
        -11   -1    0    0    0    0  0.00000000000E+00  0.00000000000E+00  0.45593999997E+02  0.45594000000E+02  0.51100000000E-03 0.  1.
         11   -1    0    0    0    0 -0.00000000000E+00 -0.00000000000E+00 -0.45593999997E+02  0.45594000000E+02  0.51100000000E-03 0. -1.
    9900012    2    1    2    0    0 -0.26834680750E+02 -0.25289134752E+02 -0.25874175993E+02  0.46142318622E+02  0.10000007852E+02 0.  0.
        -12    1    1    2    0    0  0.26834680750E+02  0.25289134752E+02  0.25874175993E+02  0.45045681378E+02  0.00000000000E+00 0.  1.
         11    1    3    3    0    0 -0.11338955245E+02 -0.77703693821E+01 -0.69145356628E+01  0.15387051377E+02  0.51100000000E-03 0. -1.
        -11    1    3    3    0    0 -0.30905173694E+01 -0.47719039914E+01 -0.81642209593E+01  0.99487119492E+01  0.51100000000E-03 0.  1.
         12    1    3    3    0    0 -0.12405208136E+02 -0.12746861378E+02 -0.10795419371E+02  0.20806555296E+02  0.00000000000E+00 0. -1.
</event>
<event>
 7    1  0.1563903E-008  0.4614232E+02  0.7816164E-02  0.1320468E+00
        -11   -1    0    0    0    0  0.00000000000E+00  0.00000000000E+00  0.45593999997E+02  0.45594000000E+02  0.51100000000E-03 0. -1.
         11   -1    0    0    0    0 -0.00000000000E+00 -0.00000000000E+00 -0.45593999997E+02  0.45594000000E+02  0.51100000000E-03 0.  1.
    9900012    2    1    2    0    0 -0.40226292801E+02 -0.18720086032E+02  0.77792821775E+01  0.46142317801E+02  0.10000000362E+02 0.  0.
        -12    1    1    2    0    0  0.40226292801E+02  0.18720086032E+02 -0.77792821775E+01  0.45045682199E+02  0.00000000000E+00 0.  1.
         11    1    3    3    0    0 -0.17147806793E+01 -0.31510193489E+01  0.48849893939E+00  0.36205009584E+01  0.51100000000E-03 0.  1.
        -11    1    3    3    0    0 -0.33177110697E+02 -0.15240533199E+02  0.57546815287E+01  0.36960937301E+02  0.51100000000E-03 0. -1.
        -12    1    3    3    0    0 -0.53344014251E+01 -0.32853348436E+00  0.15361017094E+01  0.55608795416E+01  0.00000000000E+00 0.  1.
</event>
<event>
 7    1  0.1563903E-008  0.4614232E+02  0.7816164E-02  0.1320468E+00
        -11   -1    0    0    0    0  0.00000000000E+00  0.00000000000E+00  0.45593999997E+02  0.45594000000E+02  0.51100000000E-03 0.  1.
         11   -1    0    0    0    0 -0.00000000000E+00 -0.00000000000E+00 -0.45593999997E+02  0.45594000000E+02  0.51100000000E-03 0. -1.
    9900012    2    1    2    0    0 -0.35378791019E+02  0.32405517509E+01 -0.27693924465E+02  0.46142317833E+02  0.10000000654E+02 0.  0.
        -12    1    1    2    0    0  0.35378791019E+02 -0.32405517509E+01  0.27693924465E+02  0.45045682167E+02  0.00000000000E+00 0.  1.
         11    1    3    3    0    0 -0.16120343762E+02  0.14748596372E+01 -0.12583129907E+02  0.20503069342E+02  0.51100000000E-03 0. -1.
        -11    1    3    3    0    0 -0.10869912391E+02  0.45319782906E+01 -0.98904703392E+01  0.15379051545E+02  0.51100000000E-03 0.  1.
        -12    1    3    3    0    0 -0.83885348663E+01 -0.27662861768E+01 -0.52203242189E+01  0.10260196946E+02  0.00000000000E+00 0.  1.
</event>
<event>
 7    1  0.1563903E-008  0.4614232E+02  0.7816164E-02  0.1320468E+00
        -11   -1    0    0    0    0  0.00000000000E+00  0.00000000000E+00  0.45593999997E+02  0.45594000000E+02  0.51100000000E-03 0. -1.
         11   -1    0    0    0    0 -0.00000000000E+00 -0.00000000000E+00 -0.45593999997E+02  0.45594000000E+02  0.51100000000E-03 0.  1.
    9900012    2    1    2    0    0 -0.26911356778E+02 -0.12556132311E+02  0.33870871691E+02  0.46142317284E+02  0.99999956507E+01 0.  0.
        -12    1    1    2    0    0  0.26911356778E+02  0.12556132311E+02 -0.33870871691E+02  0.45045682716E+02  0.00000000000E+00 0.  1.
         11    1    3    3    0    0 -0.76880504296E+01 -0.24137307891E+01  0.15062676614E+02  0.17082635709E+02  0.51100000000E-03 0. -1.
        -11    1    3    3    0    0 -0.14472526364E+02 -0.83815761573E+01  0.16494295779E+02  0.23489713317E+02  0.51100000000E-03 0.  1.
        -12    1    3    3    0    0 -0.47507799851E+01 -0.17608253649E+01  0.23138992975E+01  0.55699682577E+01  0.00000000000E+00 0.  1.
</event>
<event>
 7    1  0.1563903E-008  0.4614232E+02  0.7816164E-02  0.1320468E+00
        -11   -1    0    0    0    0  0.00000000000E+00  0.00000000000E+00  0.45593999997E+02  0.45594000000E+02  0.51100000000E-03 0. -1.
         11   -1    0    0    0    0 -0.00000000000E+00 -0.00000000000E+00 -0.45593999997E+02  0.45594000000E+02  0.51100000000E-03 0.  1.
    9900012    2    1    2    0    0 -0.43451382391E+02  0.52422262798E+01  0.10658795185E+02  0.46142317822E+02  0.10000000556E+02 0.  0.
        -12    1    1    2    0    0  0.43451382391E+02 -0.52422262798E+01 -0.10658795185E+02  0.45045682178E+02  0.00000000000E+00 0.  1.
         11    1    3    3    0    0 -0.24415951983E+02 -0.45069083782E+00  0.72049835699E+01  0.25460825241E+02  0.51100000000E-03 0. -1.
        -11    1    3    3    0    0 -0.79246592383E+01  0.42867890489E+01  0.17314527031E+00  0.90114795643E+01  0.51100000000E-03 0.  1.
        -12    1    3    3    0    0 -0.11110771170E+02  0.14061280687E+01  0.32806663450E+01  0.11670013017E+02  0.00000000000E+00 0.  1.
</event>
<event>
 7    1  0.1563903E-008  0.4614232E+02  0.7816164E-02  0.1320468E+00
        -11   -1    0    0    0    0  0.00000000000E+00  0.00000000000E+00  0.45593999997E+02  0.45594000000E+02  0.51100000000E-03 0. -1.
         11   -1    0    0    0    0 -0.00000000000E+00 -0.00000000000E+00 -0.45593999997E+02  0.45594000000E+02  0.51100000000E-03 0.  1.
    9900012    2    1    2    0    0 -0.43084591225E+02 -0.44087685213E+00  0.13139138205E+02  0.46142319562E+02  0.10000016418E+02 0.  0.
        -12    1    1    2    0    0  0.43084591225E+02  0.44087685213E+00 -0.13139138205E+02  0.45045680438E+02  0.00000000000E+00 0.  1.
         11    1    3    3    0    0 -0.18529852021E+02  0.23604339653E+01  0.84901387940E+01  0.20518516551E+02  0.51100000000E-03 0. -1.
        -11    1    3    3    0    0 -0.49052833978E+01  0.13660802825E+01  0.13531813608E+01  0.52686886991E+01  0.51100000000E-03 0.  1.
         12    1    3    3    0    0 -0.19649455805E+02 -0.41673910999E+01  0.32958180504E+01  0.20355114312E+02  0.00000000000E+00 0. -1.
</event>
<event>
 7    1  0.1563903E-008  0.4614232E+02  0.7816164E-02  0.1320468E+00
        -11   -1    0    0    0    0  0.00000000000E+00  0.00000000000E+00  0.45593999997E+02  0.45594000000E+02  0.51100000000E-03 0.  1.
         11   -1    0    0    0    0 -0.00000000000E+00 -0.00000000000E+00 -0.45593999997E+02  0.45594000000E+02  0.51100000000E-03 0. -1.
    9900012    2    1    2    0    0  0.13872287969E+02  0.12445725787E+02 -0.41009474461E+02  0.46142318082E+02  0.10000002929E+02 0.  0.
        -12    1    1    2    0    0 -0.13872287969E+02 -0.12445725787E+02  0.41009474461E+02  0.45045681918E+02  0.00000000000E+00 0.  1.
         11    1    3    3    0    0  0.14383787196E+02  0.10281537287E+02 -0.35246143249E+02  0.39432143706E+02  0.51100000000E-03 0. -1.
        -11    1    3    3    0    0 -0.11817772450E+01  0.22887562861E+01 -0.52789401580E+01  0.58738583782E+01  0.51100000000E-03 0.  1.
         12    1    3    3    0    0  0.67027801835E+00 -0.12456778614E+00 -0.48439105411E+00  0.83631599801E+00  0.00000000000E+00 0. -1.
</event>
<event>
 7    1  0.1563903E-008  0.4614232E+02  0.7816164E-02  0.1320468E+00
        -11   -1    0    0    0    0  0.00000000000E+00  0.00000000000E+00  0.45593999997E+02  0.45594000000E+02  0.51100000000E-03 0.  1.
         11   -1    0    0    0    0 -0.00000000000E+00 -0.00000000000E+00 -0.45593999997E+02  0.45594000000E+02  0.51100000000E-03 0. -1.
    9900012    2    1    2    0    0  0.82446981192E+01  0.25103077509E+02 -0.36482515555E+02  0.46142317758E+02  0.99999999678E+01 0.  0.
        -12    1    1    2    0    0 -0.82446981192E+01 -0.25103077509E+02  0.36482515555E+02  0.45045682242E+02  0.00000000000E+00 0.  1.
         11    1    3    3    0    0  0.20321913600E+01  0.57447292373E-01 -0.47100434007E+01  0.51300692990E+01  0.51100000000E-03 0. -1.
        -11    1    3    3    0    0 -0.81363239832E-01  0.18164628370E+01 -0.29221467141E+01  0.34416709452E+01  0.51100000000E-03 0.  1.
         12    1    3    3    0    0  0.62938699990E+01  0.23229167379E+02 -0.28850325440E+02  0.37570577513E+02  0.00000000000E+00 0. -1.
</event>
<event>
 7    1  0.1563903E-008  0.4614232E+02  0.7816164E-02  0.1320468E+00
        -11   -1    0    0    0    0  0.00000000000E+00  0.00000000000E+00  0.45593999997E+02  0.45594000000E+02  0.51100000000E-03 0. -1.
         11   -1    0    0    0    0 -0.00000000000E+00 -0.00000000000E+00 -0.45593999997E+02  0.45594000000E+02  0.51100000000E-03 0.  1.
    9900012    2    1    2    0    0 -0.36681055912E+02  0.14514518035E+02  0.21747236766E+02  0.46142318702E+02  0.10000008580E+02 0.  0.
        -12    1    1    2    0    0  0.36681055912E+02 -0.14514518035E+02 -0.21747236766E+02  0.45045681298E+02  0.00000000000E+00 0.  1.
         11    1    3    3    0    0 -0.11509885454E+02  0.38527170116E+01  0.20365858701E+01  0.12307256957E+02  0.51100000000E-03 0. -1.
        -11    1    3    3    0    0 -0.19419185318E+02  0.70767949185E+01  0.13902592252E+02  0.24909192205E+02  0.51100000000E-03 0.  1.
         12    1    3    3    0    0 -0.57519851406E+01  0.35850061049E+01  0.58080586444E+01  0.89258695401E+01  0.00000000000E+00 0. -1.
</event>
<event>
 7    1  0.1563903E-008  0.4614232E+02  0.7816164E-02  0.1320468E+00
        -11   -1    0    0    0    0  0.00000000000E+00  0.00000000000E+00  0.45593999997E+02  0.45594000000E+02  0.51100000000E-03 0.  1.
         11   -1    0    0    0    0 -0.00000000000E+00 -0.00000000000E+00 -0.45593999997E+02  0.45594000000E+02  0.51100000000E-03 0. -1.
    9900012    2    1    2    0    0  0.42208010950E+02 -0.41781707113E+01 -0.15170372672E+02  0.46142317567E+02  0.99999982339E+01 0.  0.
        -12    1    1    2    0    0 -0.42208010950E+02  0.41781707113E+01  0.15170372672E+02  0.45045682433E+02  0.00000000000E+00 0.  1.
         11    1    3    3    0    0  0.21167247851E+02 -0.18246178504E+01 -0.11863238037E+02  0.24333475478E+02  0.51100000000E-03 0. -1.
        -11    1    3    3    0    0  0.10516879987E+01 -0.77540211343E+00  0.50055406127E+00  0.13992321871E+01  0.51100000000E-03 0.  1.
         12    1    3    3    0    0  0.19989075100E+02 -0.15781507475E+01 -0.38076886961E+01  0.20409609902E+02  0.00000000000E+00 0. -1.
</event>
<event>
 7    1  0.1563903E-008  0.4614232E+02  0.7816164E-02  0.1320468E+00
        -11   -1    0    0    0    0  0.00000000000E+00  0.00000000000E+00  0.45593999997E+02  0.45594000000E+02  0.51100000000E-03 0.  1.
         11   -1    0    0    0    0 -0.00000000000E+00 -0.00000000000E+00 -0.45593999997E+02  0.45594000000E+02  0.51100000000E-03 0. -1.
    9900012    2    1    2    0    0  0.67395217506E+01  0.53341935721E+01 -0.44218081492E+02  0.46142317573E+02  0.99999982859E+01 0.  0.
        -12    1    1    2    0    0 -0.67395217506E+01 -0.53341935721E+01  0.44218081492E+02  0.45045682427E+02  0.00000000000E+00 0.  1.
         11    1    3    3    0    0  0.15310594943E+00  0.45634897779E+01 -0.23758937060E+02  0.24193717591E+02  0.51100000000E-03 0. -1.
        -11    1    3    3    0    0  0.69207603449E+01 -0.18657115339E+00 -0.17451294306E+02  0.18774434898E+02  0.51100000000E-03 0.  1.
         12    1    3    3    0    0 -0.33434454369E+00  0.95727494759E+00 -0.30078501255E+01  0.31741650834E+01  0.00000000000E+00 0. -1.
</event>
<event>
 7    1  0.1563903E-008  0.4614232E+02  0.7816164E-02  0.1320468E+00
        -11   -1    0    0    0    0  0.00000000000E+00  0.00000000000E+00  0.45593999997E+02  0.45594000000E+02  0.51100000000E-03 0.  1.
         11   -1    0    0    0    0 -0.00000000000E+00 -0.00000000000E+00 -0.45593999997E+02  0.45594000000E+02  0.51100000000E-03 0. -1.
    9900012    2    1    2    0    0 -0.11860602208E+01  0.24550557429E+02 -0.37748865222E+02  0.46142318359E+02  0.10000005454E+02 0.  0.
        -12    1    1    2    0    0  0.11860602208E+01 -0.24550557429E+02  0.37748865222E+02  0.45045681641E+02  0.00000000000E+00 0.  1.
         11    1    3    3    0    0 -0.40123075921E+00  0.13448674065E+02 -0.15870877745E+02  0.20806551393E+02  0.51100000000E-03 0. -1.
        -11    1    3    3    0    0  0.48574870721E+00  0.52231837177E+01 -0.16335034266E+02  0.17156658902E+02  0.51100000000E-03 0.  1.
        -12    1    3    3    0    0 -0.12705781688E+01  0.58786996470E+01 -0.55429532109E+01  0.81791080639E+01  0.00000000000E+00 0.  1.
</event>
<event>
 7    1  0.1563903E-008  0.4614233E+02  0.7816164E-02  0.1320468E+00
        -11   -1    0    0    0    0  0.00000000000E+00  0.00000000000E+00  0.45593999997E+02  0.45594000000E+02  0.51100000000E-03 0. -1.
         11   -1    0    0    0    0 -0.00000000000E+00 -0.00000000000E+00 -0.45593999997E+02  0.45594000000E+02  0.51100000000E-03 0.  1.
    9900012    2    1    2    0    0  0.10280854695E+02 -0.20641447098E+02  0.38695571324E+02  0.46142328159E+02  0.10000094816E+02 0.  0.
        -12    1    1    2    0    0 -0.10280854695E+02  0.20641447098E+02 -0.38695571324E+02  0.45045671841E+02  0.00000000000E+00 0.  1.
         11    1    3    3    0    0  0.76370831984E+01 -0.86534985971E+01  0.15036917052E+02  0.18955657531E+02  0.51100000000E-03 0. -1.
        -11    1    3    3    0    0  0.13727090037E+00 -0.94880051768E+01  0.19761826242E+02  0.21921926517E+02  0.51100000000E-03 0.  1.
        -12    1    3    3    0    0  0.25065005959E+01 -0.24999433238E+01  0.38968280289E+01  0.52647441102E+01  0.00000000000E+00 0.  1.
</event>
<event>
 7    1  0.1563903E-008  0.4614232E+02  0.7816164E-02  0.1320468E+00
        -11   -1    0    0    0    0  0.00000000000E+00  0.00000000000E+00  0.45593999997E+02  0.45594000000E+02  0.51100000000E-03 0. -1.
         11   -1    0    0    0    0 -0.00000000000E+00 -0.00000000000E+00 -0.45593999997E+02  0.45594000000E+02  0.51100000000E-03 0.  1.
    9900012    2    1    2    0    0  0.26627340047E+02  0.36221041665E+02  0.28520034254E+01  0.46142322951E+02  0.10000047325E+02 0.  0.
        -12    1    1    2    0    0 -0.26627340047E+02 -0.36221041665E+02 -0.28520034254E+01  0.45045677049E+02  0.00000000000E+00 0.  1.
         11    1    3    3    0    0  0.14500460009E+01  0.68443112709E+01 -0.93204831945E+00  0.70580411240E+01  0.51100000000E-03 0. -1.
        -11    1    3    3    0    0  0.22113484223E+02  0.24658038508E+02  0.44497495524E+01  0.33418936532E+02  0.51100000000E-03 0.  1.
         12    1    3    3    0    0  0.30638098228E+01  0.47186918858E+01 -0.66569780755E+00  0.56653452952E+01  0.00000000000E+00 0. -1.
</event>
<event>
 7    1  0.1563903E-008  0.4614232E+02  0.7816164E-02  0.1320468E+00
        -11   -1    0    0    0    0  0.00000000000E+00  0.00000000000E+00  0.45593999997E+02  0.45594000000E+02  0.51100000000E-03 0.  1.
         11   -1    0    0    0    0 -0.00000000000E+00 -0.00000000000E+00 -0.45593999997E+02  0.45594000000E+02  0.51100000000E-03 0. -1.
    9900012    2    1    2    0    0  0.59521919943E+01  0.38229863638E+02 -0.23068643532E+02  0.46142318989E+02  0.10000011200E+02 0.  0.
        -12    1    1    2    0    0 -0.59521919943E+01 -0.38229863638E+02  0.23068643532E+02  0.45045681011E+02  0.00000000000E+00 0.  1.
         11    1    3    3    0    0  0.13294841381E+01  0.13465495150E+02 -0.78435669351E+01  0.15639968998E+02  0.51100000000E-03 0. -1.
        -11    1    3    3    0    0  0.44739726183E+01  0.23143376352E+02 -0.11074034120E+02  0.26043550678E+02  0.51100000000E-03 0.  1.
        -12    1    3    3    0    0  0.14873523796E+00  0.16209921355E+01 -0.41510424773E+01  0.44587993140E+01  0.00000000000E+00 0.  1.
</event>
<event>
 7    1  0.1563903E-008  0.4614232E+02  0.7816164E-02  0.1320468E+00
        -11   -1    0    0    0    0  0.00000000000E+00  0.00000000000E+00  0.45593999997E+02  0.45594000000E+02  0.51100000000E-03 0. -1.
         11   -1    0    0    0    0 -0.00000000000E+00 -0.00000000000E+00 -0.45593999997E+02  0.45594000000E+02  0.51100000000E-03 0.  1.
    9900012    2    1    2    0    0 -0.29445376155E+02 -0.10226876606E+02  0.32519137242E+02  0.46142317976E+02  0.10000001962E+02 0.  0.
        -12    1    1    2    0    0  0.29445376155E+02  0.10226876606E+02 -0.32519137242E+02  0.45045682024E+02  0.00000000000E+00 0.  1.
         11    1    3    3    0    0 -0.81621446457E+01 -0.48578207089E+01  0.86520956665E+01  0.12848260074E+02  0.51100000000E-03 0. -1.
        -11    1    3    3    0    0 -0.17851942103E+01 -0.18124436926E+01  0.39677632976E+00  0.25747431376E+01  0.51100000000E-03 0.  1.
        -12    1    3    3    0    0 -0.19498037299E+02 -0.35566122049E+01  0.23470265246E+02  0.30719314764E+02  0.00000000000E+00 0.  1.
</event>
<event>
 7    1  0.1563903E-008  0.4614232E+02  0.7816164E-02  0.1320468E+00
        -11   -1    0    0    0    0  0.00000000000E+00  0.00000000000E+00  0.45593999997E+02  0.45594000000E+02  0.51100000000E-03 0. -1.
         11   -1    0    0    0    0 -0.00000000000E+00 -0.00000000000E+00 -0.45593999997E+02  0.45594000000E+02  0.51100000000E-03 0.  1.
    9900012    2    1    2    0    0  0.66972424578E+01 -0.39036537424E+02  0.21457147707E+02  0.46142317651E+02  0.99999989932E+01 0.  0.
        -12    1    1    2    0    0 -0.66972424578E+01  0.39036537424E+02 -0.21457147707E+02  0.45045682349E+02  0.00000000000E+00 0.  1.
         11    1    3    3    0    0  0.37224878078E+01 -0.28898940533E+02  0.18285515117E+02  0.34400083470E+02  0.51100000000E-03 0. -1.
        -11    1    3    3    0    0  0.31638458737E+00  0.35439888330E+00  0.50979975364E-01  0.47780434764E+00  0.51100000000E-03 0.  1.
         12    1    3    3    0    0  0.26583700626E+01 -0.10491995774E+02  0.31206526151E+01  0.11264429833E+02  0.00000000000E+00 0. -1.
</event>
<event>
 7    1  0.1563903E-008  0.4614232E+02  0.7816164E-02  0.1320468E+00
        -11   -1    0    0    0    0  0.00000000000E+00  0.00000000000E+00  0.45593999997E+02  0.45594000000E+02  0.51100000000E-03 0.  1.
         11   -1    0    0    0    0 -0.00000000000E+00 -0.00000000000E+00 -0.45593999997E+02  0.45594000000E+02  0.51100000000E-03 0. -1.
    9900012    2    1    2    0    0  0.24963445461E+02 -0.32162249276E+02 -0.19275107817E+02  0.46142315755E+02  0.99999817025E+01 0.  0.
        -12    1    1    2    0    0 -0.24963445461E+02  0.32162249276E+02  0.19275107817E+02  0.45045684245E+02  0.00000000000E+00 0.  1.
         11    1    3    3    0    0  0.82302201139E+01 -0.68694899504E+01 -0.77626510512E+01  0.13235753356E+02  0.51100000000E-03 0. -1.
        -11    1    3    3    0    0  0.15370492347E+02 -0.19278915142E+02 -0.94333086635E+01  0.26399165074E+02  0.51100000000E-03 0.  1.
        -12    1    3    3    0    0  0.13627330003E+01 -0.60138441842E+01 -0.20791481022E+01  0.65073973240E+01  0.00000000000E+00 0.  1.
</event>
<event>
 7    1  0.1563903E-008  0.4614232E+02  0.7816164E-02  0.1320468E+00
        -11   -1    0    0    0    0  0.00000000000E+00  0.00000000000E+00  0.45593999997E+02  0.45594000000E+02  0.51100000000E-03 0. -1.
         11   -1    0    0    0    0 -0.00000000000E+00 -0.00000000000E+00 -0.45593999997E+02  0.45594000000E+02  0.51100000000E-03 0.  1.
    9900012    2    1    2    0    0 -0.43229210721E+02 -0.12575348765E+02  0.14862730340E+01  0.46142322475E+02  0.10000042987E+02 0.  0.
        -12    1    1    2    0    0  0.43229210721E+02  0.12575348765E+02 -0.14862730340E+01  0.45045677525E+02  0.00000000000E+00 0.  1.
         11    1    3    3    0    0 -0.19394942076E+02 -0.89063300243E+01  0.43534413381E+01  0.21781619416E+02  0.51100000000E-03 0. -1.
        -11    1    3    3    0    0 -0.79341799548E+00  0.22191450165E+00 -0.70903552339E-01  0.82691337905E+00  0.51100000000E-03 0.  1.
         12    1    3    3    0    0 -0.23040850649E+02 -0.38909332422E+01 -0.27962647518E+01  0.23533789680E+02  0.00000000000E+00 0. -1.
</event>
<event>
 7    1  0.1563903E-008  0.4614232E+02  0.7816164E-02  0.1320468E+00
        -11   -1    0    0    0    0  0.00000000000E+00  0.00000000000E+00  0.45593999997E+02  0.45594000000E+02  0.51100000000E-03 0.  1.
         11   -1    0    0    0    0 -0.00000000000E+00 -0.00000000000E+00 -0.45593999997E+02  0.45594000000E+02  0.51100000000E-03 0. -1.
    9900012    2    1    2    0    0  0.57745480185E+01 -0.25755316247E+02 -0.36502488022E+02  0.46142319279E+02  0.10000013845E+02 0.  0.
        -12    1    1    2    0    0 -0.57745480185E+01  0.25755316247E+02  0.36502488022E+02  0.45045680721E+02  0.00000000000E+00 0.  1.
         11    1    3    3    0    0  0.19082497139E+01 -0.22692412325E+02 -0.27737799590E+02  0.35888334044E+02  0.51100000000E-03 0. -1.
        -11    1    3    3    0    0  0.23776018140E+01 -0.71721324014E+00 -0.49116227543E+01  0.55037644898E+01  0.51100000000E-03 0.  1.
         12    1    3    3    0    0  0.14886964906E+01 -0.23456906816E+01 -0.38530656772E+01  0.47502207452E+01  0.00000000000E+00 0. -1.
</event>
<event>
 7    1  0.1563903E-008  0.4614232E+02  0.7816164E-02  0.1320468E+00
        -11   -1    0    0    0    0  0.00000000000E+00  0.00000000000E+00  0.45593999997E+02  0.45594000000E+02  0.51100000000E-03 0.  1.
         11   -1    0    0    0    0 -0.00000000000E+00 -0.00000000000E+00 -0.45593999997E+02  0.45594000000E+02  0.51100000000E-03 0. -1.
    9900012    2    1    2    0    0  0.18331528457E+02 -0.39016910194E+02 -0.13067105238E+02  0.46142318121E+02  0.10000003283E+02 0.  0.
        -12    1    1    2    0    0 -0.18331528457E+02  0.39016910194E+02  0.13067105238E+02  0.45045681879E+02  0.00000000000E+00 0.  1.
         11    1    3    3    0    0  0.48648490118E+01 -0.85540893812E+01 -0.51981232008E+01  0.11129226663E+02  0.51100000000E-03 0. -1.
        -11    1    3    3    0    0  0.26265497387E+01 -0.14086551654E+02 -0.17101655980E+01  0.14431021019E+02  0.51100000000E-03 0.  1.
        -12    1    3    3    0    0  0.10840129706E+02 -0.16376269158E+02 -0.61588164396E+01  0.20582070438E+02  0.00000000000E+00 0.  1.
</event>
<event>
 7    1  0.1563903E-008  0.4614232E+02  0.7816164E-02  0.1320468E+00
        -11   -1    0    0    0    0  0.00000000000E+00  0.00000000000E+00  0.45593999997E+02  0.45594000000E+02  0.51100000000E-03 0. -1.
         11   -1    0    0    0    0 -0.00000000000E+00 -0.00000000000E+00 -0.45593999997E+02  0.45594000000E+02  0.51100000000E-03 0.  1.
    9900012    2    1    2    0    0 -0.27951441828E+02 -0.28246924950E+02  0.21211828534E+02  0.46142317197E+02  0.99999948595E+01 0.  0.
        -12    1    1    2    0    0  0.27951441828E+02  0.28246924950E+02 -0.21211828534E+02  0.45045682803E+02  0.00000000000E+00 0.  1.
         11    1    3    3    0    0 -0.18708074152E+02 -0.21829965689E+02  0.14594034307E+02  0.32241669902E+02  0.51100000000E-03 0. -1.
        -11    1    3    3    0    0 -0.44906278283E+01 -0.57805508757E+01  0.30790697197E+01  0.79411068069E+01  0.51100000000E-03 0.  1.
         12    1    3    3    0    0 -0.47527398479E+01 -0.63640838536E+00  0.35387245079E+01  0.59595404888E+01  0.00000000000E+00 0. -1.
</event>
<event>
 7    1  0.1563903E-008  0.4614232E+02  0.7816164E-02  0.1320468E+00
        -11   -1    0    0    0    0  0.00000000000E+00  0.00000000000E+00  0.45593999997E+02  0.45594000000E+02  0.51100000000E-03 0.  1.
         11   -1    0    0    0    0 -0.00000000000E+00 -0.00000000000E+00 -0.45593999997E+02  0.45594000000E+02  0.51100000000E-03 0. -1.
    9900012    2    1    2    0    0  0.17172459009E+02 -0.13966389865E+02 -0.39232130720E+02  0.46142317908E+02  0.10000001341E+02 0.  0.
        -12    1    1    2    0    0 -0.17172459009E+02  0.13966389865E+02  0.39232130720E+02  0.45045682092E+02  0.00000000000E+00 0.  1.
         11    1    3    3    0    0  0.51682654475E+01 -0.33290639879E+01 -0.11792446353E+02  0.13298700163E+02  0.51100000000E-03 0. -1.
        -11    1    3    3    0    0 -0.12350550302E+01 -0.43574807037E+00 -0.24826111361E+01  0.28068836140E+01  0.51100000000E-03 0.  1.
        -12    1    3    3    0    0  0.13239248592E+02 -0.10201577807E+02 -0.24957073231E+02  0.30036734132E+02  0.00000000000E+00 0.  1.
</event>
<event>
 7    1  0.1563903E-008  0.4614232E+02  0.7816164E-02  0.1320468E+00
        -11   -1    0    0    0    0  0.00000000000E+00  0.00000000000E+00  0.45593999997E+02  0.45594000000E+02  0.51100000000E-03 0.  1.
         11   -1    0    0    0    0 -0.00000000000E+00 -0.00000000000E+00 -0.45593999997E+02  0.45594000000E+02  0.51100000000E-03 0. -1.
    9900012    2    1    2    0    0  0.51576488078E+01  0.41834789696E+02 -0.15885924891E+02  0.46142316747E+02  0.99999907488E+01 0.  0.
        -12    1    1    2    0    0 -0.51576488078E+01 -0.41834789696E+02  0.15885924891E+02  0.45045683253E+02  0.00000000000E+00 0.  1.
         11    1    3    3    0    0 -0.12863324660E+01  0.79955648967E+01 -0.30425226842E+01  0.86510492876E+01  0.51100000000E-03 0.  1.
        -11    1    3    3    0    0  0.61550687654E+01  0.30413256781E+02 -0.13743575909E+02  0.33937250015E+02  0.51100000000E-03 0. -1.
        -12    1    3    3    0    0  0.28891250840E+00  0.34259680181E+01  0.90017370252E+00  0.35540174441E+01  0.00000000000E+00 0.  1.
</event>
<event>
 7    1  0.1563903E-008  0.4614232E+02  0.7816164E-02  0.1320468E+00
        -11   -1    0    0    0    0  0.00000000000E+00  0.00000000000E+00  0.45593999997E+02  0.45594000000E+02  0.51100000000E-03 0. -1.
         11   -1    0    0    0    0 -0.00000000000E+00 -0.00000000000E+00 -0.45593999997E+02  0.45594000000E+02  0.51100000000E-03 0.  1.
    9900012    2    1    2    0    0  0.34050652736E+02  0.29015450364E+02 -0.52697452814E+01  0.46142317333E+02  0.99999960985E+01 0.  0.
        -12    1    1    2    0    0 -0.34050652736E+02 -0.29015450364E+02  0.52697452814E+01  0.45045682667E+02  0.00000000000E+00 0.  1.
         11    1    3    3    0    0  0.45497024579E+01  0.54393287148E+01 -0.32941340210E+01  0.78190414075E+01  0.51100000000E-03 0. -1.
        -11    1    3    3    0    0  0.13426720831E+02  0.71642350969E+01 -0.20113759367E+01  0.15350854381E+02  0.51100000000E-03 0.  1.
        -12    1    3    3    0    0  0.16074229447E+02  0.16411886552E+02  0.35764676267E-01  0.22972421545E+02  0.00000000000E+00 0.  1.
</event>
<event>
 7    1  0.1563903E-008  0.4614232E+02  0.7816164E-02  0.1320468E+00
        -11   -1    0    0    0    0  0.00000000000E+00  0.00000000000E+00  0.45593999997E+02  0.45594000000E+02  0.51100000000E-03 0.  1.
         11   -1    0    0    0    0 -0.00000000000E+00 -0.00000000000E+00 -0.45593999997E+02  0.45594000000E+02  0.51100000000E-03 0. -1.
    9900012    2    1    2    0    0 -0.15862343244E+02  0.22524004777E+02 -0.35639428825E+02  0.46142316396E+02  0.99999875526E+01 0.  0.
        -12    1    1    2    0    0  0.15862343244E+02 -0.22524004777E+02  0.35639428825E+02  0.45045683604E+02  0.00000000000E+00 0.  1.
         11    1    3    3    0    0 -0.13642217875E+02  0.18680807612E+02 -0.28172746537E+02  0.36452521577E+02  0.51100000000E-03 0. -1.
        -11    1    3    3    0    0 -0.24135095799E+01  0.15789126965E+01 -0.66950538534E+01  0.72898381434E+01  0.51100000000E-03 0.  1.
         12    1    3    3    0    0  0.19338421044E+00  0.22642844684E+01 -0.77162843408E+00  0.23999566761E+01  0.00000000000E+00 0. -1.
</event>
<event>
 7    1  0.1563903E-008  0.4614232E+02  0.7816164E-02  0.1320468E+00
        -11   -1    0    0    0    0  0.00000000000E+00  0.00000000000E+00  0.45593999997E+02  0.45594000000E+02  0.51100000000E-03 0.  1.
         11   -1    0    0    0    0 -0.00000000000E+00 -0.00000000000E+00 -0.45593999997E+02  0.45594000000E+02  0.51100000000E-03 0. -1.
    9900012    2    1    2    0    0  0.25011884294E+02  0.19050407643E+02 -0.32258349387E+02  0.46142317716E+02  0.99999995874E+01 0.  0.
        -12    1    1    2    0    0 -0.25011884294E+02 -0.19050407643E+02  0.32258349387E+02  0.45045682284E+02  0.00000000000E+00 0.  1.
         11    1    3    3    0    0  0.72977275513E+01  0.11059997957E+02 -0.14719061493E+02  0.19804826526E+02  0.51100000000E-03 0. -1.
        -11    1    3    3    0    0  0.58916003953E+01  0.24495073928E+01 -0.40127848460E+01  0.75374720010E+01  0.51100000000E-03 0.  1.
         12    1    3    3    0    0  0.11822556347E+02  0.55409022931E+01 -0.13526503047E+02  0.18800019189E+02  0.00000000000E+00 0. -1.
</event>
<event>
 7    1  0.1563903E-008  0.4614232E+02  0.7816164E-02  0.1320468E+00
        -11   -1    0    0    0    0  0.00000000000E+00  0.00000000000E+00  0.45593999997E+02  0.45594000000E+02  0.51100000000E-03 0.  1.
         11   -1    0    0    0    0 -0.00000000000E+00 -0.00000000000E+00 -0.45593999997E+02  0.45594000000E+02  0.51100000000E-03 0. -1.
    9900012    2    1    2    0    0 -0.70895717308E+01  0.34845867068E+02 -0.27651709200E+02  0.46142317623E+02  0.99999987451E+01 0.  0.
        -12    1    1    2    0    0  0.70895717308E+01 -0.34845867068E+02  0.27651709200E+02  0.45045682377E+02  0.00000000000E+00 0.  1.
         11    1    3    3    0    0 -0.51605072373E+01  0.87237746918E+01 -0.89001743495E+01  0.13488816980E+02  0.51100000000E-03 0. -1.
        -11    1    3    3    0    0 -0.79062415357E+00  0.22207347946E+02 -0.13483767945E+02  0.25992371720E+02  0.51100000000E-03 0.  1.
        -12    1    3    3    0    0 -0.11384403400E+01  0.39147444302E+01 -0.52677669052E+01  0.66611289230E+01  0.00000000000E+00 0.  1.
</event>
<event>
 7    1  0.1563903E-008  0.4614232E+02  0.7816164E-02  0.1320468E+00
        -11   -1    0    0    0    0  0.00000000000E+00  0.00000000000E+00  0.45593999997E+02  0.45594000000E+02  0.51100000000E-03 0. -1.
         11   -1    0    0    0    0 -0.00000000000E+00 -0.00000000000E+00 -0.45593999997E+02  0.45594000000E+02  0.51100000000E-03 0.  1.
    9900012    2    1    2    0    0  0.24696863554E+02 -0.33216871521E+02  0.17771264584E+02  0.46142317987E+02  0.10000002061E+02 0.  0.
        -12    1    1    2    0    0 -0.24696863554E+02  0.33216871521E+02 -0.17771264584E+02  0.45045682013E+02  0.00000000000E+00 0.  1.
         11    1    3    3    0    0  0.91464816707E+01 -0.13049993367E+02  0.98453620943E+01  0.18732101026E+02  0.51100000000E-03 0. -1.
        -11    1    3    3    0    0  0.51052130735E+01 -0.10600940946E+02  0.56949926031E+01  0.13071958173E+02  0.51100000000E-03 0.  1.
        -12    1    3    3    0    0  0.10445168810E+02 -0.95659372083E+01  0.22309098869E+01  0.14338258788E+02  0.00000000000E+00 0.  1.
</event>
<event>
 7    1  0.1563903E-008  0.4614232E+02  0.7816164E-02  0.1320468E+00
        -11   -1    0    0    0    0  0.00000000000E+00  0.00000000000E+00  0.45593999997E+02  0.45594000000E+02  0.51100000000E-03 0.  1.
         11   -1    0    0    0    0 -0.00000000000E+00 -0.00000000000E+00 -0.45593999997E+02  0.45594000000E+02  0.51100000000E-03 0. -1.
    9900012    2    1    2    0    0 -0.26059794029E+02  0.36847757303E+01 -0.36557115706E+02  0.46142321564E+02  0.10000034679E+02 0.  0.
        -12    1    1    2    0    0  0.26059794029E+02 -0.36847757303E+01  0.36557115706E+02  0.45045678436E+02  0.00000000000E+00 0.  1.
         11    1    3    3    0    0 -0.10361798717E+02  0.16338926120E+01 -0.90540497697E+01  0.13856850119E+02  0.51100000000E-03 0. -1.
        -11    1    3    3    0    0 -0.65269142759E+01  0.16435385466E+01 -0.17285281141E+02  0.18549468275E+02  0.51100000000E-03 0.  1.
        -12    1    3    3    0    0 -0.91710810359E+01  0.40734457161E+00 -0.10217784796E+02  0.13736003170E+02  0.00000000000E+00 0.  1.
</event>
<event>
 7    1  0.1563903E-008  0.4614232E+02  0.7816164E-02  0.1320468E+00
        -11   -1    0    0    0    0  0.00000000000E+00  0.00000000000E+00  0.45593999997E+02  0.45594000000E+02  0.51100000000E-03 0. -1.
         11   -1    0    0    0    0 -0.00000000000E+00 -0.00000000000E+00 -0.45593999997E+02  0.45594000000E+02  0.51100000000E-03 0.  1.
    9900012    2    1    2    0    0  0.40236976843E+02  0.14247009532E+02 -0.14391731442E+02  0.46142317410E+02  0.99999968024E+01 0.  0.
        -12    1    1    2    0    0 -0.40236976843E+02 -0.14247009532E+02  0.14391731442E+02  0.45045682590E+02  0.00000000000E+00 0.  1.
         11    1    3    3    0    0  0.18167417218E+02  0.96877398851E+01 -0.42041898338E+01  0.21013866014E+02  0.51100000000E-03 0. -1.
        -11    1    3    3    0    0  0.62200508634E+01  0.26915828844E+01 -0.47184676528E+01  0.82581831184E+01  0.51100000000E-03 0.  1.
         12    1    3    3    0    0  0.15849508762E+02  0.18676867622E+01 -0.54690739555E+01  0.16870268278E+02  0.00000000000E+00 0. -1.
</event>
<event>
 7    1  0.1563903E-008  0.4614232E+02  0.7816164E-02  0.1320468E+00
        -11   -1    0    0    0    0  0.00000000000E+00  0.00000000000E+00  0.45593999997E+02  0.45594000000E+02  0.51100000000E-03 0. -1.
         11   -1    0    0    0    0 -0.00000000000E+00 -0.00000000000E+00 -0.45593999997E+02  0.45594000000E+02  0.51100000000E-03 0.  1.
    9900012    2    1    2    0    0 -0.26231519631E+02 -0.27852766481E+02  0.23774864573E+02  0.46142318651E+02  0.10000008111E+02 0.  0.
        -12    1    1    2    0    0  0.26231519631E+02  0.27852766481E+02 -0.23774864573E+02  0.45045681349E+02  0.00000000000E+00 0.  1.
         11    1    3    3    0    0 -0.45817835698E+01 -0.10507687804E+01  0.47105615137E+01  0.66547911872E+01  0.51100000000E-03 0.  1.
        -11    1    3    3    0    0 -0.10561206735E+02 -0.14918487116E+02  0.90431534754E+01  0.20393110861E+02  0.51100000000E-03 0. -1.
        -12    1    3    3    0    0 -0.11088529325E+02 -0.11883510584E+02  0.10021149584E+02  0.19094416603E+02  0.00000000000E+00 0.  1.
</event>
<event>
 7    1  0.1563903E-008  0.4614232E+02  0.7816164E-02  0.1320468E+00
        -11   -1    0    0    0    0  0.00000000000E+00  0.00000000000E+00  0.45593999997E+02  0.45594000000E+02  0.51100000000E-03 0.  1.
         11   -1    0    0    0    0 -0.00000000000E+00 -0.00000000000E+00 -0.45593999997E+02  0.45594000000E+02  0.51100000000E-03 0. -1.
    9900012    2    1    2    0    0  0.43224879429E+02  0.49976937091E+01 -0.11651032893E+02  0.46142315284E+02  0.99999774138E+01 0.  0.
        -12    1    1    2    0    0 -0.43224879429E+02 -0.49976937091E+01  0.11651032893E+02  0.45045684716E+02  0.00000000000E+00 0.  1.
         11    1    3    3    0    0  0.30647998799E+02  0.50158037527E+01 -0.10065753016E+02  0.32646247896E+02  0.51100000000E-03 0.  1.
        -11    1    3    3    0    0  0.75741280814E+01  0.12673983947E+01  0.95738024072E+00  0.77388818360E+01  0.51100000000E-03 0. -1.
        -12    1    3    3    0    0  0.50027525487E+01 -0.12855084383E+01 -0.25426601180E+01  0.57571855524E+01  0.00000000000E+00 0.  1.
</event>
<event>
 7    1  0.1563903E-008  0.4614233E+02  0.7816164E-02  0.1320468E+00
        -11   -1    0    0    0    0  0.00000000000E+00  0.00000000000E+00  0.45593999997E+02  0.45594000000E+02  0.51100000000E-03 0.  1.
         11   -1    0    0    0    0 -0.00000000000E+00 -0.00000000000E+00 -0.45593999997E+02  0.45594000000E+02  0.51100000000E-03 0. -1.
    9900012    2    1    2    0    0 -0.21699894303E+02  0.60620775694E+01 -0.39006129993E+02  0.46142330127E+02  0.10000112764E+02 0.  0.
        -12    1    1    2    0    0  0.21699894303E+02 -0.60620775694E+01  0.39006129993E+02  0.45045669873E+02  0.00000000000E+00 0.  1.
         11    1    3    3    0    0 -0.62781312789E+01  0.36274927003E+01 -0.18552058824E+02  0.19918647608E+02  0.51100000000E-03 0. -1.
        -11    1    3    3    0    0 -0.66626383740E+01  0.23333087752E+01 -0.57354644510E+01  0.90956381124E+01  0.51100000000E-03 0.  1.
        -12    1    3    3    0    0 -0.87591246504E+01  0.10127609390E+00 -0.14718606718E+02  0.17128044407E+02  0.00000000000E+00 0.  1.
</event>
<event>
 7    1  0.1563903E-008  0.4614232E+02  0.7816164E-02  0.1320468E+00
        -11   -1    0    0    0    0  0.00000000000E+00  0.00000000000E+00  0.45593999997E+02  0.45594000000E+02  0.51100000000E-03 0. -1.
         11   -1    0    0    0    0 -0.00000000000E+00 -0.00000000000E+00 -0.45593999997E+02  0.45594000000E+02  0.51100000000E-03 0.  1.
    9900012    2    1    2    0    0 -0.69770809081E+01  0.44501819601E+02 -0.14794651578E+00  0.46142317699E+02  0.99999994354E+01 0.  0.
        -12    1    1    2    0    0  0.69770809081E+01 -0.44501819601E+02  0.14794651578E+00  0.45045682301E+02  0.00000000000E+00 0.  1.
         11    1    3    3    0    0 -0.49641102618E+00  0.20977124268E+02 -0.64919311704E+00  0.20993037380E+02  0.51100000000E-03 0. -1.
        -11    1    3    3    0    0 -0.68123453839E+01  0.23434958909E+02  0.11317236092E+01  0.24431253494E+02  0.51100000000E-03 0.  1.
         12    1    3    3    0    0  0.33167550192E+00  0.89736423435E-01 -0.63047700794E+00  0.71802682527E+00  0.00000000000E+00 0. -1.
</event>
<event>
 7    1  0.1563903E-008  0.4614232E+02  0.7816164E-02  0.1320468E+00
        -11   -1    0    0    0    0  0.00000000000E+00  0.00000000000E+00  0.45593999997E+02  0.45594000000E+02  0.51100000000E-03 0. -1.
         11   -1    0    0    0    0 -0.00000000000E+00 -0.00000000000E+00 -0.45593999997E+02  0.45594000000E+02  0.51100000000E-03 0.  1.
    9900012    2    1    2    0    0 -0.12714329311E+02  0.12078964677E+02  0.41491659506E+02  0.46142319119E+02  0.10000012383E+02 0.  0.
        -12    1    1    2    0    0  0.12714329311E+02 -0.12078964677E+02 -0.41491659506E+02  0.45045680881E+02  0.00000000000E+00 0.  1.
         11    1    3    3    0    0 -0.24403340503E+01  0.84578054904E+01  0.19440950624E+02  0.21341046493E+02  0.51100000000E-03 0.  1.
        -11    1    3    3    0    0 -0.10473130807E+02  0.33695765762E+01  0.21674044425E+02  0.24306474800E+02  0.51100000000E-03 0. -1.
         12    1    3    3    0    0  0.19913554653E+00  0.25158261073E+00  0.37666445624E+00  0.49479782589E+00  0.00000000000E+00 0. -1.
</event>
<event>
 7    1  0.1563903E-008  0.4614232E+02  0.7816164E-02  0.1320468E+00
        -11   -1    0    0    0    0  0.00000000000E+00  0.00000000000E+00  0.45593999997E+02  0.45594000000E+02  0.51100000000E-03 0.  1.
         11   -1    0    0    0    0 -0.00000000000E+00 -0.00000000000E+00 -0.45593999997E+02  0.45594000000E+02  0.51100000000E-03 0. -1.
    9900012    2    1    2    0    0 -0.33463673193E+02 -0.47096813052E+01 -0.29784475211E+02  0.46142317797E+02  0.10000000324E+02 0.  0.
        -12    1    1    2    0    0  0.33463673193E+02  0.47096813052E+01  0.29784475211E+02  0.45045682203E+02  0.00000000000E+00 0.  1.
         11    1    3    3    0    0 -0.30503303350E+02 -0.60431813432E+01 -0.23938740379E+02  0.39243277732E+02  0.51100000000E-03 0. -1.
        -11    1    3    3    0    0 -0.46313903799E+00  0.13221355781E+00 -0.25408307427E+01  0.25860779798E+01  0.51100000000E-03 0.  1.
         12    1    3    3    0    0 -0.24972308054E+01  0.12012864801E+01 -0.33049040893E+01  0.43129620845E+01  0.00000000000E+00 0. -1.
</event>
<event>
 7    1  0.1563903E-008  0.4614232E+02  0.7816164E-02  0.1320468E+00
        -11   -1    0    0    0    0  0.00000000000E+00  0.00000000000E+00  0.45593999997E+02  0.45594000000E+02  0.51100000000E-03 0. -1.
         11   -1    0    0    0    0 -0.00000000000E+00 -0.00000000000E+00 -0.45593999997E+02  0.45594000000E+02  0.51100000000E-03 0.  1.
    9900012    2    1    2    0    0 -0.53048371450E+01 -0.19921771323E+01  0.44687844165E+02  0.46142317821E+02  0.10000000544E+02 0.  0.
        -12    1    1    2    0    0  0.53048371450E+01  0.19921771323E+01 -0.44687844165E+02  0.45045682179E+02  0.00000000000E+00 0.  1.
         11    1    3    3    0    0 -0.23617365544E+01 -0.18563079401E+01  0.17546586316E+02  0.17801864238E+02  0.51100000000E-03 0. -1.
        -11    1    3    3    0    0  0.73242085332E+00 -0.31665580156E+01  0.85025667795E+01  0.91025915032E+01  0.51100000000E-03 0.  1.
        -12    1    3    3    0    0 -0.36755214438E+01  0.30306888233E+01  0.18638691069E+02  0.19237862080E+02  0.00000000000E+00 0.  1.
</event>
<event>
 7    1  0.1563903E-008  0.4614232E+02  0.7816164E-02  0.1320468E+00
        -11   -1    0    0    0    0  0.00000000000E+00  0.00000000000E+00  0.45593999997E+02  0.45594000000E+02  0.51100000000E-03 0. -1.
         11   -1    0    0    0    0 -0.00000000000E+00 -0.00000000000E+00 -0.45593999997E+02  0.45594000000E+02  0.51100000000E-03 0.  1.
    9900012    2    1    2    0    0  0.40919641242E+02  0.78713623140E+00  0.18816930158E+02  0.46142317816E+02  0.10000000505E+02 0.  0.
        -12    1    1    2    0    0 -0.40919641242E+02 -0.78713623140E+00 -0.18816930158E+02  0.45045682184E+02  0.00000000000E+00 0.  1.
         11    1    3    3    0    0  0.96756417155E+01  0.14937737961E+01  0.87509210788E+01  0.13131185124E+02  0.51100000000E-03 0. -1.
        -11    1    3    3    0    0  0.22836297572E+02 -0.18632053393E+01  0.66004317561E+01  0.23843945155E+02  0.51100000000E-03 0.  1.
         12    1    3    3    0    0  0.84077019543E+01  0.11565677746E+01  0.34655773232E+01  0.91671875378E+01  0.00000000000E+00 0. -1.
</event>
<event>
 7    1  0.1563903E-008  0.4614232E+02  0.7816164E-02  0.1320468E+00
        -11   -1    0    0    0    0  0.00000000000E+00  0.00000000000E+00  0.45593999997E+02  0.45594000000E+02  0.51100000000E-03 0. -1.
         11   -1    0    0    0    0 -0.00000000000E+00 -0.00000000000E+00 -0.45593999997E+02  0.45594000000E+02  0.51100000000E-03 0.  1.
    9900012    2    1    2    0    0 -0.36839629079E+02  0.13491228885E+02 -0.22134632317E+02  0.46142317906E+02  0.10000001322E+02 0.  0.
        -12    1    1    2    0    0  0.36839629079E+02 -0.13491228885E+02  0.22134632317E+02  0.45045682094E+02  0.00000000000E+00 0.  1.
         11    1    3    3    0    0 -0.16081798543E+02  0.96866044137E+01 -0.80878077440E+01  0.20441799916E+02  0.51100000000E-03 0. -1.
        -11    1    3    3    0    0 -0.20720388673E+02  0.33213447845E+01 -0.13423755767E+02  0.24911103089E+02  0.51100000000E-03 0.  1.
        -12    1    3    3    0    0 -0.37441862278E-01  0.48327968717E+00 -0.62306880565E+00  0.78941490083E+00  0.00000000000E+00 0.  1.
</event>
<event>
 7    1  0.1563903E-008  0.4614232E+02  0.7816164E-02  0.1320468E+00
        -11   -1    0    0    0    0  0.00000000000E+00  0.00000000000E+00  0.45593999997E+02  0.45594000000E+02  0.51100000000E-03 0.  1.
         11   -1    0    0    0    0 -0.00000000000E+00 -0.00000000000E+00 -0.45593999997E+02  0.45594000000E+02  0.51100000000E-03 0. -1.
    9900012    2    1    2    0    0 -0.31995401332E+02  0.17556321004E+02 -0.26404232000E+02  0.46142316732E+02  0.99999906129E+01 0.  0.
        -12    1    1    2    0    0  0.31995401332E+02 -0.17556321004E+02  0.26404232000E+02  0.45045683268E+02  0.00000000000E+00 0.  1.
         11    1    3    3    0    0 -0.24062161947E+02  0.11950339473E+02 -0.23834949528E+02  0.35915220595E+02  0.51100000000E-03 0. -1.
        -11    1    3    3    0    0 -0.23943512269E+01  0.11258903886E+01  0.23616413182E-01  0.26459601209E+01  0.51100000000E-03 0.  1.
         12    1    3    3    0    0 -0.55388881575E+01  0.44800911419E+01 -0.25928988854E+01  0.75811360158E+01  0.00000000000E+00 0. -1.
</event>
<event>
 7    1  0.1563903E-008  0.4614232E+02  0.7816164E-02  0.1320468E+00
        -11   -1    0    0    0    0  0.00000000000E+00  0.00000000000E+00  0.45593999997E+02  0.45594000000E+02  0.51100000000E-03 0.  1.
         11   -1    0    0    0    0 -0.00000000000E+00 -0.00000000000E+00 -0.45593999997E+02  0.45594000000E+02  0.51100000000E-03 0. -1.
    9900012    2    1    2    0    0  0.13515199682E+02 -0.35937084553E+02 -0.23557990999E+02  0.46142316427E+02  0.99999878370E+01 0.  0.
        -12    1    1    2    0    0 -0.13515199682E+02  0.35937084553E+02  0.23557990999E+02  0.45045683573E+02  0.00000000000E+00 0.  1.
         11    1    3    3    0    0  0.95686640231E+01 -0.17393696918E+02 -0.13844624466E+02  0.24202761217E+02  0.51100000000E-03 0. -1.
        -11    1    3    3    0    0  0.40564657093E+01 -0.15410191676E+02 -0.58752625150E+01  0.16983746095E+02  0.51100000000E-03 0.  1.
         12    1    3    3    0    0 -0.10993004995E+00 -0.31331959592E+01 -0.38381040178E+01  0.49558091152E+01  0.00000000000E+00 0. -1.
</event>
<event>
 7    1  0.1563903E-008  0.4614232E+02  0.7816164E-02  0.1320468E+00
        -11   -1    0    0    0    0  0.00000000000E+00  0.00000000000E+00  0.45593999997E+02  0.45594000000E+02  0.51100000000E-03 0.  1.
         11   -1    0    0    0    0 -0.00000000000E+00 -0.00000000000E+00 -0.45593999997E+02  0.45594000000E+02  0.51100000000E-03 0. -1.
    9900012    2    1    2    0    0 -0.77491400487E+01  0.38506249370E+02 -0.22052957117E+02  0.46142319523E+02  0.10000016063E+02 0.  0.
        -12    1    1    2    0    0  0.77491400487E+01 -0.38506249370E+02  0.22052957117E+02  0.45045680477E+02  0.00000000000E+00 0.  1.
         11    1    3    3    0    0 -0.15451201564E+01  0.15625460563E+02 -0.89631876580E+01  0.18079854738E+02  0.51100000000E-03 0. -1.
        -11    1    3    3    0    0 -0.28282126763E+01  0.19427243444E+02 -0.84767462494E+01  0.21383914562E+02  0.51100000000E-03 0.  1.
        -12    1    3    3    0    0 -0.33758072161E+01  0.34535453638E+01 -0.46130232098E+01  0.66785502225E+01  0.00000000000E+00 0.  1.
</event>
<event>
 7    1  0.1563903E-008  0.4614232E+02  0.7816164E-02  0.1320468E+00
        -11   -1    0    0    0    0  0.00000000000E+00  0.00000000000E+00  0.45593999997E+02  0.45594000000E+02  0.51100000000E-03 0.  1.
         11   -1    0    0    0    0 -0.00000000000E+00 -0.00000000000E+00 -0.45593999997E+02  0.45594000000E+02  0.51100000000E-03 0. -1.
    9900012    2    1    2    0    0  0.16882738722E+02  0.33878116447E+02 -0.24420478974E+02  0.46142318364E+02  0.10000005496E+02 0.  0.
        -12    1    1    2    0    0 -0.16882738722E+02 -0.33878116447E+02  0.24420478974E+02  0.45045681636E+02  0.00000000000E+00 0.  1.
         11    1    3    3    0    0  0.83317713019E+01  0.11904480842E+02 -0.10689454488E+02  0.18038833517E+02  0.51100000000E-03 0. -1.
        -11    1    3    3    0    0  0.21164262332E+01  0.12833922775E+02 -0.96821745792E+01  0.16215219352E+02  0.51100000000E-03 0.  1.
        -12    1    3    3    0    0  0.64345411873E+01  0.91397128292E+01 -0.40488499070E+01  0.11888265494E+02  0.00000000000E+00 0.  1.
</event>
<event>
 7    1  0.1563903E-008  0.4614232E+02  0.7816164E-02  0.1320468E+00
        -11   -1    0    0    0    0  0.00000000000E+00  0.00000000000E+00  0.45593999997E+02  0.45594000000E+02  0.51100000000E-03 0.  1.
         11   -1    0    0    0    0 -0.00000000000E+00 -0.00000000000E+00 -0.45593999997E+02  0.45594000000E+02  0.51100000000E-03 0. -1.
    9900012    2    1    2    0    0  0.39072695667E+02 -0.56452621272E+01 -0.21692596227E+02  0.46142320271E+02  0.10000022887E+02 0.  0.
        -12    1    1    2    0    0 -0.39072695667E+02  0.56452621272E+01  0.21692596227E+02  0.45045679729E+02  0.00000000000E+00 0.  1.
         11    1    3    3    0    0  0.21593142057E+02 -0.83090754429E+00 -0.11462428566E+02  0.24461019197E+02  0.51100000000E-03 0. -1.
        -11    1    3    3    0    0  0.42300921677E+01 -0.24169352432E+01 -0.56467585537E+01  0.74579580410E+01  0.51100000000E-03 0.  1.
        -12    1    3    3    0    0  0.13249461442E+02 -0.23974193397E+01 -0.45834091079E+01  0.14223343033E+02  0.00000000000E+00 0.  1.
</event>
<event>
 7    1  0.1563903E-008  0.4614232E+02  0.7816164E-02  0.1320468E+00
        -11   -1    0    0    0    0  0.00000000000E+00  0.00000000000E+00  0.45593999997E+02  0.45594000000E+02  0.51100000000E-03 0. -1.
         11   -1    0    0    0    0 -0.00000000000E+00 -0.00000000000E+00 -0.45593999997E+02  0.45594000000E+02  0.51100000000E-03 0.  1.
    9900012    2    1    2    0    0  0.13314591640E+02  0.37145214454E+02 -0.21727130534E+02  0.46142317537E+02  0.99999979526E+01 0.  0.
        -12    1    1    2    0    0 -0.13314591640E+02 -0.37145214454E+02  0.21727130534E+02  0.45045682463E+02  0.00000000000E+00 0.  1.
         11    1    3    3    0    0  0.43637192914E+01  0.11011545212E+02 -0.91951067837E+01  0.14994871224E+02  0.51100000000E-03 0. -1.
        -11    1    3    3    0    0  0.76031034181E+01  0.16364211678E+02 -0.11092161482E+02  0.21180903003E+02  0.51100000000E-03 0.  1.
        -12    1    3    3    0    0  0.13477689303E+01  0.97694575637E+01 -0.14398622686E+01  0.99665433091E+01  0.00000000000E+00 0.  1.
</event>
<event>
 7    1  0.1563903E-008  0.4614232E+02  0.7816164E-02  0.1320468E+00
        -11   -1    0    0    0    0  0.00000000000E+00  0.00000000000E+00  0.45593999997E+02  0.45594000000E+02  0.51100000000E-03 0.  1.
         11   -1    0    0    0    0 -0.00000000000E+00 -0.00000000000E+00 -0.45593999997E+02  0.45594000000E+02  0.51100000000E-03 0. -1.
    9900012    2    1    2    0    0  0.34845343247E+02  0.20149093764E+02 -0.20222003778E+02  0.46142319161E+02  0.10000012762E+02 0.  0.
        -12    1    1    2    0    0 -0.34845343247E+02 -0.20149093764E+02  0.20222003778E+02  0.45045680839E+02  0.00000000000E+00 0.  1.
         11    1    3    3    0    0  0.12247648529E+02  0.75784007310E+01 -0.10629976075E+02  0.17900654841E+02  0.51100000000E-03 0. -1.
        -11    1    3    3    0    0  0.18230332294E+02  0.10833028812E+02 -0.52582504208E+01  0.21848311755E+02  0.51100000000E-03 0.  1.
        -12    1    3    3    0    0  0.43673624235E+01  0.17376642212E+01 -0.43337772820E+01  0.63933525645E+01  0.00000000000E+00 0.  1.
</event>
<event>
 7    1  0.1563903E-008  0.4614232E+02  0.7816164E-02  0.1320468E+00
        -11   -1    0    0    0    0  0.00000000000E+00  0.00000000000E+00  0.45593999997E+02  0.45594000000E+02  0.51100000000E-03 0.  1.
         11   -1    0    0    0    0 -0.00000000000E+00 -0.00000000000E+00 -0.45593999997E+02  0.45594000000E+02  0.51100000000E-03 0. -1.
    9900012    2    1    2    0    0  0.12254551116E+02  0.30634247346E+02 -0.30667284818E+02  0.46142317725E+02  0.99999996716E+01 0.  0.
        -12    1    1    2    0    0 -0.12254551116E+02 -0.30634247346E+02  0.30667284818E+02  0.45045682275E+02  0.00000000000E+00 0.  1.
         11    1    3    3    0    0  0.66734860657E+01  0.96207953698E+01 -0.11117816624E+02  0.16146236917E+02  0.51100000000E-03 0.  1.
        -11    1    3    3    0    0  0.13448644348E+01  0.83972376659E+01 -0.11961289757E+02  0.14676331752E+02  0.51100000000E-03 0. -1.
         12    1    3    3    0    0  0.42362006155E+01  0.12616214310E+02 -0.75881784359E+01  0.15319749057E+02  0.00000000000E+00 0. -1.
</event>
<event>
 7    1  0.1563903E-008  0.4614232E+02  0.7816164E-02  0.1320468E+00
        -11   -1    0    0    0    0  0.00000000000E+00  0.00000000000E+00  0.45593999997E+02  0.45594000000E+02  0.51100000000E-03 0. -1.
         11   -1    0    0    0    0 -0.00000000000E+00 -0.00000000000E+00 -0.45593999997E+02  0.45594000000E+02  0.51100000000E-03 0.  1.
    9900012    2    1    2    0    0  0.25352819182E+02  0.33661869253E+02  0.15913094836E+02  0.46142317972E+02  0.10000001925E+02 0.  0.
        -12    1    1    2    0    0 -0.25352819182E+02 -0.33661869253E+02 -0.15913094836E+02  0.45045682028E+02  0.00000000000E+00 0.  1.
         11    1    3    3    0    0  0.15154946870E+02  0.20352114928E+02  0.81204530480E+01  0.26642499032E+02  0.51100000000E-03 0. -1.
        -11    1    3    3    0    0  0.51545566347E+01  0.50193726560E+01  0.65261925874E+01  0.97136371102E+01  0.51100000000E-03 0.  1.
         12    1    3    3    0    0  0.50433156768E+01  0.82903816693E+01  0.12664492006E+01  0.97861818303E+01  0.00000000000E+00 0. -1.
</event>
<event>
 7    1  0.1563903E-008  0.4614232E+02  0.7816164E-02  0.1320468E+00
        -11   -1    0    0    0    0  0.00000000000E+00  0.00000000000E+00  0.45593999997E+02  0.45594000000E+02  0.51100000000E-03 0.  1.
         11   -1    0    0    0    0 -0.00000000000E+00 -0.00000000000E+00 -0.45593999997E+02  0.45594000000E+02  0.51100000000E-03 0. -1.
    9900012    2    1    2    0    0 -0.17750866510E+02  0.91893956650E+01 -0.40367999429E+02  0.46142316162E+02  0.99999854138E+01 0.  0.
        -12    1    1    2    0    0  0.17750866510E+02 -0.91893956650E+01  0.40367999429E+02  0.45045683838E+02  0.00000000000E+00 0.  1.
         11    1    3    3    0    0 -0.17043350487E+02  0.85958869333E+01 -0.33137904538E+02  0.38242460505E+02  0.51100000000E-03 0. -1.
        -11    1    3    3    0    0  0.36493452471E+00 -0.11110437401E+01 -0.26532860206E+01  0.28995727906E+01  0.51100000000E-03 0.  1.
         12    1    3    3    0    0 -0.10724505474E+01  0.17045524717E+01 -0.45768088704E+01  0.50002828662E+01  0.00000000000E+00 0. -1.
</event>
<event>
 7    1  0.1563903E-008  0.4614232E+02  0.7816164E-02  0.1320468E+00
        -11   -1    0    0    0    0  0.00000000000E+00  0.00000000000E+00  0.45593999997E+02  0.45594000000E+02  0.51100000000E-03 0.  1.
         11   -1    0    0    0    0 -0.00000000000E+00 -0.00000000000E+00 -0.45593999997E+02  0.45594000000E+02  0.51100000000E-03 0. -1.
    9900012    2    1    2    0    0  0.93688984836E+01  0.10043597966E+02 -0.42900622134E+02  0.46142317650E+02  0.99999989865E+01 0.  0.
        -12    1    1    2    0    0 -0.93688984836E+01 -0.10043597966E+02  0.42900622134E+02  0.45045682350E+02  0.00000000000E+00 0.  1.
         11    1    3    3    0    0  0.79732942013E+01  0.79891008775E+01 -0.36862387377E+02  0.38551715353E+02  0.51100000000E-03 0. -1.
        -11    1    3    3    0    0  0.36209405671E+00  0.14144391957E+01 -0.29730471379E-01  0.14603542400E+01  0.51100000000E-03 0.  1.
        -12    1    3    3    0    0  0.10335102256E+01  0.64005789322E+00 -0.60085042851E+01  0.61302480567E+01  0.00000000000E+00 0.  1.
</event>
<event>
 7    1  0.1563903E-008  0.4614232E+02  0.7816164E-02  0.1320468E+00
        -11   -1    0    0    0    0  0.00000000000E+00  0.00000000000E+00  0.45593999997E+02  0.45594000000E+02  0.51100000000E-03 0.  1.
         11   -1    0    0    0    0 -0.00000000000E+00 -0.00000000000E+00 -0.45593999997E+02  0.45594000000E+02  0.51100000000E-03 0. -1.
    9900012    2    1    2    0    0 -0.15002633587E+02 -0.12182549680E+02 -0.40689309585E+02  0.46142318234E+02  0.10000004314E+02 0.  0.
        -12    1    1    2    0    0  0.15002633587E+02  0.12182549680E+02  0.40689309585E+02  0.45045681766E+02  0.00000000000E+00 0.  1.
         11    1    3    3    0    0 -0.18433653559E+01 -0.55807536564E+01 -0.96293388326E+01  0.11281266499E+02  0.51100000000E-03 0. -1.
        -11    1    3    3    0    0 -0.12539372643E+02 -0.50889093336E+01 -0.30004268609E+02  0.32914875049E+02  0.51100000000E-03 0.  1.
        -12    1    3    3    0    0 -0.61989558852E+00 -0.15128866903E+01 -0.10557021435E+01  0.19461766863E+01  0.00000000000E+00 0.  1.
</event>
<event>
 7    1  0.1563903E-008  0.4614232E+02  0.7816164E-02  0.1320468E+00
        -11   -1    0    0    0    0  0.00000000000E+00  0.00000000000E+00  0.45593999997E+02  0.45594000000E+02  0.51100000000E-03 0.  1.
         11   -1    0    0    0    0 -0.00000000000E+00 -0.00000000000E+00 -0.45593999997E+02  0.45594000000E+02  0.51100000000E-03 0. -1.
    9900012    2    1    2    0    0 -0.30449801802E+02 -0.32900544850E+02  0.44132959289E+01  0.46142318052E+02  0.10000002654E+02 0.  0.
        -12    1    1    2    0    0  0.30449801802E+02  0.32900544850E+02 -0.44132959289E+01  0.45045681948E+02  0.00000000000E+00 0.  1.
         11    1    3    3    0    0 -0.15737861349E+02 -0.14607412731E+02  0.28238576852E+01  0.21657122593E+02  0.51100000000E-03 0. -1.
        -11    1    3    3    0    0 -0.10140015521E+02 -0.74428217149E+01 -0.17459001946E+00  0.12579586312E+02  0.51100000000E-03 0.  1.
         12    1    3    3    0    0 -0.45719249323E+01 -0.10850310404E+02  0.17640282631E+01  0.11905609147E+02  0.00000000000E+00 0. -1.
</event>
<event>
 7    1  0.1563903E-008  0.4614232E+02  0.7816164E-02  0.1320468E+00
        -11   -1    0    0    0    0  0.00000000000E+00  0.00000000000E+00  0.45593999997E+02  0.45594000000E+02  0.51100000000E-03 0.  1.
         11   -1    0    0    0    0 -0.00000000000E+00 -0.00000000000E+00 -0.45593999997E+02  0.45594000000E+02  0.51100000000E-03 0. -1.
    9900012    2    1    2    0    0  0.42243404188E+02 -0.55359348091E+01 -0.14627430573E+02  0.46142317668E+02  0.99999991467E+01 0.  0.
        -12    1    1    2    0    0 -0.42243404188E+02  0.55359348091E+01  0.14627430573E+02  0.45045682332E+02  0.00000000000E+00 0.  1.
         11    1    3    3    0    0  0.16644810398E+02  0.85927635834E+00 -0.30582342932E+01  0.16945231374E+02  0.51100000000E-03 0. -1.
        -11    1    3    3    0    0  0.23925565835E+02 -0.47603298508E+01 -0.11144503518E+02  0.26819645779E+02  0.51100000000E-03 0.  1.
         12    1    3    3    0    0  0.16730279548E+01 -0.16348813166E+01 -0.42469276258E+00  0.23774405144E+01  0.00000000000E+00 0. -1.
</event>
<event>
 7    1  0.1563903E-008  0.4614232E+02  0.7816164E-02  0.1320468E+00
        -11   -1    0    0    0    0  0.00000000000E+00  0.00000000000E+00  0.45593999997E+02  0.45594000000E+02  0.51100000000E-03 0.  1.
         11   -1    0    0    0    0 -0.00000000000E+00 -0.00000000000E+00 -0.45593999997E+02  0.45594000000E+02  0.51100000000E-03 0. -1.
    9900012    2    1    2    0    0  0.29201824818E+02  0.34293836438E+02  0.54745027451E+00  0.46142317720E+02  0.99999996207E+01 0.  0.
        -12    1    1    2    0    0 -0.29201824818E+02 -0.34293836438E+02 -0.54745027451E+00  0.45045682280E+02  0.00000000000E+00 0.  1.
         11    1    3    3    0    0  0.15316992242E+02  0.22559898476E+02  0.33463062754E+01  0.27472841799E+02  0.51100000000E-03 0. -1.
        -11    1    3    3    0    0  0.71528064965E+01  0.39841970704E+01 -0.10156157928E+01  0.82503298584E+01  0.51100000000E-03 0.  1.
        -12    1    3    3    0    0  0.67320260789E+01  0.77497408919E+01 -0.17832402081E+01  0.10419146062E+02  0.00000000000E+00 0.  1.
</event>
<event>
 7    1  0.1563903E-008  0.4614232E+02  0.7816164E-02  0.1320468E+00
        -11   -1    0    0    0    0  0.00000000000E+00  0.00000000000E+00  0.45593999997E+02  0.45594000000E+02  0.51100000000E-03 0. -1.
         11   -1    0    0    0    0 -0.00000000000E+00 -0.00000000000E+00 -0.45593999997E+02  0.45594000000E+02  0.51100000000E-03 0.  1.
    9900012    2    1    2    0    0 -0.23288481723E+02 -0.29089007029E+02  0.25309875428E+02  0.46142317576E+02  0.99999983102E+01 0.  0.
        -12    1    1    2    0    0  0.23288481723E+02  0.29089007029E+02 -0.25309875428E+02  0.45045682424E+02  0.00000000000E+00 0.  1.
         11    1    3    3    0    0 -0.55400128727E+01 -0.13337758451E+02  0.96138284248E+01  0.17349733150E+02  0.51100000000E-03 0. -1.
        -11    1    3    3    0    0 -0.29337993768E+00 -0.38274719491E-01 -0.26450676506E+00  0.39686374472E+00  0.51100000000E-03 0.  1.
         12    1    3    3    0    0 -0.17455088913E+02 -0.15712973858E+02  0.15960553768E+02  0.28395720681E+02  0.00000000000E+00 0. -1.
</event>
<event>
 7    1  0.1563903E-008  0.4614232E+02  0.7816164E-02  0.1320468E+00
        -11   -1    0    0    0    0  0.00000000000E+00  0.00000000000E+00  0.45593999997E+02  0.45594000000E+02  0.51100000000E-03 0.  1.
         11   -1    0    0    0    0 -0.00000000000E+00 -0.00000000000E+00 -0.45593999997E+02  0.45594000000E+02  0.51100000000E-03 0. -1.
    9900012    2    1    2    0    0 -0.23641953934E+02 -0.32955423370E+01 -0.38200927982E+02  0.46142317812E+02  0.10000000462E+02 0.  0.
        -12    1    1    2    0    0  0.23641953934E+02  0.32955423370E+01  0.38200927982E+02  0.45045682188E+02  0.00000000000E+00 0.  1.
         11    1    3    3    0    0 -0.12713895501E+02 -0.60072107204E+00 -0.25081663840E+02  0.28126390914E+02  0.51100000000E-03 0. -1.
        -11    1    3    3    0    0 -0.56572680077E+01 -0.24390767958E+01 -0.36095658250E+01  0.71402200689E+01  0.51100000000E-03 0.  1.
        -12    1    3    3    0    0 -0.52707904248E+01 -0.25574446915E+00 -0.95096983172E+01  0.10875706829E+02  0.00000000000E+00 0.  1.
</event>
<event>
 7    1  0.1563903E-008  0.4614232E+02  0.7816164E-02  0.1320468E+00
        -11   -1    0    0    0    0  0.00000000000E+00  0.00000000000E+00  0.45593999997E+02  0.45594000000E+02  0.51100000000E-03 0. -1.
         11   -1    0    0    0    0 -0.00000000000E+00 -0.00000000000E+00 -0.45593999997E+02  0.45594000000E+02  0.51100000000E-03 0.  1.
    9900012    2    1    2    0    0 -0.26782992181E+01 -0.19076787301E+02  0.40718746953E+02  0.46142318144E+02  0.10000003490E+02 0.  0.
        -12    1    1    2    0    0  0.26782992181E+01  0.19076787301E+02 -0.40718746953E+02  0.45045681856E+02  0.00000000000E+00 0.  1.
         11    1    3    3    0    0  0.11665909708E-01 -0.65994782251E+01  0.59818109557E+01  0.89070371902E+01  0.51100000000E-03 0. -1.
        -11    1    3    3    0    0 -0.10627941818E+01 -0.94877362853E+00  0.71759996148E+01  0.73160558776E+01  0.51100000000E-03 0.  1.
        -12    1    3    3    0    0 -0.16271709460E+01 -0.11528535448E+02  0.27560936383E+02  0.29919225076E+02  0.00000000000E+00 0.  1.
</event>
<event>
 7    1  0.1563903E-008  0.4614232E+02  0.7816164E-02  0.1320468E+00
        -11   -1    0    0    0    0  0.00000000000E+00  0.00000000000E+00  0.45593999997E+02  0.45594000000E+02  0.51100000000E-03 0.  1.
         11   -1    0    0    0    0 -0.00000000000E+00 -0.00000000000E+00 -0.45593999997E+02  0.45594000000E+02  0.51100000000E-03 0. -1.
    9900012    2    1    2    0    0 -0.44314499276E+02 -0.80829541076E+01  0.66713069517E-01  0.46142318255E+02  0.10000004506E+02 0.  0.
        -12    1    1    2    0    0  0.44314499276E+02  0.80829541076E+01 -0.66713069517E-01  0.45045681745E+02  0.00000000000E+00 0.  1.
         11    1    3    3    0    0 -0.43336993884E+01 -0.23835842623E+01 -0.30278727555E+00  0.49552098563E+01  0.51100000000E-03 0. -1.
        -11    1    3    3    0    0 -0.14934722658E+02  0.12071636738E+01 -0.19181313438E+01  0.15105707965E+02  0.51100000000E-03 0.  1.
        -12    1    3    3    0    0 -0.25046077230E+02 -0.69065335191E+01  0.22876316889E+01  0.26081400434E+02  0.00000000000E+00 0.  1.
</event>
<event>
 7    1  0.1563903E-008  0.4614232E+02  0.7816164E-02  0.1320468E+00
        -11   -1    0    0    0    0  0.00000000000E+00  0.00000000000E+00  0.45593999997E+02  0.45594000000E+02  0.51100000000E-03 0. -1.
         11   -1    0    0    0    0 -0.00000000000E+00 -0.00000000000E+00 -0.45593999997E+02  0.45594000000E+02  0.51100000000E-03 0.  1.
    9900012    2    1    2    0    0  0.17012227061E+01  0.37569307094E+02  0.24794489620E+02  0.46142315304E+02  0.99999775953E+01 0.  0.
        -12    1    1    2    0    0 -0.17012227061E+01 -0.37569307094E+02 -0.24794489620E+02  0.45045684696E+02  0.00000000000E+00 0.  1.
         11    1    3    3    0    0 -0.30906671230E+01  0.89100435963E+01  0.75010292586E+01  0.12050167648E+02  0.51100000000E-03 0. -1.
        -11    1    3    3    0    0  0.37198841149E+01  0.13053688158E+02  0.98393041722E+01  0.16764492811E+02  0.51100000000E-03 0.  1.
         12    1    3    3    0    0  0.10720057142E+01  0.15605575340E+02  0.74541561889E+01  0.17327654845E+02  0.00000000000E+00 0. -1.
</event>
<event>
 7    1  0.1563903E-008  0.4614232E+02  0.7816164E-02  0.1320468E+00
        -11   -1    0    0    0    0  0.00000000000E+00  0.00000000000E+00  0.45593999997E+02  0.45594000000E+02  0.51100000000E-03 0.  1.
         11   -1    0    0    0    0 -0.00000000000E+00 -0.00000000000E+00 -0.45593999997E+02  0.45594000000E+02  0.51100000000E-03 0. -1.
    9900012    2    1    2    0    0  0.35524106277E+02  0.66220965727E+01 -0.26894222946E+02  0.46142317436E+02  0.99999970368E+01 0.  0.
        -12    1    1    2    0    0 -0.35524106277E+02 -0.66220965727E+01  0.26894222946E+02  0.45045682564E+02  0.00000000000E+00 0.  1.
         11    1    3    3    0    0  0.21683320003E+02  0.12149597302E+01 -0.18415461263E+02  0.28474053229E+02  0.51100000000E-03 0. -1.
        -11    1    3    3    0    0  0.11245694538E+02  0.51174438727E+01 -0.86008745296E+01  0.15054199426E+02  0.51100000000E-03 0.  1.
         12    1    3    3    0    0  0.25950917351E+01  0.28969296977E+00  0.12211284614E+00  0.26140647807E+01  0.00000000000E+00 0. -1.
</event>
<event>
 7    1  0.1563903E-008  0.4614232E+02  0.7816164E-02  0.1320468E+00
        -11   -1    0    0    0    0  0.00000000000E+00  0.00000000000E+00  0.45593999997E+02  0.45594000000E+02  0.51100000000E-03 0.  1.
         11   -1    0    0    0    0 -0.00000000000E+00 -0.00000000000E+00 -0.45593999997E+02  0.45594000000E+02  0.51100000000E-03 0. -1.
    9900012    2    1    2    0    0 -0.13869289239E+02 -0.14512846529E+02 -0.40325346966E+02  0.46142317562E+02  0.99999981810E+01 0.  0.
        -12    1    1    2    0    0  0.13869289239E+02  0.14512846529E+02  0.40325346966E+02  0.45045682438E+02  0.00000000000E+00 0.  1.
         11    1    3    3    0    0 -0.27934267597E+01 -0.79422680640E+01 -0.16989467721E+02  0.18961141020E+02  0.51100000000E-03 0.  1.
        -11    1    3    3    0    0 -0.60123018681E+01 -0.16443523347E+01 -0.69405373057E+01  0.93285972529E+01  0.51100000000E-03 0. -1.
        -12    1    3    3    0    0 -0.50635606116E+01 -0.49262261299E+01 -0.16395341940E+02  0.17852579289E+02  0.00000000000E+00 0.  1.
</event>
<event>
 7    1  0.1563903E-008  0.4614232E+02  0.7816164E-02  0.1320468E+00
        -11   -1    0    0    0    0  0.00000000000E+00  0.00000000000E+00  0.45593999997E+02  0.45594000000E+02  0.51100000000E-03 0.  1.
         11   -1    0    0    0    0 -0.00000000000E+00 -0.00000000000E+00 -0.45593999997E+02  0.45594000000E+02  0.51100000000E-03 0. -1.
    9900012    2    1    2    0    0  0.21038714002E+01 -0.26837420495E+02 -0.36117032254E+02  0.46142318381E+02  0.10000005653E+02 0.  0.
        -12    1    1    2    0    0 -0.21038714002E+01  0.26837420495E+02  0.36117032254E+02  0.45045681619E+02  0.00000000000E+00 0.  1.
         11    1    3    3    0    0  0.15611184126E+00 -0.11556601837E+02 -0.98158635712E+01  0.15163462495E+02  0.51100000000E-03 0. -1.
        -11    1    3    3    0    0 -0.63731180979E-01 -0.12575269539E+00 -0.36414114883E+01  0.36441395819E+01  0.51100000000E-03 0.  1.
        -12    1    3    3    0    0  0.20114907400E+01 -0.15155065963E+02 -0.22659757194E+02  0.27334716304E+02  0.00000000000E+00 0.  1.
</event>
<event>
 7    1  0.1563903E-008  0.4614232E+02  0.7816164E-02  0.1320468E+00
        -11   -1    0    0    0    0  0.00000000000E+00  0.00000000000E+00  0.45593999997E+02  0.45594000000E+02  0.51100000000E-03 0. -1.
         11   -1    0    0    0    0 -0.00000000000E+00 -0.00000000000E+00 -0.45593999997E+02  0.45594000000E+02  0.51100000000E-03 0.  1.
    9900012    2    1    2    0    0 -0.15015738057E+02 -0.42374204479E+01 -0.42257370302E+02  0.46142318006E+02  0.10000002234E+02 0.  0.
        -12    1    1    2    0    0  0.15015738057E+02  0.42374204479E+01  0.42257370302E+02  0.45045681994E+02  0.00000000000E+00 0.  1.
         11    1    3    3    0    0 -0.72543593326E+01 -0.24315156254E+01 -0.32377468369E+02  0.33269181772E+02  0.51100000000E-03 0.  1.
        -11    1    3    3    0    0 -0.56175833045E+01 -0.60014554695E+00 -0.57143420283E+01  0.80356158406E+01  0.51100000000E-03 0. -1.
         12    1    3    3    0    0 -0.21437954199E+01 -0.12057592755E+01 -0.41655599051E+01  0.48375203933E+01  0.00000000000E+00 0. -1.
</event>
<event>
 7    1  0.1563903E-008  0.4614231E+02  0.7816164E-02  0.1320468E+00
        -11   -1    0    0    0    0  0.00000000000E+00  0.00000000000E+00  0.45593999997E+02  0.45594000000E+02  0.51100000000E-03 0.  1.
         11   -1    0    0    0    0 -0.00000000000E+00 -0.00000000000E+00 -0.45593999997E+02  0.45594000000E+02  0.51100000000E-03 0. -1.
    9900012    2    1    2    0    0 -0.43315257721E+02  0.12364885687E+02  0.10900028433E+00  0.46142313963E+02  0.99999653647E+01 0.  0.
        -12    1    1    2    0    0  0.43315257721E+02 -0.12364885687E+02 -0.10900028433E+00  0.45045686037E+02  0.00000000000E+00 0.  1.
         11    1    3    3    0    0 -0.18219768462E+02  0.20569025252E+01 -0.22234329582E+00  0.18336854899E+02  0.51100000000E-03 0. -1.
        -11    1    3    3    0    0 -0.16303512878E+02  0.48585326472E+01  0.26167860788E+01  0.17212130643E+02  0.51100000000E-03 0.  1.
        -12    1    3    3    0    0 -0.87919763815E+01  0.54494505144E+01 -0.22854424987E+01  0.10593328420E+02  0.00000000000E+00 0.  1.
</event>
<event>
 7    1  0.1563903E-008  0.4614232E+02  0.7816164E-02  0.1320468E+00
        -11   -1    0    0    0    0  0.00000000000E+00  0.00000000000E+00  0.45593999997E+02  0.45594000000E+02  0.51100000000E-03 0. -1.
         11   -1    0    0    0    0 -0.00000000000E+00 -0.00000000000E+00 -0.45593999997E+02  0.45594000000E+02  0.51100000000E-03 0.  1.
    9900012    2    1    2    0    0  0.44703191497E+02 -0.40343882371E+01  0.38028910861E+01  0.46142316532E+02  0.99999887943E+01 0.  0.
        -12    1    1    2    0    0 -0.44703191497E+02  0.40343882371E+01 -0.38028910861E+01  0.45045683468E+02  0.00000000000E+00 0.  1.
         11    1    3    3    0    0  0.18526758054E+02 -0.85877796019E+00  0.14883691292E+01  0.18606275997E+02  0.51100000000E-03 0. -1.
        -11    1    3    3    0    0  0.25097097242E+02 -0.29346237209E+01  0.33705563535E+00  0.25270336625E+02  0.51100000000E-03 0.  1.
        -12    1    3    3    0    0  0.10793362010E+01 -0.24098655598E+00  0.19774663215E+01  0.22657039100E+01  0.00000000000E+00 0.  1.
</event>
<event>
 7    1  0.1563903E-008  0.4614232E+02  0.7816164E-02  0.1320468E+00
        -11   -1    0    0    0    0  0.00000000000E+00  0.00000000000E+00  0.45593999997E+02  0.45594000000E+02  0.51100000000E-03 0.  1.
         11   -1    0    0    0    0 -0.00000000000E+00 -0.00000000000E+00 -0.45593999997E+02  0.45594000000E+02  0.51100000000E-03 0. -1.
    9900012    2    1    2    0    0 -0.48603044326E+01  0.29243748641E+02 -0.33915983580E+02  0.46142319453E+02  0.10000015427E+02 0.  0.
        -12    1    1    2    0    0  0.48603044326E+01 -0.29243748641E+02  0.33915983580E+02  0.45045680547E+02  0.00000000000E+00 0.  1.
         11    1    3    3    0    0 -0.63628681202E+01  0.16204814818E+02 -0.18476181584E+02  0.25386047352E+02  0.51100000000E-03 0. -1.
        -11    1    3    3    0    0  0.29653997644E+01  0.92901639350E+01 -0.11995928615E+02  0.15459723325E+02  0.51100000000E-03 0.  1.
        -12    1    3    3    0    0 -0.14628360769E+01  0.37487698876E+01 -0.34438733818E+01  0.52965487752E+01  0.00000000000E+00 0.  1.
</event>
<event>
 7    1  0.1563903E-008  0.4614232E+02  0.7816164E-02  0.1320468E+00
        -11   -1    0    0    0    0  0.00000000000E+00  0.00000000000E+00  0.45593999997E+02  0.45594000000E+02  0.51100000000E-03 0.  1.
         11   -1    0    0    0    0 -0.00000000000E+00 -0.00000000000E+00 -0.45593999997E+02  0.45594000000E+02  0.51100000000E-03 0. -1.
    9900012    2    1    2    0    0 -0.14945583402E+02 -0.40764723694E+02 -0.11999178620E+02  0.46142318202E+02  0.10000004023E+02 0.  0.
        -12    1    1    2    0    0  0.14945583402E+02  0.40764723694E+02  0.11999178620E+02  0.45045681798E+02  0.00000000000E+00 0.  1.
         11    1    3    3    0    0 -0.74535393234E+01 -0.16708108373E+02 -0.82770790689E+01  0.20080492326E+02  0.51100000000E-03 0. -1.
        -11    1    3    3    0    0 -0.31209923168E+01 -0.14949786700E+02  0.69285418247E-01  0.15272246598E+02  0.51100000000E-03 0.  1.
        -12    1    3    3    0    0 -0.43710517616E+01 -0.91068286207E+01 -0.37913849692E+01  0.10789579279E+02  0.00000000000E+00 0.  1.
</event>
<event>
 7    1  0.1563903E-008  0.4614232E+02  0.7816164E-02  0.1320468E+00
        -11   -1    0    0    0    0  0.00000000000E+00  0.00000000000E+00  0.45593999997E+02  0.45594000000E+02  0.51100000000E-03 0. -1.
         11   -1    0    0    0    0 -0.00000000000E+00 -0.00000000000E+00 -0.45593999997E+02  0.45594000000E+02  0.51100000000E-03 0.  1.
    9900012    2    1    2    0    0  0.16127347650E+01 -0.23543272963E+02  0.38369609165E+02  0.46142317380E+02  0.99999965233E+01 0.  0.
        -12    1    1    2    0    0 -0.16127347650E+01  0.23543272963E+02 -0.38369609165E+02  0.45045682620E+02  0.00000000000E+00 0.  1.
         11    1    3    3    0    0 -0.22177310247E+01 -0.15914419008E+02  0.27625996543E+02  0.31959079281E+02  0.51100000000E-03 0. -1.
        -11    1    3    3    0    0  0.30115217312E+01 -0.59389562780E+01  0.10281266196E+02  0.12249281598E+02  0.51100000000E-03 0.  1.
        -12    1    3    3    0    0  0.81894405843E+00 -0.16898976771E+01  0.46234642669E+00  0.19339565011E+01  0.00000000000E+00 0.  1.
</event>
<event>
 7    1  0.1563903E-008  0.4614232E+02  0.7816164E-02  0.1320468E+00
        -11   -1    0    0    0    0  0.00000000000E+00  0.00000000000E+00  0.45593999997E+02  0.45594000000E+02  0.51100000000E-03 0. -1.
         11   -1    0    0    0    0 -0.00000000000E+00 -0.00000000000E+00 -0.45593999997E+02  0.45594000000E+02  0.51100000000E-03 0.  1.
    9900012    2    1    2    0    0 -0.90411707559E+01 -0.52632716637E+01  0.43814024247E+02  0.46142317433E+02  0.99999970077E+01 0.  0.
        -12    1    1    2    0    0  0.90411707559E+01  0.52632716637E+01 -0.43814024247E+02  0.45045682567E+02  0.00000000000E+00 0.  1.
         11    1    3    3    0    0 -0.49409871430E+01 -0.20730525996E+01  0.17746358835E+02  0.18537641522E+02  0.51100000000E-03 0. -1.
        -11    1    3    3    0    0 -0.34384533567E+01 -0.27142145678E+01  0.26372907376E+02  0.26734250802E+02  0.51100000000E-03 0.  1.
        -12    1    3    3    0    0 -0.66173025614E+00 -0.47600449629E+00 -0.30524196519E+00  0.87042510860E+00  0.00000000000E+00 0.  1.
</event>
<event>
 7    1  0.1563903E-008  0.4614232E+02  0.7816164E-02  0.1320468E+00
        -11   -1    0    0    0    0  0.00000000000E+00  0.00000000000E+00  0.45593999997E+02  0.45594000000E+02  0.51100000000E-03 0. -1.
         11   -1    0    0    0    0 -0.00000000000E+00 -0.00000000000E+00 -0.45593999997E+02  0.45594000000E+02  0.51100000000E-03 0.  1.
    9900012    2    1    2    0    0  0.30007043096E+02 -0.26106629361E+02  0.21145565314E+02  0.46142315807E+02  0.99999821791E+01 0.  0.
        -12    1    1    2    0    0 -0.30007043096E+02  0.26106629361E+02 -0.21145565314E+02  0.45045684193E+02  0.00000000000E+00 0.  1.
         11    1    3    3    0    0  0.90337626284E+01 -0.98652423679E+01  0.39282210413E+01  0.13941405776E+02  0.51100000000E-03 0. -1.
        -11    1    3    3    0    0  0.24001388528E+01 -0.40319199184E+01  0.13210730122E+01  0.48746567988E+01  0.51100000000E-03 0.  1.
         12    1    3    3    0    0  0.18573141615E+02 -0.12209467075E+02  0.15896271261E+02  0.27326253232E+02  0.00000000000E+00 0. -1.
</event>
<event>
 7    1  0.1563903E-008  0.4614232E+02  0.7816164E-02  0.1320468E+00
        -11   -1    0    0    0    0  0.00000000000E+00  0.00000000000E+00  0.45593999997E+02  0.45594000000E+02  0.51100000000E-03 0.  1.
         11   -1    0    0    0    0 -0.00000000000E+00 -0.00000000000E+00 -0.45593999997E+02  0.45594000000E+02  0.51100000000E-03 0. -1.
    9900012    2    1    2    0    0  0.28297488100E+02  0.16696607969E+02 -0.30815401050E+02  0.46142317717E+02  0.99999996000E+01 0.  0.
        -12    1    1    2    0    0 -0.28297488100E+02 -0.16696607969E+02  0.30815401050E+02  0.45045682283E+02  0.00000000000E+00 0.  1.
         11    1    3    3    0    0  0.43327960533E+01  0.51805443629E+01 -0.10690727282E+02  0.12645268349E+02  0.51100000000E-03 0. -1.
        -11    1    3    3    0    0  0.20496218704E+02  0.10420634060E+02 -0.16083417055E+02  0.28059951885E+02  0.51100000000E-03 0.  1.
        -12    1    3    3    0    0  0.34684733425E+01  0.10954295460E+01 -0.40412567136E+01  0.54370974833E+01  0.00000000000E+00 0.  1.
</event>
<event>
 7    1  0.1563903E-008  0.4614232E+02  0.7816164E-02  0.1320468E+00
        -11   -1    0    0    0    0  0.00000000000E+00  0.00000000000E+00  0.45593999997E+02  0.45594000000E+02  0.51100000000E-03 0. -1.
         11   -1    0    0    0    0 -0.00000000000E+00 -0.00000000000E+00 -0.45593999997E+02  0.45594000000E+02  0.51100000000E-03 0.  1.
    9900012    2    1    2    0    0 -0.11851700599E+02  0.39990338008E+02  0.17012452194E+02  0.46142317957E+02  0.10000001787E+02 0.  0.
        -12    1    1    2    0    0  0.11851700599E+02 -0.39990338008E+02 -0.17012452194E+02  0.45045682043E+02  0.00000000000E+00 0.  1.
         11    1    3    3    0    0 -0.32872681208E+01  0.24668955189E+01  0.26406768882E+01  0.48851693818E+01  0.51100000000E-03 0.  1.
        -11    1    3    3    0    0 -0.61159124971E+01  0.31408997903E+02  0.10850671358E+02  0.33788557296E+02  0.51100000000E-03 0. -1.
        -12    1    3    3    0    0 -0.24485199809E+01  0.61144445856E+01  0.35211039477E+01  0.74685912793E+01  0.00000000000E+00 0.  1.
</event>
<event>
 7    1  0.1563903E-008  0.4614232E+02  0.7816164E-02  0.1320468E+00
        -11   -1    0    0    0    0  0.00000000000E+00  0.00000000000E+00  0.45593999997E+02  0.45594000000E+02  0.51100000000E-03 0.  1.
         11   -1    0    0    0    0 -0.00000000000E+00 -0.00000000000E+00 -0.45593999997E+02  0.45594000000E+02  0.51100000000E-03 0. -1.
    9900012    2    1    2    0    0 -0.36217986098E+02 -0.22964265027E+02 -0.13784540219E+02  0.46142317252E+02  0.99999953535E+01 0.  0.
        -12    1    1    2    0    0  0.36217986098E+02  0.22964265027E+02  0.13784540219E+02  0.45045682748E+02  0.00000000000E+00 0.  1.
         11    1    3    3    0    0 -0.29393449504E+01 -0.16615782100E+01 -0.83584029105E+00  0.34783933272E+01  0.51100000000E-03 0. -1.
        -11    1    3    3    0    0 -0.98719720732E+01 -0.10408113858E+02 -0.15064574263E+01  0.14424079899E+02  0.51100000000E-03 0.  1.
        -12    1    3    3    0    0 -0.23406669075E+02 -0.10894572959E+02 -0.11442242501E+02  0.28239844026E+02  0.00000000000E+00 0.  1.
</event>
<event>
 7    1  0.1563903E-008  0.4614232E+02  0.7816164E-02  0.1320468E+00
        -11   -1    0    0    0    0  0.00000000000E+00  0.00000000000E+00  0.45593999997E+02  0.45594000000E+02  0.51100000000E-03 0.  1.
         11   -1    0    0    0    0 -0.00000000000E+00 -0.00000000000E+00 -0.45593999997E+02  0.45594000000E+02  0.51100000000E-03 0. -1.
    9900012    2    1    2    0    0  0.25652033820E+02 -0.30986434785E+02 -0.20271344396E+02  0.46142318926E+02  0.10000010624E+02 0.  0.
        -12    1    1    2    0    0 -0.25652033820E+02  0.30986434785E+02  0.20271344396E+02  0.45045681074E+02  0.00000000000E+00 0.  1.
         11    1    3    3    0    0  0.19943875443E+02 -0.21376751065E+02 -0.16250353823E+02  0.33448432749E+02  0.51100000000E-03 0. -1.
        -11    1    3    3    0    0  0.65837890186E+00 -0.35755339237E+01 -0.30885978584E+01  0.47704656597E+01  0.51100000000E-03 0.  1.
         12    1    3    3    0    0  0.50497794752E+01 -0.60341497966E+01 -0.93239271474E+00  0.79234205171E+01  0.00000000000E+00 0. -1.
</event>
<event>
 7    1  0.1604262E-008  0.4614232E+02  0.7816164E-02  0.1320468E+00
        -11   -1    0    0    0    0  0.00000000000E+00  0.00000000000E+00  0.45593999997E+02  0.45594000000E+02  0.51100000000E-03 0.  1.
         11   -1    0    0    0    0 -0.00000000000E+00 -0.00000000000E+00 -0.45593999997E+02  0.45594000000E+02  0.51100000000E-03 0. -1.
    9900012    2    1    2    0    0  0.37636463966E+02  0.10081805373E+02 -0.22604577628E+02  0.46142321526E+02  0.10000034331E+02 0.  0.
        -12    1    1    2    0    0 -0.37636463966E+02 -0.10081805373E+02  0.22604577628E+02  0.45045678474E+02  0.00000000000E+00 0.  1.
         11    1    3    3    0    0  0.12319802739E+02  0.50485991451E+01 -0.34810265227E+01  0.13761665552E+02  0.51100000000E-03 0. -1.
        -11    1    3    3    0    0  0.37219823624E+01 -0.69820685054E+00 -0.28793130037E+01  0.47572144314E+01  0.51100000000E-03 0.  1.
         12    1    3    3    0    0  0.21594678864E+02  0.57314130780E+01 -0.16244238102E+02  0.27623441542E+02  0.00000000000E+00 0. -1.
</event>
<event>
 7    1  0.1563903E-008  0.4614232E+02  0.7816164E-02  0.1320468E+00
        -11   -1    0    0    0    0  0.00000000000E+00  0.00000000000E+00  0.45593999997E+02  0.45594000000E+02  0.51100000000E-03 0.  1.
         11   -1    0    0    0    0 -0.00000000000E+00 -0.00000000000E+00 -0.45593999997E+02  0.45594000000E+02  0.51100000000E-03 0. -1.
    9900012    2    1    2    0    0 -0.29380978628E+02  0.13512949206E+02 -0.31357164115E+02  0.46142318267E+02  0.10000004615E+02 0.  0.
        -12    1    1    2    0    0  0.29380978628E+02 -0.13512949206E+02  0.31357164115E+02  0.45045681733E+02  0.00000000000E+00 0.  1.
         11    1    3    3    0    0 -0.21606390874E+02  0.78554231645E+01 -0.21657449611E+02  0.31584631130E+02  0.51100000000E-03 0. -1.
        -11    1    3    3    0    0 -0.36372005416E+01  0.55422494561E+01 -0.50565038381E+01  0.83375049109E+01  0.51100000000E-03 0.  1.
         12    1    3    3    0    0 -0.41373872129E+01  0.11527658558E+00 -0.46432106661E+01  0.62201822265E+01  0.00000000000E+00 0. -1.
</event>
<event>
 7    1  0.1563903E-008  0.4614232E+02  0.7816164E-02  0.1320468E+00
        -11   -1    0    0    0    0  0.00000000000E+00  0.00000000000E+00  0.45593999997E+02  0.45594000000E+02  0.51100000000E-03 0.  1.
         11   -1    0    0    0    0 -0.00000000000E+00 -0.00000000000E+00 -0.45593999997E+02  0.45594000000E+02  0.51100000000E-03 0. -1.
    9900012    2    1    2    0    0  0.32628531625E+02  0.30762767342E+02 -0.42596633023E+01  0.46142315834E+02  0.99999824280E+01 0.  0.
        -12    1    1    2    0    0 -0.32628531625E+02 -0.30762767342E+02  0.42596633023E+01  0.45045684166E+02  0.00000000000E+00 0.  1.
         11    1    3    3    0    0  0.12693402612E+01 -0.47754762651E+00  0.26456431264E+00  0.13817637175E+01  0.51100000000E-03 0. -1.
        -11    1    3    3    0    0  0.12538918531E+02  0.97446904132E+01 -0.29094788221E+01  0.16144613233E+02  0.51100000000E-03 0.  1.
         12    1    3    3    0    0  0.18820272833E+02  0.21495624555E+02 -0.16147487928E+01  0.28615938883E+02  0.00000000000E+00 0. -1.
</event>
<event>
 7    1  0.1563903E-008  0.4614232E+02  0.7816164E-02  0.1320468E+00
        -11   -1    0    0    0    0  0.00000000000E+00  0.00000000000E+00  0.45593999997E+02  0.45594000000E+02  0.51100000000E-03 0. -1.
         11   -1    0    0    0    0 -0.00000000000E+00 -0.00000000000E+00 -0.45593999997E+02  0.45594000000E+02  0.51100000000E-03 0.  1.
    9900012    2    1    2    0    0  0.27079622943E+02  0.31843342874E+01  0.35856205082E+02  0.46142318670E+02  0.10000008290E+02 0.  0.
        -12    1    1    2    0    0 -0.27079622943E+02 -0.31843342874E+01 -0.35856205082E+02  0.45045681330E+02  0.00000000000E+00 0.  1.
         11    1    3    3    0    0  0.26830151113E+00  0.13848679411E+00  0.30555751632E+01  0.30704566651E+01  0.51100000000E-03 0. -1.
        -11    1    3    3    0    0  0.14468955986E+02 -0.17775603434E+01  0.18873063418E+02  0.23847493183E+02  0.51100000000E-03 0.  1.
         12    1    3    3    0    0  0.12342365446E+02  0.48234078367E+01  0.13927566501E+02  0.19224368822E+02  0.00000000000E+00 0. -1.
</event>
<event>
 7    1  0.1563903E-008  0.4614232E+02  0.7816164E-02  0.1320468E+00
        -11   -1    0    0    0    0  0.00000000000E+00  0.00000000000E+00  0.45593999997E+02  0.45594000000E+02  0.51100000000E-03 0. -1.
         11   -1    0    0    0    0 -0.00000000000E+00 -0.00000000000E+00 -0.45593999997E+02  0.45594000000E+02  0.51100000000E-03 0.  1.
    9900012    2    1    2    0    0 -0.35120001202E+02  0.26912192097E+02 -0.84517907839E+01  0.46142319460E+02  0.10000015490E+02 0.  0.
        -12    1    1    2    0    0  0.35120001202E+02 -0.26912192097E+02  0.84517907839E+01  0.45045680540E+02  0.00000000000E+00 0.  1.
         11    1    3    3    0    0 -0.26887064449E+02  0.17968780955E+02 -0.21656683866E+01  0.32411131476E+02  0.51100000000E-03 0. -1.
        -11    1    3    3    0    0 -0.52083775584E+01  0.49571884751E+01 -0.40249004706E+01  0.82401904364E+01  0.51100000000E-03 0.  1.
         12    1    3    3    0    0 -0.30245591942E+01  0.39862226665E+01 -0.22612219266E+01  0.54909975476E+01  0.00000000000E+00 0. -1.
</event>
<event>
 7    1  0.1563903E-008  0.4614232E+02  0.7816164E-02  0.1320468E+00
        -11   -1    0    0    0    0  0.00000000000E+00  0.00000000000E+00  0.45593999997E+02  0.45594000000E+02  0.51100000000E-03 0.  1.
         11   -1    0    0    0    0 -0.00000000000E+00 -0.00000000000E+00 -0.45593999997E+02  0.45594000000E+02  0.51100000000E-03 0. -1.
    9900012    2    1    2    0    0 -0.17359341368E+02 -0.11958598658E+02 -0.39809027735E+02  0.46142317590E+02  0.99999984380E+01 0.  0.
        -12    1    1    2    0    0  0.17359341368E+02  0.11958598658E+02  0.39809027735E+02  0.45045682410E+02  0.00000000000E+00 0.  1.
         11    1    3    3    0    0 -0.49173920802E+01 -0.30475076577E+01 -0.17409116674E+02  0.18345173518E+02  0.51100000000E-03 0. -1.
        -11    1    3    3    0    0 -0.69222460515E+01 -0.15797333367E+01 -0.77541761086E+01  0.10513814493E+02  0.51100000000E-03 0.  1.
        -12    1    3    3    0    0 -0.55197032361E+01 -0.73313576640E+01 -0.14645734953E+02  0.17283329578E+02  0.00000000000E+00 0.  1.
</event>
<event>
 7    1  0.1563903E-008  0.4614232E+02  0.7816164E-02  0.1320468E+00
        -11   -1    0    0    0    0  0.00000000000E+00  0.00000000000E+00  0.45593999997E+02  0.45594000000E+02  0.51100000000E-03 0.  1.
         11   -1    0    0    0    0 -0.00000000000E+00 -0.00000000000E+00 -0.45593999997E+02  0.45594000000E+02  0.51100000000E-03 0. -1.
    9900012    2    1    2    0    0 -0.22556644443E+02 -0.10952965076E+02 -0.37421169114E+02  0.46142317073E+02  0.99999937290E+01 0.  0.
        -12    1    1    2    0    0  0.22556644443E+02  0.10952965076E+02  0.37421169114E+02  0.45045682927E+02  0.00000000000E+00 0.  1.
         11    1    3    3    0    0 -0.76659762150E+01 -0.91214334441E+00 -0.99885315101E+01  0.12624181510E+02  0.51100000000E-03 0.  1.
        -11    1    3    3    0    0 -0.14733428957E+02 -0.93513803706E+01 -0.22198395595E+02  0.28236342024E+02  0.51100000000E-03 0. -1.
        -12    1    3    3    0    0 -0.15723927032E+00 -0.68944136107E+00 -0.52342420091E+01  0.52817935389E+01  0.00000000000E+00 0.  1.
</event>
<event>
 7    1 -0.1563903E-008  0.4614231E+02  0.7816164E-02  0.1320468E+00
        -11   -1    0    0    0    0  0.00000000000E+00  0.00000000000E+00  0.45593999997E+02  0.45594000000E+02  0.51100000000E-03 0.  1.
         11   -1    0    0    0    0 -0.00000000000E+00 -0.00000000000E+00 -0.45593999997E+02  0.45594000000E+02  0.51100000000E-03 0. -1.
    9900012    2    1    2    0    0  0.40960524662E+02 -0.17738986074E+02  0.60562134859E+01  0.46142312867E+02  0.99999553710E+01 0.  0.
        -12    1    1    2    0    0 -0.40960524662E+02  0.17738986074E+02 -0.60562134859E+01  0.45045687133E+02  0.00000000000E+00 0.  1.
         11    1    3    3    0    0  0.20565188271E+02 -0.14132722575E+02  0.24844044959E+01  0.25076544458E+02  0.51100000000E-03 0. -1.
        -11    1    3    3    0    0  0.17488826677E+02 -0.25973955638E+01  0.31789134097E+01  0.17964159123E+02  0.51100000000E-03 0.  1.
        -12    1    3    3    0    0  0.29065097139E+01 -0.10088679350E+01  0.39289558029E+00  0.31016092863E+01  0.00000000000E+00 0.  1.
</event>
<event>
 7    1  0.1563903E-008  0.4614232E+02  0.7816164E-02  0.1320468E+00
        -11   -1    0    0    0    0  0.00000000000E+00  0.00000000000E+00  0.45593999997E+02  0.45594000000E+02  0.51100000000E-03 0. -1.
         11   -1    0    0    0    0 -0.00000000000E+00 -0.00000000000E+00 -0.45593999997E+02  0.45594000000E+02  0.51100000000E-03 0.  1.
    9900012    2    1    2    0    0 -0.22870592852E+02 -0.38707261544E+02 -0.27923717521E+01  0.46142318146E+02  0.10000003510E+02 0.  0.
        -12    1    1    2    0    0  0.22870592852E+02  0.38707261544E+02  0.27923717521E+01  0.45045681854E+02  0.00000000000E+00 0.  1.
         11    1    3    3    0    0 -0.83753550892E+01 -0.15566451507E+02  0.21149491759E+01  0.17802640132E+02  0.51100000000E-03 0. -1.
        -11    1    3    3    0    0 -0.11110859988E+02 -0.20218186358E+02 -0.57813422860E+01  0.23783401527E+02  0.51100000000E-03 0.  1.
        -12    1    3    3    0    0 -0.33843777753E+01 -0.29226236789E+01  0.87402135802E+00  0.45562764873E+01  0.00000000000E+00 0.  1.
</event>
<event>
 7    1  0.1563903E-008  0.4614232E+02  0.7816164E-02  0.1320468E+00
        -11   -1    0    0    0    0  0.00000000000E+00  0.00000000000E+00  0.45593999997E+02  0.45594000000E+02  0.51100000000E-03 0. -1.
         11   -1    0    0    0    0 -0.00000000000E+00 -0.00000000000E+00 -0.45593999997E+02  0.45594000000E+02  0.51100000000E-03 0.  1.
    9900012    2    1    2    0    0  0.36353775725E+02 -0.22591765008E+02 -0.14040251382E+02  0.46142317471E+02  0.99999973516E+01 0.  0.
        -12    1    1    2    0    0 -0.36353775725E+02  0.22591765008E+02  0.14040251382E+02  0.45045682529E+02  0.00000000000E+00 0.  1.
         11    1    3    3    0    0  0.95804251438E+01 -0.44129447989E+01 -0.72807921532E+01  0.12816729785E+02  0.51100000000E-03 0. -1.
        -11    1    3    3    0    0  0.20858881655E+01 -0.29389459334E+01 -0.41756660517E+00  0.36280428291E+01  0.51100000000E-03 0.  1.
         12    1    3    3    0    0  0.24687462416E+02 -0.15239874276E+02 -0.63418926234E+01  0.29697544857E+02  0.00000000000E+00 0. -1.
</event>
<event>
 7    1  0.1563903E-008  0.4614232E+02  0.7816164E-02  0.1320468E+00
        -11   -1    0    0    0    0  0.00000000000E+00  0.00000000000E+00  0.45593999997E+02  0.45594000000E+02  0.51100000000E-03 0. -1.
         11   -1    0    0    0    0 -0.00000000000E+00 -0.00000000000E+00 -0.45593999997E+02  0.45594000000E+02  0.51100000000E-03 0.  1.
    9900012    2    1    2    0    0  0.14461831961E+02  0.43014627296E+00  0.42658925626E+02  0.46142317132E+02  0.99999942673E+01 0.  0.
        -12    1    1    2    0    0 -0.14461831961E+02 -0.43014627296E+00 -0.42658925626E+02  0.45045682868E+02  0.00000000000E+00 0.  1.
         11    1    3    3    0    0  0.38959601663E+01 -0.23845522229E+01  0.12625147087E+02  0.13426054303E+02  0.51100000000E-03 0. -1.
        -11    1    3    3    0    0  0.21878438021E+01  0.14399317951E+01  0.16633471324E+01  0.31027065637E+01  0.51100000000E-03 0.  1.
        -12    1    3    3    0    0  0.83780279926E+01  0.13747667008E+01  0.28370431406E+02  0.29613556266E+02  0.00000000000E+00 0.  1.
</event>
<event>
 7    1  0.1563903E-008  0.4614232E+02  0.7816164E-02  0.1320468E+00
        -11   -1    0    0    0    0  0.00000000000E+00  0.00000000000E+00  0.45593999997E+02  0.45594000000E+02  0.51100000000E-03 0. -1.
         11   -1    0    0    0    0 -0.00000000000E+00 -0.00000000000E+00 -0.45593999997E+02  0.45594000000E+02  0.51100000000E-03 0.  1.
    9900012    2    1    2    0    0  0.39656946880E+02  0.87356109507E+01 -0.19496900621E+02  0.46142317984E+02  0.10000002031E+02 0.  0.
        -12    1    1    2    0    0 -0.39656946880E+02 -0.87356109507E+01  0.19496900621E+02  0.45045682016E+02  0.00000000000E+00 0.  1.
         11    1    3    3    0    0  0.32733549970E+02  0.89360535444E+01 -0.18004158748E+02  0.38412082462E+02  0.51100000000E-03 0. -1.
        -11    1    3    3    0    0  0.62417053096E+01  0.46243687386E+00 -0.21003454622E+01  0.66018318940E+01  0.51100000000E-03 0.  1.
         12    1    3    3    0    0  0.68169160029E+00 -0.66287946760E+00  0.60760358926E+00  0.11284036282E+01  0.00000000000E+00 0. -1.
</event>
<event>
 7    1  0.1563903E-008  0.4614232E+02  0.7816164E-02  0.1320468E+00
        -11   -1    0    0    0    0  0.00000000000E+00  0.00000000000E+00  0.45593999997E+02  0.45594000000E+02  0.51100000000E-03 0.  1.
         11   -1    0    0    0    0 -0.00000000000E+00 -0.00000000000E+00 -0.45593999997E+02  0.45594000000E+02  0.51100000000E-03 0. -1.
    9900012    2    1    2    0    0 -0.29669273972E+02  0.13289052551E+02 -0.31180903603E+02  0.46142317796E+02  0.10000000314E+02 0.  0.
        -12    1    1    2    0    0  0.29669273972E+02 -0.13289052551E+02  0.31180903603E+02  0.45045682204E+02  0.00000000000E+00 0.  1.
         11    1    3    3    0    0 -0.22895590712E+02  0.62773620296E+01 -0.18767506506E+02  0.30262727055E+02  0.51100000000E-03 0. -1.
        -11    1    3    3    0    0 -0.59178657438E+01  0.53572079551E+01 -0.10692936218E+02  0.13343901126E+02  0.51100000000E-03 0.  1.
         12    1    3    3    0    0 -0.85581751640E+00  0.16544825664E+01 -0.17204608791E+01  0.25356896144E+01  0.00000000000E+00 0. -1.
</event>
<event>
 7    1  0.1563903E-008  0.4614232E+02  0.7816164E-02  0.1320468E+00
        -11   -1    0    0    0    0  0.00000000000E+00  0.00000000000E+00  0.45593999997E+02  0.45594000000E+02  0.51100000000E-03 0.  1.
         11   -1    0    0    0    0 -0.00000000000E+00 -0.00000000000E+00 -0.45593999997E+02  0.45594000000E+02  0.51100000000E-03 0. -1.
    9900012    2    1    2    0    0 -0.38187171510E+02  0.18318611742E+02 -0.15338899892E+02  0.46142318143E+02  0.10000003480E+02 0.  0.
        -12    1    1    2    0    0  0.38187171510E+02 -0.18318611742E+02  0.15338899892E+02  0.45045681857E+02  0.00000000000E+00 0.  1.
         11    1    3    3    0    0 -0.14205122005E+02  0.53561345799E+01 -0.56911339430E+01  0.16213040265E+02  0.51100000000E-03 0. -1.
        -11    1    3    3    0    0 -0.14866407899E+02  0.11433201129E+02 -0.42655044535E+01  0.19233374649E+02  0.51100000000E-03 0.  1.
        -12    1    3    3    0    0 -0.91156416062E+01  0.15292760325E+01 -0.53822614953E+01  0.10695903229E+02  0.00000000000E+00 0.  1.
</event>
<event>
 7    1  0.1563903E-008  0.4614232E+02  0.7816164E-02  0.1320468E+00
        -11   -1    0    0    0    0  0.00000000000E+00  0.00000000000E+00  0.45593999997E+02  0.45594000000E+02  0.51100000000E-03 0.  1.
         11   -1    0    0    0    0 -0.00000000000E+00 -0.00000000000E+00 -0.45593999997E+02  0.45594000000E+02  0.51100000000E-03 0. -1.
    9900012    2    1    2    0    0 -0.30894333393E+02 -0.32589848709E+02  0.35433635737E+01  0.46142317631E+02  0.99999988159E+01 0.  0.
        -12    1    1    2    0    0  0.30894333393E+02  0.32589848709E+02 -0.35433635737E+01  0.45045682369E+02  0.00000000000E+00 0.  1.
         11    1    3    3    0    0 -0.94160000762E+01 -0.14622872597E+02  0.29593100086E+01  0.17642193072E+02  0.51100000000E-03 0. -1.
        -11    1    3    3    0    0 -0.26581548797E+01 -0.35681645027E+00 -0.37418497175E+00  0.27079734115E+01  0.51100000000E-03 0.  1.
        -12    1    3    3    0    0 -0.18820178437E+02 -0.17610159662E+02  0.95823853684E+00  0.25792151147E+02  0.00000000000E+00 0.  1.
</event>
<event>
 7    1  0.1563903E-008  0.4614232E+02  0.7816164E-02  0.1320468E+00
        -11   -1    0    0    0    0  0.00000000000E+00  0.00000000000E+00  0.45593999997E+02  0.45594000000E+02  0.51100000000E-03 0. -1.
         11   -1    0    0    0    0 -0.00000000000E+00 -0.00000000000E+00 -0.45593999997E+02  0.45594000000E+02  0.51100000000E-03 0.  1.
    9900012    2    1    2    0    0 -0.37562299661E+02  0.21450626893E+02  0.12572098031E+02  0.46142318755E+02  0.10000009063E+02 0.  0.
        -12    1    1    2    0    0  0.37562299661E+02 -0.21450626893E+02 -0.12572098031E+02  0.45045681245E+02  0.00000000000E+00 0.  1.
         11    1    3    3    0    0 -0.36303484819E+02  0.20508424519E+02  0.11226496241E+02  0.43180698285E+02  0.51100000000E-03 0. -1.
        -11    1    3    3    0    0 -0.68569165701E+00  0.14305830834E+01  0.15108070675E+01  0.21907257389E+01  0.51100000000E-03 0.  1.
         12    1    3    3    0    0 -0.57312318521E+00 -0.48838070980E+00 -0.16520527711E+00  0.77089473128E+00  0.00000000000E+00 0. -1.
</event>
<event>
 7    1  0.1563903E-008  0.4614232E+02  0.7816164E-02  0.1320468E+00
        -11   -1    0    0    0    0  0.00000000000E+00  0.00000000000E+00  0.45593999997E+02  0.45594000000E+02  0.51100000000E-03 0.  1.
         11   -1    0    0    0    0 -0.00000000000E+00 -0.00000000000E+00 -0.45593999997E+02  0.45594000000E+02  0.51100000000E-03 0. -1.
    9900012    2    1    2    0    0  0.18199569104E+02  0.14461722915E+02 -0.38584293718E+02  0.46142317998E+02  0.10000002161E+02 0.  0.
        -12    1    1    2    0    0 -0.18199569104E+02 -0.14461722915E+02  0.38584293718E+02  0.45045682002E+02  0.00000000000E+00 0.  1.
         11    1    3    3    0    0  0.96314714965E+01  0.72335143371E+01 -0.19081871160E+02  0.22565610563E+02  0.51100000000E-03 0. -1.
        -11    1    3    3    0    0  0.54318391916E+00  0.31644855306E+01 -0.17053017495E+01  0.36355290896E+01  0.51100000000E-03 0.  1.
        -12    1    3    3    0    0  0.80249136887E+01  0.40637230476E+01 -0.17797120809E+02  0.19941178345E+02  0.00000000000E+00 0.  1.
</event>
<event>
 7    1  0.1563903E-008  0.4614232E+02  0.7816164E-02  0.1320468E+00
        -11   -1    0    0    0    0  0.00000000000E+00  0.00000000000E+00  0.45593999997E+02  0.45594000000E+02  0.51100000000E-03 0.  1.
         11   -1    0    0    0    0 -0.00000000000E+00 -0.00000000000E+00 -0.45593999997E+02  0.45594000000E+02  0.51100000000E-03 0. -1.
    9900012    2    1    2    0    0  0.43216376597E+02  0.61458027581E+01 -0.11121480943E+02  0.46142318342E+02  0.10000005295E+02 0.  0.
        -12    1    1    2    0    0 -0.43216376597E+02 -0.61458027581E+01  0.11121480943E+02  0.45045681658E+02  0.00000000000E+00 0.  1.
         11    1    3    3    0    0  0.33579716653E+02  0.28857795866E+01 -0.99744786405E+01  0.35148475340E+02  0.51100000000E-03 0. -1.
        -11    1    3    3    0    0  0.78962838426E+01  0.40897539393E+01 -0.15433456377E+01  0.90254806978E+01  0.51100000000E-03 0.  1.
         12    1    3    3    0    0  0.17403761014E+01 -0.82973076785E+00  0.39634333521E+00  0.19683623043E+01  0.00000000000E+00 0. -1.
</event>
<event>
 7    1  0.1563903E-008  0.4614232E+02  0.7816164E-02  0.1320468E+00
        -11   -1    0    0    0    0  0.00000000000E+00  0.00000000000E+00  0.45593999997E+02  0.45594000000E+02  0.51100000000E-03 0.  1.
         11   -1    0    0    0    0 -0.00000000000E+00 -0.00000000000E+00 -0.45593999997E+02  0.45594000000E+02  0.51100000000E-03 0. -1.
    9900012    2    1    2    0    0 -0.18840196842E+02  0.29938807702E+02 -0.27889571701E+02  0.46142318372E+02  0.10000005570E+02 0.  0.
        -12    1    1    2    0    0  0.18840196842E+02 -0.29938807702E+02  0.27889571701E+02  0.45045681628E+02  0.00000000000E+00 0.  1.
         11    1    3    3    0    0 -0.13005487848E+02  0.11583200246E+02 -0.12759593280E+02  0.21589823135E+02  0.51100000000E-03 0. -1.
        -11    1    3    3    0    0 -0.15599299586E+01  0.70260115706E+01 -0.63117079293E+01  0.95726630209E+01  0.51100000000E-03 0.  1.
         12    1    3    3    0    0 -0.42747790359E+01  0.11329595886E+02 -0.88182704919E+01  0.14979832215E+02  0.00000000000E+00 0. -1.
</event>
<event>
 7    1  0.1563903E-008  0.4614232E+02  0.7816164E-02  0.1320468E+00
        -11   -1    0    0    0    0  0.00000000000E+00  0.00000000000E+00  0.45593999997E+02  0.45594000000E+02  0.51100000000E-03 0.  1.
         11   -1    0    0    0    0 -0.00000000000E+00 -0.00000000000E+00 -0.45593999997E+02  0.45594000000E+02  0.51100000000E-03 0. -1.
    9900012    2    1    2    0    0 -0.26677106141E+02  0.72595054631E+01 -0.35563257129E+02  0.46142315753E+02  0.99999816924E+01 0.  0.
        -12    1    1    2    0    0  0.26677106141E+02 -0.72595054631E+01  0.35563257129E+02  0.45045684247E+02  0.00000000000E+00 0.  1.
         11    1    3    3    0    0 -0.20089572067E+02  0.83458015429E+01 -0.29352312016E+02  0.36534935749E+02  0.51100000000E-03 0. -1.
        -11    1    3    3    0    0 -0.17911040788E+00 -0.26101519960E+00 -0.16950149766E+01  0.17243217521E+01  0.51100000000E-03 0.  1.
         12    1    3    3    0    0 -0.64084236665E+01 -0.82528088020E+00 -0.45159301364E+01  0.78830582528E+01  0.00000000000E+00 0. -1.
</event>
<event>
 7    1  0.1563903E-008  0.4614232E+02  0.7816164E-02  0.1320468E+00
        -11   -1    0    0    0    0  0.00000000000E+00  0.00000000000E+00  0.45593999997E+02  0.45594000000E+02  0.51100000000E-03 0. -1.
         11   -1    0    0    0    0 -0.00000000000E+00 -0.00000000000E+00 -0.45593999997E+02  0.45594000000E+02  0.51100000000E-03 0.  1.
    9900012    2    1    2    0    0  0.26324605741E+02  0.36379226438E+02  0.35609893835E+01  0.46142316200E+02  0.99999857625E+01 0.  0.
        -12    1    1    2    0    0 -0.26324605741E+02 -0.36379226438E+02 -0.35609893835E+01  0.45045683800E+02  0.00000000000E+00 0.  1.
         11    1    3    3    0    0  0.75216307088E+01  0.13541008554E+02  0.94848744176E+00  0.15518810195E+02  0.51100000000E-03 0. -1.
        -11    1    3    3    0    0  0.15934089601E+02  0.21739558940E+02  0.61807575912E+00  0.26960816980E+02  0.51100000000E-03 0.  1.
        -12    1    3    3    0    0  0.28688854317E+01  0.10986589434E+01  0.19944261826E+01  0.36626890247E+01  0.00000000000E+00 0.  1.
</event>
<event>
 7    1  0.1563903E-008  0.4614232E+02  0.7816164E-02  0.1320468E+00
        -11   -1    0    0    0    0  0.00000000000E+00  0.00000000000E+00  0.45593999997E+02  0.45594000000E+02  0.51100000000E-03 0.  1.
         11   -1    0    0    0    0 -0.00000000000E+00 -0.00000000000E+00 -0.45593999997E+02  0.45594000000E+02  0.51100000000E-03 0. -1.
    9900012    2    1    2    0    0 -0.41739661635E+02  0.15788520369E+02  0.61348452031E+01  0.46142322577E+02  0.10000043913E+02 0.  0.
        -12    1    1    2    0    0  0.41739661635E+02 -0.15788520369E+02 -0.61348452031E+01  0.45045677423E+02  0.00000000000E+00 0.  1.
         11    1    3    3    0    0 -0.46568441657E+01 -0.63554701446E+00  0.21590133644E+01  0.51721810254E+01  0.51100000000E-03 0.  1.
        -11    1    3    3    0    0 -0.21194758524E+02  0.71420894108E+01  0.17225145463E+01  0.22431992481E+02  0.51100000000E-03 0. -1.
        -12    1    3    3    0    0 -0.15888058946E+02  0.92819779729E+01  0.22533172925E+01  0.18538149071E+02  0.00000000000E+00 0.  1.
</event>
<event>
 7    1  0.1563903E-008  0.4614232E+02  0.7816164E-02  0.1320468E+00
        -11   -1    0    0    0    0  0.00000000000E+00  0.00000000000E+00  0.45593999997E+02  0.45594000000E+02  0.51100000000E-03 0. -1.
         11   -1    0    0    0    0 -0.00000000000E+00 -0.00000000000E+00 -0.45593999997E+02  0.45594000000E+02  0.51100000000E-03 0.  1.
    9900012    2    1    2    0    0  0.14357280016E+02 -0.40182313674E+02  0.14434810213E+02  0.46142316882E+02  0.99999919831E+01 0.  0.
        -12    1    1    2    0    0 -0.14357280016E+02  0.40182313674E+02 -0.14434810213E+02  0.45045683118E+02  0.00000000000E+00 0.  1.
         11    1    3    3    0    0  0.85574861433E+01 -0.26444768831E+02  0.46727772202E+01  0.28184946600E+02  0.51100000000E-03 0. -1.
        -11    1    3    3    0    0  0.15852587152E+01 -0.33396964038E+01  0.35858274260E+01  0.51502209519E+01  0.51100000000E-03 0.  1.
         12    1    3    3    0    0  0.42145351579E+01 -0.10397848440E+02  0.61762055665E+01  0.12807149330E+02  0.00000000000E+00 0. -1.
</event>
<event>
 7    1  0.1563903E-008  0.4614232E+02  0.7816164E-02  0.1320468E+00
        -11   -1    0    0    0    0  0.00000000000E+00  0.00000000000E+00  0.45593999997E+02  0.45594000000E+02  0.51100000000E-03 0.  1.
         11   -1    0    0    0    0 -0.00000000000E+00 -0.00000000000E+00 -0.45593999997E+02  0.45594000000E+02  0.51100000000E-03 0. -1.
    9900012    2    1    2    0    0 -0.41270044678E+02  0.34399797772E+01 -0.17721833139E+02  0.46142318538E+02  0.10000007081E+02 0.  0.
        -12    1    1    2    0    0  0.41270044678E+02 -0.34399797772E+01  0.17721833139E+02  0.45045681462E+02  0.00000000000E+00 0.  1.
         11    1    3    3    0    0 -0.20643153749E+02  0.26480899168E+00 -0.72283778813E+01  0.21873714078E+02  0.51100000000E-03 0. -1.
        -11    1    3    3    0    0 -0.16954778463E+02 -0.32042479992E-01 -0.88356468659E+01  0.19118948592E+02  0.51100000000E-03 0.  1.
        -12    1    3    3    0    0 -0.36721124658E+01  0.32072132655E+01 -0.16578083918E+01  0.51496558677E+01  0.00000000000E+00 0.  1.
</event>
<event>
 7    1  0.1563903E-008  0.4614232E+02  0.7816164E-02  0.1320468E+00
        -11   -1    0    0    0    0  0.00000000000E+00  0.00000000000E+00  0.45593999997E+02  0.45594000000E+02  0.51100000000E-03 0. -1.
         11   -1    0    0    0    0 -0.00000000000E+00 -0.00000000000E+00 -0.45593999997E+02  0.45594000000E+02  0.51100000000E-03 0.  1.
    9900012    2    1    2    0    0  0.13838963747E+02  0.42444539429E+02  0.60048030000E+01  0.46142317588E+02  0.99999984176E+01 0.  0.
        -12    1    1    2    0    0 -0.13838963747E+02 -0.42444539429E+02 -0.60048030000E+01  0.45045682412E+02  0.00000000000E+00 0.  1.
         11    1    3    3    0    0  0.47109724491E+01  0.15893205349E+02  0.35482032103E+01  0.16952197025E+02  0.51100000000E-03 0. -1.
        -11    1    3    3    0    0  0.38482604052E+01  0.14627389062E+02  0.49476104064E+01  0.15913782326E+02  0.51100000000E-03 0.  1.
        -12    1    3    3    0    0  0.52797308928E+01  0.11923945017E+02 -0.24910106168E+01  0.13276338237E+02  0.00000000000E+00 0.  1.
</event>
<event>
 7    1  0.1563903E-008  0.4614232E+02  0.7816164E-02  0.1320468E+00
        -11   -1    0    0    0    0  0.00000000000E+00  0.00000000000E+00  0.45593999997E+02  0.45594000000E+02  0.51100000000E-03 0.  1.
         11   -1    0    0    0    0 -0.00000000000E+00 -0.00000000000E+00 -0.45593999997E+02  0.45594000000E+02  0.51100000000E-03 0. -1.
    9900012    2    1    2    0    0 -0.72394140008E+01 -0.38587417751E+02 -0.22084281183E+02  0.46142318752E+02  0.10000009037E+02 0.  0.
        -12    1    1    2    0    0  0.72394140008E+01  0.38587417751E+02  0.22084281183E+02  0.45045681248E+02  0.00000000000E+00 0.  1.
         11    1    3    3    0    0 -0.32655976321E+01 -0.10094283685E+02 -0.68335008664E+01  0.12619644423E+02  0.51100000000E-03 0. -1.
        -11    1    3    3    0    0 -0.29002893219E+01 -0.38661710579E+01 -0.45914800323E+01  0.66663817733E+01  0.51100000000E-03 0.  1.
        -12    1    3    3    0    0 -0.10735270468E+01 -0.24626963008E+02 -0.10659300284E+02  0.26856292556E+02  0.00000000000E+00 0.  1.
</event>
<event>
 7    1  0.1563903E-008  0.4614232E+02  0.7816164E-02  0.1320468E+00
        -11   -1    0    0    0    0  0.00000000000E+00  0.00000000000E+00  0.45593999997E+02  0.45594000000E+02  0.51100000000E-03 0.  1.
         11   -1    0    0    0    0 -0.00000000000E+00 -0.00000000000E+00 -0.45593999997E+02  0.45594000000E+02  0.51100000000E-03 0. -1.
    9900012    2    1    2    0    0  0.28413989352E+02 -0.34934957635E+02  0.11433553347E+01  0.46142319661E+02  0.10000017321E+02 0.  0.
        -12    1    1    2    0    0 -0.28413989352E+02  0.34934957635E+02 -0.11433553347E+01  0.45045680339E+02  0.00000000000E+00 0.  1.
         11    1    3    3    0    0 -0.45234734720E+00 -0.66571597133E-01  0.40721590593E+00  0.61227032855E+00  0.51100000000E-03 0.  1.
        -11    1    3    3    0    0  0.19006105367E+02 -0.26049997034E+02 -0.44091021711E+00  0.32249477341E+02  0.51100000000E-03 0. -1.
        -12    1    3    3    0    0  0.98602313319E+01 -0.88183890040E+01  0.11770496459E+01  0.13280571991E+02  0.00000000000E+00 0.  1.
</event>
<event>
 7    1  0.1563903E-008  0.4614232E+02  0.7816164E-02  0.1320468E+00
        -11   -1    0    0    0    0  0.00000000000E+00  0.00000000000E+00  0.45593999997E+02  0.45594000000E+02  0.51100000000E-03 0.  1.
         11   -1    0    0    0    0 -0.00000000000E+00 -0.00000000000E+00 -0.45593999997E+02  0.45594000000E+02  0.51100000000E-03 0. -1.
    9900012    2    1    2    0    0 -0.34201948152E+02 -0.18449929113E+02 -0.22780261954E+02  0.46142317895E+02  0.10000001220E+02 0.  0.
        -12    1    1    2    0    0  0.34201948152E+02  0.18449929113E+02  0.22780261954E+02  0.45045682105E+02  0.00000000000E+00 0.  1.
         11    1    3    3    0    0 -0.24291630745E+02 -0.87949511732E+01 -0.16913397535E+02  0.30878754943E+02  0.51100000000E-03 0. -1.
        -11    1    3    3    0    0 -0.67390359653E+01 -0.63683168435E+01 -0.52492840003E+01  0.10654813369E+02  0.51100000000E-03 0.  1.
         12    1    3    3    0    0 -0.31712814413E+01 -0.32866610958E+01 -0.61758041808E+00  0.46087495822E+01  0.00000000000E+00 0. -1.
</event>
<event>
 7    1  0.1563903E-008  0.4614232E+02  0.7816164E-02  0.1320468E+00
        -11   -1    0    0    0    0  0.00000000000E+00  0.00000000000E+00  0.45593999997E+02  0.45594000000E+02  0.51100000000E-03 0.  1.
         11   -1    0    0    0    0 -0.00000000000E+00 -0.00000000000E+00 -0.45593999997E+02  0.45594000000E+02  0.51100000000E-03 0. -1.
    9900012    2    1    2    0    0 -0.28355542419E+02  0.33222539982E+02 -0.11015424299E+02  0.46142317397E+02  0.99999966753E+01 0.  0.
        -12    1    1    2    0    0  0.28355542419E+02 -0.33222539982E+02  0.11015424299E+02  0.45045682603E+02  0.00000000000E+00 0.  1.
         11    1    3    3    0    0 -0.24151072119E+02  0.29863736740E+02 -0.10146490615E+02  0.39724908164E+02  0.51100000000E-03 0. -1.
        -11    1    3    3    0    0 -0.76463299063E+00  0.22485619630E+01 -0.14108198163E+01  0.27624458958E+01  0.51100000000E-03 0.  1.
         12    1    3    3    0    0 -0.34398373096E+01  0.11102412787E+01  0.54188613198E+00  0.36549633368E+01  0.00000000000E+00 0. -1.
</event>
<event>
 7    1  0.1563903E-008  0.4614232E+02  0.7816164E-02  0.1320468E+00
        -11   -1    0    0    0    0  0.00000000000E+00  0.00000000000E+00  0.45593999997E+02  0.45594000000E+02  0.51100000000E-03 0. -1.
         11   -1    0    0    0    0 -0.00000000000E+00 -0.00000000000E+00 -0.45593999997E+02  0.45594000000E+02  0.51100000000E-03 0.  1.
    9900012    2    1    2    0    0 -0.35912626469E+02  0.18289723882E+02  0.20121697523E+02  0.46142318179E+02  0.10000003808E+02 0.  0.
        -12    1    1    2    0    0  0.35912626469E+02 -0.18289723882E+02 -0.20121697523E+02  0.45045681821E+02  0.00000000000E+00 0.  1.
         11    1    3    3    0    0 -0.16739288160E+02  0.53021710333E+01  0.11731357611E+02  0.21117327895E+02  0.51100000000E-03 0.  1.
        -11    1    3    3    0    0 -0.14730965561E+02  0.79170325001E+01  0.70645597020E+01  0.18154579422E+02  0.51100000000E-03 0. -1.
        -12    1    3    3    0    0 -0.44423727475E+01  0.50705203489E+01  0.13257802098E+01  0.68704108612E+01  0.00000000000E+00 0.  1.
</event>
<event>
 7    1  0.1563903E-008  0.4614232E+02  0.7816164E-02  0.1320468E+00
        -11   -1    0    0    0    0  0.00000000000E+00  0.00000000000E+00  0.45593999997E+02  0.45594000000E+02  0.51100000000E-03 0.  1.
         11   -1    0    0    0    0 -0.00000000000E+00 -0.00000000000E+00 -0.45593999997E+02  0.45594000000E+02  0.51100000000E-03 0. -1.
    9900012    2    1    2    0    0 -0.35135974785E+01 -0.30280546190E+02 -0.33164087699E+02  0.46142316991E+02  0.99999929808E+01 0.  0.
        -12    1    1    2    0    0  0.35135974785E+01  0.30280546190E+02  0.33164087699E+02  0.45045683009E+02  0.00000000000E+00 0.  1.
         11    1    3    3    0    0 -0.23088060146E+01 -0.44615059943E+01 -0.74363523673E+01  0.89741271298E+01  0.51100000000E-03 0. -1.
        -11    1    3    3    0    0 -0.21195631704E+00 -0.93415174960E+00  0.43066313301E+00  0.10502551913E+01  0.51100000000E-03 0.  1.
         12    1    3    3    0    0 -0.99283514687E+00 -0.24884888446E+02 -0.26158398465E+02  0.36117934670E+02  0.00000000000E+00 0. -1.
</event>
<event>
 7    1  0.1563903E-008  0.4614232E+02  0.7816164E-02  0.1320468E+00
        -11   -1    0    0    0    0  0.00000000000E+00  0.00000000000E+00  0.45593999997E+02  0.45594000000E+02  0.51100000000E-03 0.  1.
         11   -1    0    0    0    0 -0.00000000000E+00 -0.00000000000E+00 -0.45593999997E+02  0.45594000000E+02  0.51100000000E-03 0. -1.
    9900012    2    1    2    0    0 -0.18253571469E+02 -0.40495564068E+02 -0.74853167378E+01  0.46142317108E+02  0.99999940478E+01 0.  0.
        -12    1    1    2    0    0  0.18253571469E+02  0.40495564068E+02  0.74853167378E+01  0.45045682892E+02  0.00000000000E+00 0.  1.
         11    1    3    3    0    0 -0.86710676991E+01 -0.16978370944E+02 -0.99896179284E+00  0.19090584588E+02  0.51100000000E-03 0. -1.
        -11    1    3    3    0    0 -0.63597481041E+01 -0.11629057186E+02 -0.64359479988E+01  0.14734408501E+02  0.51100000000E-03 0.  1.
        -12    1    3    3    0    0 -0.32227556655E+01 -0.11888135937E+02 -0.50406946093E-01  0.12317324019E+02  0.00000000000E+00 0.  1.
</event>
<event>
 7    1  0.1563903E-008  0.4614232E+02  0.7816164E-02  0.1320468E+00
        -11   -1    0    0    0    0  0.00000000000E+00  0.00000000000E+00  0.45593999997E+02  0.45594000000E+02  0.51100000000E-03 0.  1.
         11   -1    0    0    0    0 -0.00000000000E+00 -0.00000000000E+00 -0.45593999997E+02  0.45594000000E+02  0.51100000000E-03 0. -1.
    9900012    2    1    2    0    0  0.11088530203E+02 -0.43301656390E+02 -0.55789360280E+01  0.46142317905E+02  0.10000001315E+02 0.  0.
        -12    1    1    2    0    0 -0.11088530203E+02  0.43301656390E+02  0.55789360280E+01  0.45045682095E+02  0.00000000000E+00 0.  1.
         11    1    3    3    0    0  0.93632180222E-01 -0.13669660927E+01  0.14494267291E+01  0.19945429020E+01  0.51100000000E-03 0. -1.
        -11    1    3    3    0    0  0.29765007307E+01 -0.16196084869E+02 -0.44981314286E+01  0.17070615346E+02  0.51100000000E-03 0.  1.
         12    1    3    3    0    0  0.80183972926E+01 -0.25738605428E+02 -0.25302313285E+01  0.27077159657E+02  0.00000000000E+00 0. -1.
</event>
<event>
 7    1  0.1563903E-008  0.4614232E+02  0.7816164E-02  0.1320468E+00
        -11   -1    0    0    0    0  0.00000000000E+00  0.00000000000E+00  0.45593999997E+02  0.45594000000E+02  0.51100000000E-03 0.  1.
         11   -1    0    0    0    0 -0.00000000000E+00 -0.00000000000E+00 -0.45593999997E+02  0.45594000000E+02  0.51100000000E-03 0. -1.
    9900012    2    1    2    0    0  0.28347060855E+02  0.36633682749E+01 -0.34815762872E+02  0.46142317959E+02  0.10000001803E+02 0.  0.
        -12    1    1    2    0    0 -0.28347060855E+02 -0.36633682749E+01  0.34815762872E+02  0.45045682041E+02  0.00000000000E+00 0.  1.
         11    1    3    3    0    0  0.18199326501E+02  0.74598805021E+00 -0.20341967093E+02  0.27305083936E+02  0.51100000000E-03 0. -1.
        -11    1    3    3    0    0  0.35223012660E+01  0.23570253569E+01 -0.98939879318E+01  0.10763511146E+02  0.51100000000E-03 0.  1.
        -12    1    3    3    0    0  0.66254330877E+01  0.56035486779E+00 -0.45798078470E+01  0.80737228769E+01  0.00000000000E+00 0.  1.
</event>
<event>
 7    1  0.1563903E-008  0.4614232E+02  0.7816164E-02  0.1320468E+00
        -11   -1    0    0    0    0  0.00000000000E+00  0.00000000000E+00  0.45593999997E+02  0.45594000000E+02  0.51100000000E-03 0.  1.
         11   -1    0    0    0    0 -0.00000000000E+00 -0.00000000000E+00 -0.45593999997E+02  0.45594000000E+02  0.51100000000E-03 0. -1.
    9900012    2    1    2    0    0 -0.32291840049E+02  0.67786906923E+01 -0.30665940597E+02  0.46142317699E+02  0.99999994328E+01 0.  0.
        -12    1    1    2    0    0  0.32291840049E+02 -0.67786906923E+01  0.30665940597E+02  0.45045682301E+02  0.00000000000E+00 0.  1.
         11    1    3    3    0    0 -0.50418384749E+01  0.22866114853E+01 -0.16899777537E+01  0.57883289783E+01  0.51100000000E-03 0. -1.
        -11    1    3    3    0    0 -0.12440243474E+02  0.97598406982E+00 -0.16411788389E+02  0.20616959063E+02  0.51100000000E-03 0.  1.
        -12    1    3    3    0    0 -0.14809758101E+02  0.35160951372E+01 -0.12564174454E+02  0.19737029658E+02  0.00000000000E+00 0.  1.
</event>
<event>
 7    1  0.1563903E-008  0.4614232E+02  0.7816164E-02  0.1320468E+00
        -11   -1    0    0    0    0  0.00000000000E+00  0.00000000000E+00  0.45593999997E+02  0.45594000000E+02  0.51100000000E-03 0. -1.
         11   -1    0    0    0    0 -0.00000000000E+00 -0.00000000000E+00 -0.45593999997E+02  0.45594000000E+02  0.51100000000E-03 0.  1.
    9900012    2    1    2    0    0  0.25209703911E+02 -0.17389192575E+02 -0.33033321239E+02  0.46142317613E+02  0.99999986464E+01 0.  0.
        -12    1    1    2    0    0 -0.25209703911E+02  0.17389192575E+02  0.33033321239E+02  0.45045682387E+02  0.00000000000E+00 0.  1.
         11    1    3    3    0    0  0.12716702713E+02 -0.77003743167E+01 -0.10024566284E+02  0.17930483037E+02  0.51100000000E-03 0. -1.
        -11    1    3    3    0    0  0.33281058198E+01 -0.41458842778E+01 -0.10303745148E+02  0.11594473215E+02  0.51100000000E-03 0.  1.
         12    1    3    3    0    0  0.91648953782E+01 -0.55429339806E+01 -0.12705009806E+02  0.16617361360E+02  0.00000000000E+00 0. -1.
</event>
<event>
 7    1  0.1621532E-008  0.4614232E+02  0.7816164E-02  0.1320468E+00
        -11   -1    0    0    0    0  0.00000000000E+00  0.00000000000E+00  0.45593999997E+02  0.45594000000E+02  0.51100000000E-03 0.  1.
         11   -1    0    0    0    0 -0.00000000000E+00 -0.00000000000E+00 -0.45593999997E+02  0.45594000000E+02  0.51100000000E-03 0. -1.
    9900012    2    1    2    0    0 -0.36314427362E+02 -0.21892971275E+02 -0.15201102506E+02  0.46142319371E+02  0.10000014683E+02 0.  0.
        -12    1    1    2    0    0  0.36314427362E+02  0.21892971275E+02  0.15201102506E+02  0.45045680629E+02  0.00000000000E+00 0.  1.
         11    1    3    3    0    0 -0.20862912260E+02 -0.96066479534E+01 -0.53391848318E+01  0.23580833060E+02  0.51100000000E-03 0. -1.
        -11    1    3    3    0    0 -0.11423765103E+01 -0.76555443843E+00  0.50813295777E+00  0.14660481074E+01  0.51100000000E-03 0.  1.
         12    1    3    3    0    0 -0.14309138592E+02 -0.11520768883E+02 -0.10370050632E+02  0.21095438204E+02  0.00000000000E+00 0. -1.
</event>
<event>
 7    1  0.1563903E-008  0.4614232E+02  0.7816164E-02  0.1320468E+00
        -11   -1    0    0    0    0  0.00000000000E+00  0.00000000000E+00  0.45593999997E+02  0.45594000000E+02  0.51100000000E-03 0. -1.
         11   -1    0    0    0    0 -0.00000000000E+00 -0.00000000000E+00 -0.45593999997E+02  0.45594000000E+02  0.51100000000E-03 0.  1.
    9900012    2    1    2    0    0  0.23608719437E+02 -0.27488492969E+02  0.26760505734E+02  0.46142317118E+02  0.99999941358E+01 0.  0.
        -12    1    1    2    0    0 -0.23608719437E+02  0.27488492969E+02 -0.26760505734E+02  0.45045682882E+02  0.00000000000E+00 0.  1.
         11    1    3    3    0    0  0.54042353720E+01 -0.10754803594E+02  0.82199222681E+01  0.14575276418E+02  0.51100000000E-03 0. -1.
        -11    1    3    3    0    0  0.18409752727E+02 -0.17083200250E+02  0.18037394694E+02  0.30920904480E+02  0.51100000000E-03 0.  1.
        -12    1    3    3    0    0 -0.20526866161E+00  0.34951087494E+00  0.50318877219E+00  0.64613622062E+00  0.00000000000E+00 0.  1.
</event>
<event>
 7    1  0.1563903E-008  0.4614232E+02  0.7816164E-02  0.1320468E+00
        -11   -1    0    0    0    0  0.00000000000E+00  0.00000000000E+00  0.45593999997E+02  0.45594000000E+02  0.51100000000E-03 0.  1.
         11   -1    0    0    0    0 -0.00000000000E+00 -0.00000000000E+00 -0.45593999997E+02  0.45594000000E+02  0.51100000000E-03 0. -1.
    9900012    2    1    2    0    0 -0.40983487753E+02  0.17601385154E+02 -0.62974968000E+01  0.46142317702E+02  0.99999994643E+01 0.  0.
        -12    1    1    2    0    0  0.40983487753E+02 -0.17601385154E+02  0.62974968000E+01  0.45045682298E+02  0.00000000000E+00 0.  1.
         11    1    3    3    0    0 -0.69300059118E+01  0.24693630029E+01 -0.13746789801E-01  0.73568284480E+01  0.51100000000E-03 0. -1.
        -11    1    3    3    0    0 -0.24431520931E+02  0.95349431153E+01 -0.47711959355E+00  0.26230554676E+02  0.51100000000E-03 0.  1.
        -12    1    3    3    0    0 -0.96219609096E+01  0.55970790362E+01 -0.58066304167E+01  0.12554934579E+02  0.00000000000E+00 0.  1.
</event>
<event>
 7    1  0.1563903E-008  0.4614232E+02  0.7816164E-02  0.1320468E+00
        -11   -1    0    0    0    0  0.00000000000E+00  0.00000000000E+00  0.45593999997E+02  0.45594000000E+02  0.51100000000E-03 0.  1.
         11   -1    0    0    0    0 -0.00000000000E+00 -0.00000000000E+00 -0.45593999997E+02  0.45594000000E+02  0.51100000000E-03 0. -1.
    9900012    2    1    2    0    0  0.62261250046E+01  0.44594326999E+02  0.13018838639E+01  0.46142317247E+02  0.99999953160E+01 0.  0.
        -12    1    1    2    0    0 -0.62261250046E+01 -0.44594326999E+02 -0.13018838639E+01  0.45045682753E+02  0.00000000000E+00 0.  1.
         11    1    3    3    0    0  0.12270952137E+01  0.20379283376E+02  0.33575183290E+01  0.20690429748E+02  0.51100000000E-03 0.  1.
        -11    1    3    3    0    0  0.19230249716E+01  0.16477794294E+02 -0.36198427644E+01  0.16979958532E+02  0.51100000000E-03 0. -1.
         12    1    3    3    0    0  0.30760048194E+01  0.77372493290E+01  0.15642082994E+01  0.84719289676E+01  0.00000000000E+00 0. -1.
</event>
<event>
 7    1  0.1563903E-008  0.4614232E+02  0.7816164E-02  0.1320468E+00
        -11   -1    0    0    0    0  0.00000000000E+00  0.00000000000E+00  0.45593999997E+02  0.45594000000E+02  0.51100000000E-03 0. -1.
         11   -1    0    0    0    0 -0.00000000000E+00 -0.00000000000E+00 -0.45593999997E+02  0.45594000000E+02  0.51100000000E-03 0.  1.
    9900012    2    1    2    0    0  0.17887064889E+02 -0.61933221186E+01  0.40875530754E+02  0.46142319368E+02  0.10000014653E+02 0.  0.
        -12    1    1    2    0    0 -0.17887064889E+02  0.61933221186E+01 -0.40875530754E+02  0.45045680632E+02  0.00000000000E+00 0.  1.
         11    1    3    3    0    0  0.14643227697E+01 -0.20768708446E+01  0.24610838139E+01  0.35375934587E+01  0.51100000000E-03 0.  1.
        -11    1    3    3    0    0  0.16988939388E+02 -0.36211781474E+01  0.37906630838E+02  0.41697118059E+02  0.51100000000E-03 0. -1.
        -12    1    3    3    0    0 -0.56619726834E+00 -0.49527312653E+00  0.50781610200E+00  0.90760785034E+00  0.00000000000E+00 0.  1.
</event>
<event>
 7    1  0.1563903E-008  0.4614232E+02  0.7816164E-02  0.1320468E+00
        -11   -1    0    0    0    0  0.00000000000E+00  0.00000000000E+00  0.45593999997E+02  0.45594000000E+02  0.51100000000E-03 0.  1.
         11   -1    0    0    0    0 -0.00000000000E+00 -0.00000000000E+00 -0.45593999997E+02  0.45594000000E+02  0.51100000000E-03 0. -1.
    9900012    2    1    2    0    0 -0.41207718722E+02 -0.18090187891E+02  0.19448684604E+01  0.46142317704E+02  0.99999994786E+01 0.  0.
        -12    1    1    2    0    0  0.41207718722E+02  0.18090187891E+02 -0.19448684604E+01  0.45045682296E+02  0.00000000000E+00 0.  1.
         11    1    3    3    0    0 -0.32712810011E+01 -0.20004124056E+01 -0.20054553432E+01  0.43272139508E+01  0.51100000000E-03 0. -1.
        -11    1    3    3    0    0 -0.11111288840E+01  0.46547094047E+00  0.45820574430E+00  0.12888845404E+01  0.51100000000E-03 0.  1.
         12    1    3    3    0    0 -0.36825308837E+02 -0.16555246426E+02  0.34921180594E+01  0.40526219213E+02  0.00000000000E+00 0. -1.
</event>
<event>
 7    1  0.1563903E-008  0.4614231E+02  0.7816164E-02  0.1320468E+00
        -11   -1    0    0    0    0  0.00000000000E+00  0.00000000000E+00  0.45593999997E+02  0.45594000000E+02  0.51100000000E-03 0.  1.
         11   -1    0    0    0    0 -0.00000000000E+00 -0.00000000000E+00 -0.45593999997E+02  0.45594000000E+02  0.51100000000E-03 0. -1.
    9900012    2    1    2    0    0 -0.40636120728E+02  0.15756151096E+02 -0.11382609233E+02  0.46142307663E+02  0.99999079182E+01 0.  0.
        -12    1    1    2    0    0  0.40636120728E+02 -0.15756151096E+02  0.11382609233E+02  0.45045692337E+02  0.00000000000E+00 0.  1.
         11    1    3    3    0    0 -0.85899348629E+01  0.55181483709E+01 -0.25809952469E+01  0.10530834683E+02  0.51100000000E-03 0. -1.
        -11    1    3    3    0    0 -0.18786775563E+02  0.98765169329E+01 -0.48623266948E+01  0.21774543484E+02  0.51100000000E-03 0.  1.
        -12    1    3    3    0    0 -0.13259410301E+02  0.36148579236E+00 -0.39392872910E+01  0.13836929496E+02  0.00000000000E+00 0.  1.
</event>
<event>
 7    1  0.1563903E-008  0.4614232E+02  0.7816164E-02  0.1320468E+00
        -11   -1    0    0    0    0  0.00000000000E+00  0.00000000000E+00  0.45593999997E+02  0.45594000000E+02  0.51100000000E-03 0.  1.
         11   -1    0    0    0    0 -0.00000000000E+00 -0.00000000000E+00 -0.45593999997E+02  0.45594000000E+02  0.51100000000E-03 0. -1.
    9900012    2    1    2    0    0  0.23976685966E+01  0.34593216223E+02 -0.28751942225E+02  0.46142316465E+02  0.99999881840E+01 0.  0.
        -12    1    1    2    0    0 -0.23976685966E+01 -0.34593216223E+02  0.28751942225E+02  0.45045683535E+02  0.00000000000E+00 0.  1.
         11    1    3    3    0    0 -0.11996745990E+01  0.15547246378E+02 -0.88723188554E+01  0.17940850906E+02  0.51100000000E-03 0. -1.
        -11    1    3    3    0    0 -0.35018955236E+00  0.11689995702E+01 -0.62278148609E-01  0.12219130683E+01  0.51100000000E-03 0.  1.
         12    1    3    3    0    0  0.39475327480E+01  0.17876970275E+02 -0.19817345221E+02  0.26979552491E+02  0.00000000000E+00 0. -1.
</event>
<event>
 7    1  0.1563903E-008  0.4614233E+02  0.7816164E-02  0.1320468E+00
        -11   -1    0    0    0    0  0.00000000000E+00  0.00000000000E+00  0.45593999997E+02  0.45594000000E+02  0.51100000000E-03 0. -1.
         11   -1    0    0    0    0 -0.00000000000E+00 -0.00000000000E+00 -0.45593999997E+02  0.45594000000E+02  0.51100000000E-03 0.  1.
    9900012    2    1    2    0    0  0.33390287364E+02 -0.24909961114E+02  0.17137530997E+02  0.46142329602E+02  0.10000107973E+02 0.  0.
        -12    1    1    2    0    0 -0.33390287364E+02  0.24909961114E+02 -0.17137530997E+02  0.45045670398E+02  0.00000000000E+00 0.  1.
         11    1    3    3    0    0  0.13188470340E+02 -0.87142849411E+01  0.10893000090E+02  0.19197186335E+02  0.51100000000E-03 0. -1.
        -11    1    3    3    0    0  0.20089903429E+02 -0.15960538453E+02  0.56171447498E+01  0.26265858503E+02  0.51100000000E-03 0.  1.
        -12    1    3    3    0    0  0.11191359418E+00 -0.23513771996E+00  0.62738615784E+00  0.67928476427E+00  0.00000000000E+00 0.  1.
</event>
<event>
 7    1  0.1563903E-008  0.4614231E+02  0.7816164E-02  0.1320468E+00
        -11   -1    0    0    0    0  0.00000000000E+00  0.00000000000E+00  0.45593999997E+02  0.45594000000E+02  0.51100000000E-03 0. -1.
         11   -1    0    0    0    0 -0.00000000000E+00 -0.00000000000E+00 -0.45593999997E+02  0.45594000000E+02  0.51100000000E-03 0.  1.
    9900012    2    1    2    0    0  0.17665186282E+02 -0.16995818928E+02  0.37791499878E+02  0.46142310634E+02  0.99999350135E+01 0.  0.
        -12    1    1    2    0    0 -0.17665186282E+02  0.16995818928E+02 -0.37791499878E+02  0.45045689366E+02  0.00000000000E+00 0.  1.
         11    1    3    3    0    0  0.65487044385E+01 -0.73100327557E+01  0.20908151275E+02  0.23097032249E+02  0.51100000000E-03 0. -1.
        -11    1    3    3    0    0  0.23074208345E+01 -0.14963435590E+01  0.68523378206E+01  0.73836148886E+01  0.51100000000E-03 0.  1.
         12    1    3    3    0    0  0.88090610086E+01 -0.81894426136E+01  0.10031010782E+02  0.15661663496E+02  0.00000000000E+00 0. -1.
</event>
<event>
 7    1  0.1563903E-008  0.4614232E+02  0.7816164E-02  0.1320468E+00
        -11   -1    0    0    0    0  0.00000000000E+00  0.00000000000E+00  0.45593999997E+02  0.45594000000E+02  0.51100000000E-03 0.  1.
         11   -1    0    0    0    0 -0.00000000000E+00 -0.00000000000E+00 -0.45593999997E+02  0.45594000000E+02  0.51100000000E-03 0. -1.
    9900012    2    1    2    0    0 -0.35688453527E+02 -0.21261987066E+02 -0.17417684664E+02  0.46142317097E+02  0.99999939459E+01 0.  0.
        -12    1    1    2    0    0  0.35688453527E+02  0.21261987066E+02  0.17417684664E+02  0.45045682903E+02  0.00000000000E+00 0.  1.
         11    1    3    3    0    0 -0.97095378521E+01 -0.51126695001E+01 -0.79670768111E+01  0.13560561489E+02  0.51100000000E-03 0. -1.
        -11    1    3    3    0    0 -0.16861724797E+02 -0.70102669404E+01 -0.51101712853E+01  0.18962474958E+02  0.51100000000E-03 0.  1.
        -12    1    3    3    0    0 -0.91171908776E+01 -0.91390506256E+01 -0.43404365677E+01  0.13619280650E+02  0.00000000000E+00 0.  1.
</event>
<event>
 7    1  0.1563903E-008  0.4614232E+02  0.7816164E-02  0.1320468E+00
        -11   -1    0    0    0    0  0.00000000000E+00  0.00000000000E+00  0.45593999997E+02  0.45594000000E+02  0.51100000000E-03 0.  1.
         11   -1    0    0    0    0 -0.00000000000E+00 -0.00000000000E+00 -0.45593999997E+02  0.45594000000E+02  0.51100000000E-03 0. -1.
    9900012    2    1    2    0    0 -0.17174223513E+02  0.99156380904E+01 -0.40445515147E+02  0.46142317327E+02  0.99999960406E+01 0.  0.
        -12    1    1    2    0    0  0.17174223513E+02 -0.99156380904E+01  0.40445515147E+02  0.45045682673E+02  0.00000000000E+00 0.  1.
         11    1    3    3    0    0 -0.12555282355E+01  0.41085688703E+01 -0.12034874274E+02  0.12778688836E+02  0.51100000000E-03 0. -1.
        -11    1    3    3    0    0 -0.95890703356E+01  0.34221187726E+01 -0.12836437593E+02  0.16383995152E+02  0.51100000000E-03 0.  1.
        -12    1    3    3    0    0 -0.63296249418E+01  0.23849504475E+01 -0.15574203279E+02  0.16979633339E+02  0.00000000000E+00 0.  1.
</event>
<event>
 7    1  0.1563903E-008  0.4614232E+02  0.7816164E-02  0.1320468E+00
        -11   -1    0    0    0    0  0.00000000000E+00  0.00000000000E+00  0.45593999997E+02  0.45594000000E+02  0.51100000000E-03 0.  1.
         11   -1    0    0    0    0 -0.00000000000E+00 -0.00000000000E+00 -0.45593999997E+02  0.45594000000E+02  0.51100000000E-03 0. -1.
    9900012    2    1    2    0    0  0.17113397981E+02  0.31971418978E+02 -0.26722152687E+02  0.46142318008E+02  0.10000002248E+02 0.  0.
        -12    1    1    2    0    0 -0.17113397981E+02 -0.31971418978E+02  0.26722152687E+02  0.45045681992E+02  0.00000000000E+00 0.  1.
         11    1    3    3    0    0  0.11573076564E+02  0.25482453800E+02 -0.20998279202E+02  0.34988845115E+02  0.51100000000E-03 0. -1.
        -11    1    3    3    0    0  0.47096157245E+01  0.30776912995E+01 -0.50877020143E+01  0.75853395478E+01  0.51100000000E-03 0.  1.
        -12    1    3    3    0    0  0.83070569328E+00  0.34112738789E+01 -0.63617147116E+00  0.35681333448E+01  0.00000000000E+00 0.  1.
</event>
<event>
 7    1  0.1563903E-008  0.4614232E+02  0.7816164E-02  0.1320468E+00
        -11   -1    0    0    0    0  0.00000000000E+00  0.00000000000E+00  0.45593999997E+02  0.45594000000E+02  0.51100000000E-03 0.  1.
         11   -1    0    0    0    0 -0.00000000000E+00 -0.00000000000E+00 -0.45593999997E+02  0.45594000000E+02  0.51100000000E-03 0. -1.
    9900012    2    1    2    0    0 -0.35680767145E+02  0.96380883506E+01 -0.25750798646E+02  0.46142317388E+02  0.99999965966E+01 0.  0.
        -12    1    1    2    0    0  0.35680767145E+02 -0.96380883506E+01  0.25750798646E+02  0.45045682612E+02  0.00000000000E+00 0.  1.
         11    1    3    3    0    0 -0.25228835801E+02  0.10058610242E+02 -0.15374038644E+02  0.31209467479E+02  0.51100000000E-03 0. -1.
        -11    1    3    3    0    0 -0.98172059447E+01 -0.42306407749E+00 -0.86430075379E+01  0.13086561632E+02  0.51100000000E-03 0.  1.
         12    1    3    3    0    0 -0.63472539958E+00  0.25421858559E-02 -0.17337524640E+01  0.18462882770E+01  0.00000000000E+00 0. -1.
</event>
<event>
 7    1  0.1563903E-008  0.4614232E+02  0.7816164E-02  0.1320468E+00
        -11   -1    0    0    0    0  0.00000000000E+00  0.00000000000E+00  0.45593999997E+02  0.45594000000E+02  0.51100000000E-03 0.  1.
         11   -1    0    0    0    0 -0.00000000000E+00 -0.00000000000E+00 -0.45593999997E+02  0.45594000000E+02  0.51100000000E-03 0. -1.
    9900012    2    1    2    0    0  0.39380102597E+02  0.14182956061E+02 -0.16648263584E+02  0.46142318702E+02  0.10000008580E+02 0.  0.
        -12    1    1    2    0    0 -0.39380102597E+02 -0.14182956061E+02  0.16648263584E+02  0.45045681298E+02  0.00000000000E+00 0.  1.
         11    1    3    3    0    0  0.15234355813E+02  0.66857754959E+01 -0.98665472772E+01  0.19342542399E+02  0.51100000000E-03 0.  1.
        -11    1    3    3    0    0  0.13469565366E+02  0.13504438699E+01 -0.25583716929E+01  0.13776725147E+02  0.51100000000E-03 0. -1.
         12    1    3    3    0    0  0.10676181419E+02  0.61467366958E+01 -0.42233446141E+01  0.13023051156E+02  0.00000000000E+00 0. -1.
</event>
<event>
 7    1  0.1563903E-008  0.4614232E+02  0.7816164E-02  0.1320468E+00
        -11   -1    0    0    0    0  0.00000000000E+00  0.00000000000E+00  0.45593999997E+02  0.45594000000E+02  0.51100000000E-03 0.  1.
         11   -1    0    0    0    0 -0.00000000000E+00 -0.00000000000E+00 -0.45593999997E+02  0.45594000000E+02  0.51100000000E-03 0. -1.
    9900012    2    1    2    0    0  0.23151588104E+02  0.68930797850E+01 -0.38021084404E+02  0.46142318300E+02  0.10000004910E+02 0.  0.
        -12    1    1    2    0    0 -0.23151588104E+02 -0.68930797850E+01  0.38021084404E+02  0.45045681700E+02  0.00000000000E+00 0.  1.
         11    1    3    3    0    0  0.86741484221E+01  0.35314921150E+01 -0.15978319976E+02  0.18520772039E+02  0.51100000000E-03 0. -1.
        -11    1    3    3    0    0  0.78514572868E+01  0.88851291899E+00 -0.54912115464E+01  0.96222783810E+01  0.51100000000E-03 0.  1.
        -12    1    3    3    0    0  0.66259823946E+01  0.24730747510E+01 -0.16551552881E+02  0.17999267879E+02  0.00000000000E+00 0.  1.
</event>
<event>
 7    1  0.1563903E-008  0.4614232E+02  0.7816164E-02  0.1320468E+00
        -11   -1    0    0    0    0  0.00000000000E+00  0.00000000000E+00  0.45593999997E+02  0.45594000000E+02  0.51100000000E-03 0. -1.
         11   -1    0    0    0    0 -0.00000000000E+00 -0.00000000000E+00 -0.45593999997E+02  0.45594000000E+02  0.51100000000E-03 0.  1.
    9900012    2    1    2    0    0  0.25546729186E+02 -0.36813299413E+02  0.46107564433E+01  0.46142318067E+02  0.10000002790E+02 0.  0.
        -12    1    1    2    0    0 -0.25546729186E+02  0.36813299413E+02 -0.46107564433E+01  0.45045681933E+02  0.00000000000E+00 0.  1.
         11    1    3    3    0    0  0.18020271257E+02 -0.21747420245E+02  0.65113106338E+01  0.28984092705E+02  0.51100000000E-03 0. -1.
        -11    1    3    3    0    0  0.28255323459E+01 -0.85158376645E+01 -0.13936031690E+01  0.90799369061E+01  0.51100000000E-03 0.  1.
         12    1    3    3    0    0  0.47009255839E+01 -0.65500415034E+01 -0.50695102152E+00  0.80782884561E+01  0.00000000000E+00 0. -1.
</event>
<event>
 7    1  0.1563903E-008  0.4614232E+02  0.7816164E-02  0.1320468E+00
        -11   -1    0    0    0    0  0.00000000000E+00  0.00000000000E+00  0.45593999997E+02  0.45594000000E+02  0.51100000000E-03 0.  1.
         11   -1    0    0    0    0 -0.00000000000E+00 -0.00000000000E+00 -0.45593999997E+02  0.45594000000E+02  0.51100000000E-03 0. -1.
    9900012    2    1    2    0    0  0.33011487422E+02  0.87835654480E+01 -0.29363314461E+02  0.46142316966E+02  0.99999927537E+01 0.  0.
        -12    1    1    2    0    0 -0.33011487422E+02 -0.87835654480E+01  0.29363314461E+02  0.45045683034E+02  0.00000000000E+00 0.  1.
         11    1    3    3    0    0  0.25195112148E+02  0.93018170345E+01 -0.21096207401E+02  0.34152122090E+02  0.51100000000E-03 0. -1.
        -11    1    3    3    0    0  0.80992218793E+01 -0.74841249816E+00 -0.83037820363E+01  0.11623696171E+02  0.51100000000E-03 0.  1.
         12    1    3    3    0    0 -0.28284660478E+00  0.23016091159E+00  0.36674975869E-01  0.36649870520E+00  0.00000000000E+00 0. -1.
</event>
<event>
 7    1  0.1563903E-008  0.4614232E+02  0.7816164E-02  0.1320468E+00
        -11   -1    0    0    0    0  0.00000000000E+00  0.00000000000E+00  0.45593999997E+02  0.45594000000E+02  0.51100000000E-03 0.  1.
         11   -1    0    0    0    0 -0.00000000000E+00 -0.00000000000E+00 -0.45593999997E+02  0.45594000000E+02  0.51100000000E-03 0. -1.
    9900012    2    1    2    0    0 -0.38454201724E+00 -0.31648088556E+02 -0.32052519502E+02  0.46142318873E+02  0.10000010139E+02 0.  0.
        -12    1    1    2    0    0  0.38454201724E+00  0.31648088556E+02  0.32052519502E+02  0.45045681127E+02  0.00000000000E+00 0.  1.
         11    1    3    3    0    0 -0.28721008600E+01 -0.71428352040E+01 -0.12497271283E+02  0.14678244033E+02  0.51100000000E-03 0. -1.
        -11    1    3    3    0    0  0.24367060668E+01 -0.22951182906E+02 -0.18570173637E+02  0.29623397550E+02  0.51100000000E-03 0.  1.
         12    1    3    3    0    0  0.50852775990E-01 -0.15540704455E+01 -0.98507458122E+00  0.18406772898E+01  0.00000000000E+00 0. -1.
</event>
<event>
 7    1  0.1563903E-008  0.4614232E+02  0.7816164E-02  0.1320468E+00
        -11   -1    0    0    0    0  0.00000000000E+00  0.00000000000E+00  0.45593999997E+02  0.45594000000E+02  0.51100000000E-03 0.  1.
         11   -1    0    0    0    0 -0.00000000000E+00 -0.00000000000E+00 -0.45593999997E+02  0.45594000000E+02  0.51100000000E-03 0. -1.
    9900012    2    1    2    0    0 -0.36549927586E+02 -0.68493360688E+01 -0.25422475136E+02  0.46142324812E+02  0.10000064298E+02 0.  0.
        -12    1    1    2    0    0  0.36549927586E+02  0.68493360688E+01  0.25422475136E+02  0.45045675188E+02  0.00000000000E+00 0.  1.
         11    1    3    3    0    0 -0.11177222754E+02 -0.16196094892E+01 -0.29013768603E+01  0.11660678854E+02  0.51100000000E-03 0. -1.
        -11    1    3    3    0    0 -0.11678859420E+02 -0.19615344560E+01 -0.12372367067E+02  0.17126553707E+02  0.51100000000E-03 0.  1.
        -12    1    3    3    0    0 -0.13693845412E+02 -0.32681921236E+01 -0.10148731208E+02  0.17355092252E+02  0.00000000000E+00 0.  1.
</event>
<event>
 7    1  0.1563903E-008  0.4614232E+02  0.7816164E-02  0.1320468E+00
        -11   -1    0    0    0    0  0.00000000000E+00  0.00000000000E+00  0.45593999997E+02  0.45594000000E+02  0.51100000000E-03 0. -1.
         11   -1    0    0    0    0 -0.00000000000E+00 -0.00000000000E+00 -0.45593999997E+02  0.45594000000E+02  0.51100000000E-03 0.  1.
    9900012    2    1    2    0    0 -0.92598397393E+01 -0.39845338185E+02  0.18860485142E+02  0.46142317555E+02  0.99999981246E+01 0.  0.
        -12    1    1    2    0    0  0.92598397393E+01  0.39845338185E+02 -0.18860485142E+02  0.45045682445E+02  0.00000000000E+00 0.  1.
         11    1    3    3    0    0 -0.41878151489E+01 -0.15845350008E+02  0.49750714783E+01  0.17127879293E+02  0.51100000000E-03 0. -1.
        -11    1    3    3    0    0 -0.47025336260E+01 -0.94580726633E+01  0.82956562667E+01  0.13430818075E+02  0.51100000000E-03 0.  1.
        -12    1    3    3    0    0 -0.36949096443E+00 -0.14541915514E+02  0.55897573970E+01  0.15583620187E+02  0.00000000000E+00 0.  1.
</event>
<event>
 7    1  0.1563903E-008  0.4614232E+02  0.7816164E-02  0.1320468E+00
        -11   -1    0    0    0    0  0.00000000000E+00  0.00000000000E+00  0.45593999997E+02  0.45594000000E+02  0.51100000000E-03 0. -1.
         11   -1    0    0    0    0 -0.00000000000E+00 -0.00000000000E+00 -0.45593999997E+02  0.45594000000E+02  0.51100000000E-03 0.  1.
    9900012    2    1    2    0    0  0.74373253521E+01 -0.27446642826E+02  0.34935389838E+02  0.46142317922E+02  0.10000001464E+02 0.  0.
        -12    1    1    2    0    0 -0.74373253521E+01  0.27446642826E+02 -0.34935389838E+02  0.45045682078E+02  0.00000000000E+00 0.  1.
         11    1    3    3    0    0  0.37216779194E+01 -0.24564217176E+02  0.29112436699E+02  0.38272517853E+02  0.51100000000E-03 0. -1.
        -11    1    3    3    0    0  0.15983926616E+01 -0.35588440503E+00  0.70658914752E+00  0.17834745008E+01  0.51100000000E-03 0.  1.
        -12    1    3    3    0    0  0.21172547711E+01 -0.25265412443E+01  0.51163639915E+01  0.60863255679E+01  0.00000000000E+00 0.  1.
</event>
<event>
 7    1  0.1563903E-008  0.4614232E+02  0.7816164E-02  0.1320468E+00
        -11   -1    0    0    0    0  0.00000000000E+00  0.00000000000E+00  0.45593999997E+02  0.45594000000E+02  0.51100000000E-03 0. -1.
         11   -1    0    0    0    0 -0.00000000000E+00 -0.00000000000E+00 -0.45593999997E+02  0.45594000000E+02  0.51100000000E-03 0.  1.
    9900012    2    1    2    0    0  0.35094829274E+02 -0.12112958445E+02  0.25509657938E+02  0.46142318163E+02  0.10000003665E+02 0.  0.
        -12    1    1    2    0    0 -0.35094829274E+02  0.12112958445E+02 -0.25509657938E+02  0.45045681837E+02  0.00000000000E+00 0.  1.
         11    1    3    3    0    0  0.14320226769E+02 -0.10511129620E+01  0.94027035398E+01  0.17163466063E+02  0.51100000000E-03 0. -1.
        -11    1    3    3    0    0  0.26510744636E+01 -0.32019942766E+01  0.42204588063E+01  0.59239544187E+01  0.51100000000E-03 0.  1.
         12    1    3    3    0    0  0.18123528041E+02 -0.78598512059E+01  0.11886495592E+02  0.23054897681E+02  0.00000000000E+00 0. -1.
</event>
<event>
 7    1  0.1563903E-008  0.4614232E+02  0.7816164E-02  0.1320468E+00
        -11   -1    0    0    0    0  0.00000000000E+00  0.00000000000E+00  0.45593999997E+02  0.45594000000E+02  0.51100000000E-03 0.  1.
         11   -1    0    0    0    0 -0.00000000000E+00 -0.00000000000E+00 -0.45593999997E+02  0.45594000000E+02  0.51100000000E-03 0. -1.
    9900012    2    1    2    0    0 -0.54137543086E+01 -0.16518323491E+02 -0.41556582020E+02  0.46142320342E+02  0.10000023536E+02 0.  0.
        -12    1    1    2    0    0  0.54137543086E+01  0.16518323491E+02  0.41556582020E+02  0.45045679658E+02  0.00000000000E+00 0.  1.
         11    1    3    3    0    0 -0.21524651743E+01 -0.13700187195E+01 -0.10425470997E+02  0.10733149742E+02  0.51100000000E-03 0. -1.
        -11    1    3    3    0    0  0.15087295637E+01 -0.26193929640E+01 -0.30611509019E+01  0.43021075651E+01  0.51100000000E-03 0.  1.
        -12    1    3    3    0    0 -0.47700186980E+01 -0.12528911808E+02 -0.28069960121E+02  0.31107063035E+02  0.00000000000E+00 0.  1.
</event>
<event>
 7    1  0.1563903E-008  0.4614232E+02  0.7816164E-02  0.1320468E+00
        -11   -1    0    0    0    0  0.00000000000E+00  0.00000000000E+00  0.45593999997E+02  0.45594000000E+02  0.51100000000E-03 0. -1.
         11   -1    0    0    0    0 -0.00000000000E+00 -0.00000000000E+00 -0.45593999997E+02  0.45594000000E+02  0.51100000000E-03 0.  1.
    9900012    2    1    2    0    0  0.16178565140E+02  0.33127879744E+02  0.25882640847E+02  0.46142317815E+02  0.10000000489E+02 0.  0.
        -12    1    1    2    0    0 -0.16178565140E+02 -0.33127879744E+02 -0.25882640847E+02  0.45045682185E+02  0.00000000000E+00 0.  1.
         11    1    3    3    0    0  0.69516139686E+01  0.13146562115E+02  0.99520030022E+01  0.17894116246E+02  0.51100000000E-03 0. -1.
        -11    1    3    3    0    0  0.50867037279E+01  0.44372618557E+01  0.74876405767E+01  0.10081101590E+02  0.51100000000E-03 0.  1.
        -12    1    3    3    0    0  0.41402474431E+01  0.15544055774E+02  0.84429972680E+01  0.18167099979E+02  0.00000000000E+00 0.  1.
</event>
<event>
 7    1  0.1563903E-008  0.4614231E+02  0.7816164E-02  0.1320468E+00
        -11   -1    0    0    0    0  0.00000000000E+00  0.00000000000E+00  0.45593999997E+02  0.45594000000E+02  0.51100000000E-03 0.  1.
         11   -1    0    0    0    0 -0.00000000000E+00 -0.00000000000E+00 -0.45593999997E+02  0.45594000000E+02  0.51100000000E-03 0. -1.
    9900012    2    1    2    0    0  0.21200256533E+02 -0.98487452528E+01 -0.38505395053E+02  0.46142310880E+02  0.99999372542E+01 0.  0.
        -12    1    1    2    0    0 -0.21200256533E+02  0.98487452528E+01  0.38505395053E+02  0.45045689120E+02  0.00000000000E+00 0.  1.
         11    1    3    3    0    0  0.11036534743E+02 -0.86818143671E+01 -0.23375045106E+02  0.27268511764E+02  0.51100000000E-03 0. -1.
        -11    1    3    3    0    0  0.36437453538E+01 -0.96713680657E-01 -0.19589389131E+01  0.41380763243E+01  0.51100000000E-03 0.  1.
         12    1    3    3    0    0  0.65199764361E+01 -0.10702172050E+01 -0.13171411034E+02  0.14735722792E+02  0.00000000000E+00 0. -1.
</event>
<event>
 7    1  0.1563903E-008  0.4614232E+02  0.7816164E-02  0.1320468E+00
        -11   -1    0    0    0    0  0.00000000000E+00  0.00000000000E+00  0.45593999997E+02  0.45594000000E+02  0.51100000000E-03 0. -1.
         11   -1    0    0    0    0 -0.00000000000E+00 -0.00000000000E+00 -0.45593999997E+02  0.45594000000E+02  0.51100000000E-03 0.  1.
    9900012    2    1    2    0    0  0.24861026997E+02  0.30724809345E+02  0.21610852891E+02  0.46142317240E+02  0.99999952521E+01 0.  0.
        -12    1    1    2    0    0 -0.24861026997E+02 -0.30724809345E+02 -0.21610852891E+02  0.45045682760E+02  0.00000000000E+00 0.  1.
         11    1    3    3    0    0  0.42321934215E+01  0.78672101253E+01  0.16064191696E+01  0.90766204681E+01  0.51100000000E-03 0.  1.
        -11    1    3    3    0    0  0.12928925404E+02  0.16252282414E+02  0.10999204385E+02  0.23500559422E+02  0.51100000000E-03 0. -1.
        -12    1    3    3    0    0  0.76999081711E+01  0.66053168054E+01  0.90052293359E+01  0.13565137350E+02  0.00000000000E+00 0.  1.
</event>
<event>
 7    1  0.1563903E-008  0.4614232E+02  0.7816164E-02  0.1320468E+00
        -11   -1    0    0    0    0  0.00000000000E+00  0.00000000000E+00  0.45593999997E+02  0.45594000000E+02  0.51100000000E-03 0.  1.
         11   -1    0    0    0    0 -0.00000000000E+00 -0.00000000000E+00 -0.45593999997E+02  0.45594000000E+02  0.51100000000E-03 0. -1.
    9900012    2    1    2    0    0 -0.96413805072E+01  0.13210689035E+02 -0.41971835896E+02  0.46142317284E+02  0.99999956474E+01 0.  0.
        -12    1    1    2    0    0  0.96413805072E+01 -0.13210689035E+02  0.41971835896E+02  0.45045682716E+02  0.00000000000E+00 0.  1.
         11    1    3    3    0    0 -0.66689673328E+01  0.87090563009E+01 -0.24051005639E+02  0.26434327293E+02  0.51100000000E-03 0. -1.
        -11    1    3    3    0    0 -0.14307277307E+01  0.24367761124E+01 -0.17297757011E+01  0.33131531656E+01  0.51100000000E-03 0.  1.
         12    1    3    3    0    0 -0.15416854437E+01  0.20648566217E+01 -0.16191054556E+02  0.16394836825E+02  0.00000000000E+00 0. -1.
</event>
<event>
 7    1  0.1563903E-008  0.4614232E+02  0.7816164E-02  0.1320468E+00
        -11   -1    0    0    0    0  0.00000000000E+00  0.00000000000E+00  0.45593999997E+02  0.45594000000E+02  0.51100000000E-03 0. -1.
         11   -1    0    0    0    0 -0.00000000000E+00 -0.00000000000E+00 -0.45593999997E+02  0.45594000000E+02  0.51100000000E-03 0.  1.
    9900012    2    1    2    0    0 -0.34010543848E+02 -0.29024402858E+02  0.54754481237E+01  0.46142316674E+02  0.99999900882E+01 0.  0.
        -12    1    1    2    0    0  0.34010543848E+02  0.29024402858E+02 -0.54754481237E+01  0.45045683326E+02  0.00000000000E+00 0.  1.
         11    1    3    3    0    0 -0.16439830157E+02 -0.16683499738E+02  0.57013849119E+01  0.24106284850E+02  0.51100000000E-03 0. -1.
        -11    1    3    3    0    0  0.32920235856E+00 -0.24497978479E+00 -0.13560217661E+00  0.43217762466E+00  0.51100000000E-03 0.  1.
         12    1    3    3    0    0 -0.17899916050E+02 -0.12095923336E+02 -0.90334611588E-01  0.21603854199E+02  0.00000000000E+00 0. -1.
</event>
<event>
 7    1  0.1563903E-008  0.4614232E+02  0.7816164E-02  0.1320468E+00
        -11   -1    0    0    0    0  0.00000000000E+00  0.00000000000E+00  0.45593999997E+02  0.45594000000E+02  0.51100000000E-03 0.  1.
         11   -1    0    0    0    0 -0.00000000000E+00 -0.00000000000E+00 -0.45593999997E+02  0.45594000000E+02  0.51100000000E-03 0. -1.
    9900012    2    1    2    0    0  0.13099122839E+02  0.34354111114E+02 -0.26025404822E+02  0.46142315792E+02  0.99999820434E+01 0.  0.
        -12    1    1    2    0    0 -0.13099122839E+02 -0.34354111114E+02  0.26025404822E+02  0.45045684208E+02  0.00000000000E+00 0.  1.
         11    1    3    3    0    0  0.10446324199E+02  0.30357613120E+02 -0.22722861265E+02  0.39332413960E+02  0.51100000000E-03 0. -1.
        -11    1    3    3    0    0  0.17197911656E+01  0.11862741323E+01  0.33885271782E+00  0.21165418483E+01  0.51100000000E-03 0.  1.
         12    1    3    3    0    0  0.93300747441E+00  0.28102238623E+01 -0.36413962745E+01  0.46933599831E+01  0.00000000000E+00 0. -1.
</event>
<event>
 7    1  0.1563903E-008  0.4614232E+02  0.7816164E-02  0.1320468E+00
        -11   -1    0    0    0    0  0.00000000000E+00  0.00000000000E+00  0.45593999997E+02  0.45594000000E+02  0.51100000000E-03 0. -1.
         11   -1    0    0    0    0 -0.00000000000E+00 -0.00000000000E+00 -0.45593999997E+02  0.45594000000E+02  0.51100000000E-03 0.  1.
    9900012    2    1    2    0    0 -0.36104332528E+02 -0.63384608425E+01  0.26180424128E+02  0.46142317402E+02  0.99999967272E+01 0.  0.
        -12    1    1    2    0    0  0.36104332528E+02  0.63384608425E+01 -0.26180424128E+02  0.45045682598E+02  0.00000000000E+00 0.  1.
         11    1    3    3    0    0 -0.19005516698E+02 -0.53122051490E+01  0.13588067742E+02  0.23959648865E+02  0.51100000000E-03 0. -1.
        -11    1    3    3    0    0 -0.71091791852E+01 -0.13531204551E+01  0.90294946941E+01  0.11571652360E+02  0.51100000000E-03 0.  1.
         12    1    3    3    0    0 -0.99896366455E+01  0.32686476161E+00  0.35628616921E+01  0.10611016177E+02  0.00000000000E+00 0. -1.
</event>
<event>
 7    1  0.1563903E-008  0.4614232E+02  0.7816164E-02  0.1320468E+00
        -11   -1    0    0    0    0  0.00000000000E+00  0.00000000000E+00  0.45593999997E+02  0.45594000000E+02  0.51100000000E-03 0. -1.
         11   -1    0    0    0    0 -0.00000000000E+00 -0.00000000000E+00 -0.45593999997E+02  0.45594000000E+02  0.51100000000E-03 0.  1.
    9900012    2    1    2    0    0  0.33249256743E+02  0.25086075099E+02  0.17154860261E+02  0.46142317982E+02  0.10000002017E+02 0.  0.
        -12    1    1    2    0    0 -0.33249256743E+02 -0.25086075099E+02 -0.17154860261E+02  0.45045682018E+02  0.00000000000E+00 0.  1.
         11    1    3    3    0    0  0.18140399989E+02  0.14934395738E+02  0.43797610379E+01  0.23901727863E+02  0.51100000000E-03 0. -1.
        -11    1    3    3    0    0  0.19737492664E+01  0.12159185450E+01  0.15553634369E+01  0.27916482150E+01  0.51100000000E-03 0.  1.
         12    1    3    3    0    0  0.13135107488E+02  0.89357608157E+01  0.11219735786E+02  0.19448941904E+02  0.00000000000E+00 0. -1.
</event>
<event>
 7    1  0.1563903E-008  0.4614232E+02  0.7816164E-02  0.1320468E+00
        -11   -1    0    0    0    0  0.00000000000E+00  0.00000000000E+00  0.45593999997E+02  0.45594000000E+02  0.51100000000E-03 0. -1.
         11   -1    0    0    0    0 -0.00000000000E+00 -0.00000000000E+00 -0.45593999997E+02  0.45594000000E+02  0.51100000000E-03 0.  1.
    9900012    2    1    2    0    0 -0.25523548637E+02  0.18264997111E+02  0.32311790344E+02  0.46142318190E+02  0.10000003914E+02 0.  0.
        -12    1    1    2    0    0  0.25523548637E+02 -0.18264997111E+02 -0.32311790344E+02  0.45045681810E+02  0.00000000000E+00 0.  1.
         11    1    3    3    0    0 -0.59035098567E+01  0.80208559769E+01  0.13752244345E+02  0.16979687395E+02  0.51100000000E-03 0. -1.
        -11    1    3    3    0    0 -0.17087701881E+01 -0.24941219149E+00  0.16489989001E+01  0.23877394394E+01  0.51100000000E-03 0.  1.
         12    1    3    3    0    0 -0.17911268593E+02  0.10493553325E+02  0.16910547098E+02  0.26774891356E+02  0.00000000000E+00 0. -1.
</event>
<event>
 7    1  0.1563903E-008  0.4614232E+02  0.7816164E-02  0.1320468E+00
        -11   -1    0    0    0    0  0.00000000000E+00  0.00000000000E+00  0.45593999997E+02  0.45594000000E+02  0.51100000000E-03 0.  1.
         11   -1    0    0    0    0 -0.00000000000E+00 -0.00000000000E+00 -0.45593999997E+02  0.45594000000E+02  0.51100000000E-03 0. -1.
    9900012    2    1    2    0    0  0.25387135970E+01  0.12511109997E+02 -0.43198850923E+02  0.46142315844E+02  0.99999825142E+01 0.  0.
        -12    1    1    2    0    0 -0.25387135970E+01 -0.12511109997E+02  0.43198850923E+02  0.45045684156E+02  0.00000000000E+00 0.  1.
         11    1    3    3    0    0  0.33477419492E+01  0.13728868340E+02 -0.37837520891E+02  0.40390186797E+02  0.51100000000E-03 0. -1.
        -11    1    3    3    0    0  0.26118379849E+00 -0.71856879040E+00 -0.31910793729E+01  0.32813938972E+01  0.51100000000E-03 0.  1.
         12    1    3    3    0    0 -0.10702121507E+01 -0.49918955258E+00 -0.21702506586E+01  0.24707351493E+01  0.00000000000E+00 0. -1.
</event>
<event>
 7    1  0.1563903E-008  0.4614232E+02  0.7816164E-02  0.1320468E+00
        -11   -1    0    0    0    0  0.00000000000E+00  0.00000000000E+00  0.45593999997E+02  0.45594000000E+02  0.51100000000E-03 0.  1.
         11   -1    0    0    0    0 -0.00000000000E+00 -0.00000000000E+00 -0.45593999997E+02  0.45594000000E+02  0.51100000000E-03 0. -1.
    9900012    2    1    2    0    0 -0.23546422063E+02  0.18372715832E+02 -0.33721251778E+02  0.46142317627E+02  0.99999987760E+01 0.  0.
        -12    1    1    2    0    0  0.23546422063E+02 -0.18372715832E+02  0.33721251778E+02  0.45045682373E+02  0.00000000000E+00 0.  1.
         11    1    3    3    0    0 -0.91139971194E+01  0.55081462486E+01 -0.14035067617E+02  0.17617824549E+02  0.51100000000E-03 0. -1.
        -11    1    3    3    0    0  0.23051325359E+00  0.12665940667E+01 -0.37294208638E+01  0.39453741433E+01  0.51100000000E-03 0.  1.
        -12    1    3    3    0    0 -0.14662938197E+02  0.11597975517E+02 -0.15956763297E+02  0.24579118934E+02  0.00000000000E+00 0.  1.
</event>
<event>
 7    1  0.1563903E-008  0.4614232E+02  0.7816164E-02  0.1320468E+00
        -11   -1    0    0    0    0  0.00000000000E+00  0.00000000000E+00  0.45593999997E+02  0.45594000000E+02  0.51100000000E-03 0.  1.
         11   -1    0    0    0    0 -0.00000000000E+00 -0.00000000000E+00 -0.45593999997E+02  0.45594000000E+02  0.51100000000E-03 0. -1.
    9900012    2    1    2    0    0  0.15609034643E+02  0.36849840262E+02 -0.20677543735E+02  0.46142317579E+02  0.99999983413E+01 0.  0.
        -12    1    1    2    0    0 -0.15609034643E+02 -0.36849840262E+02  0.20677543735E+02  0.45045682421E+02  0.00000000000E+00 0.  1.
         11    1    3    3    0    0  0.45342333903E+01  0.11886446503E+02 -0.52485671164E+01  0.13762061617E+02  0.51100000000E-03 0. -1.
        -11    1    3    3    0    0  0.61518776784E-03  0.22677193966E+01 -0.41359723633E+01  0.47168654095E+01  0.51100000000E-03 0.  1.
        -12    1    3    3    0    0  0.11074186065E+02  0.22695674363E+02 -0.11293004255E+02  0.27663390553E+02  0.00000000000E+00 0.  1.
</event>
<event>
 7    1  0.1563903E-008  0.4614232E+02  0.7816164E-02  0.1320468E+00
        -11   -1    0    0    0    0  0.00000000000E+00  0.00000000000E+00  0.45593999997E+02  0.45594000000E+02  0.51100000000E-03 0.  1.
         11   -1    0    0    0    0 -0.00000000000E+00 -0.00000000000E+00 -0.45593999997E+02  0.45594000000E+02  0.51100000000E-03 0. -1.
    9900012    2    1    2    0    0 -0.23617903205E+01  0.41428480253E+02  0.17527593614E+02  0.46142316883E+02  0.99999919940E+01 0.  0.
        -12    1    1    2    0    0  0.23617903205E+01 -0.41428480253E+02 -0.17527593614E+02  0.45045683117E+02  0.00000000000E+00 0.  1.
         11    1    3    3    0    0 -0.79378401039E+00  0.12523645245E+02  0.83768169408E+01  0.15087837671E+02  0.51100000000E-03 0. -1.
        -11    1    3    3    0    0 -0.37519498073E+00  0.55563369927E+01 -0.83682179597E+00  0.56315116114E+01  0.51100000000E-03 0.  1.
         12    1    3    3    0    0 -0.11928113294E+01  0.23348498015E+02  0.99875984695E+01  0.25422967601E+02  0.00000000000E+00 0. -1.
</event>
<event>
 7    1  0.1563903E-008  0.4614232E+02  0.7816164E-02  0.1320468E+00
        -11   -1    0    0    0    0  0.00000000000E+00  0.00000000000E+00  0.45593999997E+02  0.45594000000E+02  0.51100000000E-03 0.  1.
         11   -1    0    0    0    0 -0.00000000000E+00 -0.00000000000E+00 -0.45593999997E+02  0.45594000000E+02  0.51100000000E-03 0. -1.
    9900012    2    1    2    0    0 -0.73854683800E+01 -0.20553927829E+02 -0.39396756200E+02  0.46142317726E+02  0.99999996838E+01 0.  0.
        -12    1    1    2    0    0  0.73854683800E+01  0.20553927829E+02  0.39396756200E+02  0.45045682274E+02  0.00000000000E+00 0.  1.
         11    1    3    3    0    0 -0.51566793950E+01 -0.71461070404E+01 -0.16169060393E+02  0.18414578531E+02  0.51100000000E-03 0. -1.
        -11    1    3    3    0    0  0.13552397596E+01 -0.89032151177E+01 -0.17059709437E+02  0.19290868321E+02  0.51100000000E-03 0.  1.
         12    1    3    3    0    0 -0.35840287446E+01 -0.45046056714E+01 -0.61679863702E+01  0.84368708749E+01  0.00000000000E+00 0. -1.
</event>
<event>
 7    1  0.1563903E-008  0.4614232E+02  0.7816164E-02  0.1320468E+00
        -11   -1    0    0    0    0  0.00000000000E+00  0.00000000000E+00  0.45593999997E+02  0.45594000000E+02  0.51100000000E-03 0. -1.
         11   -1    0    0    0    0 -0.00000000000E+00 -0.00000000000E+00 -0.45593999997E+02  0.45594000000E+02  0.51100000000E-03 0.  1.
    9900012    2    1    2    0    0 -0.40951054038E+02  0.14335574862E+02 -0.12108513472E+02  0.46142316168E+02  0.99999854705E+01 0.  0.
        -12    1    1    2    0    0  0.40951054038E+02 -0.14335574862E+02  0.12108513472E+02  0.45045683832E+02  0.00000000000E+00 0.  1.
         11    1    3    3    0    0 -0.98195081769E+01  0.52348870628E+01 -0.73870039183E+01  0.13356444532E+02  0.51100000000E-03 0. -1.
        -11    1    3    3    0    0 -0.77243143077E+01  0.23052189200E+01 -0.83186887108E+00  0.81037689918E+01  0.51100000000E-03 0.  1.
         12    1    3    3    0    0 -0.23407231553E+02  0.67954688793E+01 -0.38896406821E+01  0.24682102644E+02  0.00000000000E+00 0. -1.
</event>
<event>
 7    1  0.1563903E-008  0.4614232E+02  0.7816164E-02  0.1320468E+00
        -11   -1    0    0    0    0  0.00000000000E+00  0.00000000000E+00  0.45593999997E+02  0.45594000000E+02  0.51100000000E-03 0. -1.
         11   -1    0    0    0    0 -0.00000000000E+00 -0.00000000000E+00 -0.45593999997E+02  0.45594000000E+02  0.51100000000E-03 0.  1.
    9900012    2    1    2    0    0  0.42313038625E+02 -0.49615155516E+01  0.14632280371E+02  0.46142317597E+02  0.99999985079E+01 0.  0.
        -12    1    1    2    0    0 -0.42313038625E+02  0.49615155516E+01 -0.14632280371E+02  0.45045682403E+02  0.00000000000E+00 0.  1.
         11    1    3    3    0    0  0.27156543993E+02 -0.66315984200E+01  0.12782969551E+02  0.30738579831E+02  0.51100000000E-03 0. -1.
        -11    1    3    3    0    0  0.13032265413E+02  0.12727551546E+01  0.19584435246E+01  0.13239914983E+02  0.51100000000E-03 0.  1.
         12    1    3    3    0    0  0.21242292193E+01  0.39732771388E+00 -0.10913270387E+00  0.21638227828E+01  0.00000000000E+00 0. -1.
</event>
<event>
 7    1  0.1563903E-008  0.4614232E+02  0.7816164E-02  0.1320468E+00
        -11   -1    0    0    0    0  0.00000000000E+00  0.00000000000E+00  0.45593999997E+02  0.45594000000E+02  0.51100000000E-03 0.  1.
         11   -1    0    0    0    0 -0.00000000000E+00 -0.00000000000E+00 -0.45593999997E+02  0.45594000000E+02  0.51100000000E-03 0. -1.
    9900012    2    1    2    0    0  0.61217975332E+01 -0.20693835985E+02 -0.39539880282E+02  0.46142318903E+02  0.10000010410E+02 0.  0.
        -12    1    1    2    0    0 -0.61217975332E+01  0.20693835985E+02  0.39539880282E+02  0.45045681097E+02  0.00000000000E+00 0.  1.
         11    1    3    3    0    0 -0.11329577347E+01 -0.10503817849E+02 -0.22195367456E+02  0.24581458854E+02  0.51100000000E-03 0. -1.
        -11    1    3    3    0    0  0.50062012361E+01 -0.68311302335E+01 -0.13764772651E+02  0.16161539453E+02  0.51100000000E-03 0.  1.
         12    1    3    3    0    0  0.22485540317E+01 -0.33588879034E+01 -0.35797401746E+01  0.53993205961E+01  0.00000000000E+00 0. -1.
</event>
<event>
 7    1  0.1563903E-008  0.4614232E+02  0.7816164E-02  0.1320468E+00
        -11   -1    0    0    0    0  0.00000000000E+00  0.00000000000E+00  0.45593999997E+02  0.45594000000E+02  0.51100000000E-03 0.  1.
         11   -1    0    0    0    0 -0.00000000000E+00 -0.00000000000E+00 -0.45593999997E+02  0.45594000000E+02  0.51100000000E-03 0. -1.
    9900012    2    1    2    0    0 -0.32327168783E+02 -0.23672383886E+02 -0.20583628614E+02  0.46142319105E+02  0.10000012257E+02 0.  0.
        -12    1    1    2    0    0  0.32327168783E+02  0.23672383886E+02  0.20583628614E+02  0.45045680895E+02  0.00000000000E+00 0.  1.
         11    1    3    3    0    0 -0.21168891879E+02 -0.14606012010E+02 -0.14572736830E+02  0.29560484252E+02  0.51100000000E-03 0. -1.
        -11    1    3    3    0    0 -0.61662807985E+01 -0.56837038484E+01 -0.48086650281E+00  0.83999250697E+01  0.51100000000E-03 0.  1.
        -12    1    3    3    0    0 -0.49919961052E+01 -0.33826680272E+01 -0.55300252813E+01  0.81819097837E+01  0.00000000000E+00 0.  1.
</event>
<event>
 7    1  0.1563903E-008  0.4614232E+02  0.7816164E-02  0.1320468E+00
        -11   -1    0    0    0    0  0.00000000000E+00  0.00000000000E+00  0.45593999997E+02  0.45594000000E+02  0.51100000000E-03 0.  1.
         11   -1    0    0    0    0 -0.00000000000E+00 -0.00000000000E+00 -0.45593999997E+02  0.45594000000E+02  0.51100000000E-03 0. -1.
    9900012    2    1    2    0    0 -0.31107146518E+02  0.19577873303E+02 -0.26041616670E+02  0.46142317783E+02  0.10000000203E+02 0.  0.
        -12    1    1    2    0    0  0.31107146518E+02 -0.19577873303E+02  0.26041616670E+02  0.45045682217E+02  0.00000000000E+00 0.  1.
         11    1    3    3    0    0 -0.70783832390E+01  0.67978659693E+01 -0.10624380022E+02  0.14463469229E+02  0.51100000000E-03 0. -1.
        -11    1    3    3    0    0 -0.16005950590E+02  0.57780176652E+01 -0.98657677026E+01  0.19670010550E+02  0.51100000000E-03 0.  1.
        -12    1    3    3    0    0 -0.80228126889E+01  0.70019896684E+01 -0.55514689454E+01  0.12008838004E+02  0.00000000000E+00 0.  1.
</event>
<event>
 7    1  0.1563903E-008  0.4614232E+02  0.7816164E-02  0.1320468E+00
        -11   -1    0    0    0    0  0.00000000000E+00  0.00000000000E+00  0.45593999997E+02  0.45594000000E+02  0.51100000000E-03 0.  1.
         11   -1    0    0    0    0 -0.00000000000E+00 -0.00000000000E+00 -0.45593999997E+02  0.45594000000E+02  0.51100000000E-03 0. -1.
    9900012    2    1    2    0    0 -0.10557894399E+02 -0.35452773568E+02 -0.25704963749E+02  0.46142318196E+02  0.10000003966E+02 0.  0.
        -12    1    1    2    0    0  0.10557894399E+02  0.35452773568E+02  0.25704963749E+02  0.45045681804E+02  0.00000000000E+00 0.  1.
         11    1    3    3    0    0 -0.81527764504E+01 -0.28163701365E+02 -0.22207530928E+02  0.36780922617E+02  0.51100000000E-03 0. -1.
        -11    1    3    3    0    0 -0.13737388623E+01 -0.16956358264E+01 -0.29186526355E+01  0.36442931805E+01  0.51100000000E-03 0.  1.
         12    1    3    3    0    0 -0.10313790867E+01 -0.55934363773E+01 -0.57878018550E+00  0.57171023981E+01  0.00000000000E+00 0. -1.
</event>
<event>
 7    1  0.1563903E-008  0.4614232E+02  0.7816164E-02  0.1320468E+00
        -11   -1    0    0    0    0  0.00000000000E+00  0.00000000000E+00  0.45593999997E+02  0.45594000000E+02  0.51100000000E-03 0.  1.
         11   -1    0    0    0    0 -0.00000000000E+00 -0.00000000000E+00 -0.45593999997E+02  0.45594000000E+02  0.51100000000E-03 0. -1.
    9900012    2    1    2    0    0  0.18267616224E+02 -0.25348961356E+02 -0.32447462464E+02  0.46142318024E+02  0.10000002397E+02 0.  0.
        -12    1    1    2    0    0 -0.18267616224E+02  0.25348961356E+02  0.32447462464E+02  0.45045681976E+02  0.00000000000E+00 0.  1.
         11    1    3    3    0    0  0.10935245459E+02 -0.20217512331E+02 -0.19144416706E+02  0.29913811014E+02  0.51100000000E-03 0. -1.
        -11    1    3    3    0    0  0.24092735054E+01 -0.10480482249E+01 -0.22543042736E+01  0.34619202655E+01  0.51100000000E-03 0.  1.
         12    1    3    3    0    0  0.49230972596E+01 -0.40834008002E+01 -0.11048741484E+02  0.12766586744E+02  0.00000000000E+00 0. -1.
</event>
<event>
 7    1  0.1563903E-008  0.4614232E+02  0.7816164E-02  0.1320468E+00
        -11   -1    0    0    0    0  0.00000000000E+00  0.00000000000E+00  0.45593999997E+02  0.45594000000E+02  0.51100000000E-03 0.  1.
         11   -1    0    0    0    0 -0.00000000000E+00 -0.00000000000E+00 -0.45593999997E+02  0.45594000000E+02  0.51100000000E-03 0. -1.
    9900012    2    1    2    0    0 -0.42689975503E+02 -0.60179760420E+01 -0.13056159285E+02  0.46142319415E+02  0.10000015079E+02 0.  0.
        -12    1    1    2    0    0  0.42689975503E+02  0.60179760420E+01  0.13056159285E+02  0.45045680585E+02  0.00000000000E+00 0.  1.
         11    1    3    3    0    0 -0.18842759081E+02 -0.31733542570E+01 -0.31520022915E+01  0.19366333307E+02  0.51100000000E-03 0. -1.
        -11    1    3    3    0    0 -0.12908330896E+02 -0.40845592980E+01 -0.76074399271E+01  0.15530028129E+02  0.51100000000E-03 0.  1.
         12    1    3    3    0    0 -0.10938885526E+02  0.12399375130E+01 -0.22967170664E+01  0.11245957979E+02  0.00000000000E+00 0. -1.
</event>
<event>
 7    1  0.1563903E-008  0.4614232E+02  0.7816164E-02  0.1320468E+00
        -11   -1    0    0    0    0  0.00000000000E+00  0.00000000000E+00  0.45593999997E+02  0.45594000000E+02  0.51100000000E-03 0.  1.
         11   -1    0    0    0    0 -0.00000000000E+00 -0.00000000000E+00 -0.45593999997E+02  0.45594000000E+02  0.51100000000E-03 0. -1.
    9900012    2    1    2    0    0 -0.16100408078E+02 -0.24100210037E+02 -0.34482894113E+02  0.46142320401E+02  0.10000024070E+02 0.  0.
        -12    1    1    2    0    0  0.16100408078E+02  0.24100210037E+02  0.34482894113E+02  0.45045679599E+02  0.00000000000E+00 0.  1.
         11    1    3    3    0    0 -0.10518644478E+02 -0.21223409332E+02 -0.27872810378E+02  0.36578252336E+02  0.51100000000E-03 0. -1.
        -11    1    3    3    0    0 -0.41619605631E+01 -0.27843227653E+01 -0.63994961082E+01  0.81257565611E+01  0.51100000000E-03 0.  1.
         12    1    3    3    0    0 -0.14198030367E+01 -0.92477940683E-01 -0.21058762680E+00  0.14383115035E+01  0.00000000000E+00 0. -1.
</event>
<event>
 7    1  0.1563903E-008  0.4614232E+02  0.7816164E-02  0.1320468E+00
        -11   -1    0    0    0    0  0.00000000000E+00  0.00000000000E+00  0.45593999997E+02  0.45594000000E+02  0.51100000000E-03 0.  1.
         11   -1    0    0    0    0 -0.00000000000E+00 -0.00000000000E+00 -0.45593999997E+02  0.45594000000E+02  0.51100000000E-03 0. -1.
    9900012    2    1    2    0    0  0.32586460035E+02 -0.27805156820E+02  0.13932315536E+02  0.46142317193E+02  0.99999948165E+01 0.  0.
        -12    1    1    2    0    0 -0.32586460035E+02  0.27805156820E+02 -0.13932315536E+02  0.45045682807E+02  0.00000000000E+00 0.  1.
         11    1    3    3    0    0  0.12098987044E+01 -0.11377562488E+01  0.73063333965E+00  0.18144336567E+01  0.51100000000E-03 0. -1.
        -11    1    3    3    0    0  0.12121270689E+02 -0.15211749227E+02  0.28917923842E+01  0.19664307288E+02  0.51100000000E-03 0.  1.
        -12    1    3    3    0    0  0.19255290642E+02 -0.11455651344E+02  0.10309889812E+02  0.24663576248E+02  0.00000000000E+00 0.  1.
</event>
<event>
 7    1  0.1563903E-008  0.4614232E+02  0.7816164E-02  0.1320468E+00
        -11   -1    0    0    0    0  0.00000000000E+00  0.00000000000E+00  0.45593999997E+02  0.45594000000E+02  0.51100000000E-03 0. -1.
         11   -1    0    0    0    0 -0.00000000000E+00 -0.00000000000E+00 -0.45593999997E+02  0.45594000000E+02  0.51100000000E-03 0.  1.
    9900012    2    1    2    0    0 -0.32552342656E+01  0.28370631381E+02  0.34837110350E+02  0.46142317270E+02  0.99999955225E+01 0.  0.
        -12    1    1    2    0    0  0.32552342656E+01 -0.28370631381E+02 -0.34837110350E+02  0.45045682730E+02  0.00000000000E+00 0.  1.
         11    1    3    3    0    0 -0.21800129677E+00  0.99506451425E+01  0.82191610222E+01  0.12908039026E+02  0.51100000000E-03 0. -1.
        -11    1    3    3    0    0 -0.85108304697E+00  0.16043197488E+02  0.24739648164E+02  0.29498452833E+02  0.51100000000E-03 0.  1.
         12    1    3    3    0    0 -0.21861499219E+01  0.23767887503E+01  0.18783011637E+01  0.37358254116E+01  0.00000000000E+00 0. -1.
</event>
<event>
 7    1  0.1563903E-008  0.4614232E+02  0.7816164E-02  0.1320468E+00
        -11   -1    0    0    0    0  0.00000000000E+00  0.00000000000E+00  0.45593999997E+02  0.45594000000E+02  0.51100000000E-03 0.  1.
         11   -1    0    0    0    0 -0.00000000000E+00 -0.00000000000E+00 -0.45593999997E+02  0.45594000000E+02  0.51100000000E-03 0. -1.
    9900012    2    1    2    0    0  0.29572614725E+02 -0.10993132484E+02 -0.32151593476E+02  0.46142318004E+02  0.10000002211E+02 0.  0.
        -12    1    1    2    0    0 -0.29572614725E+02  0.10993132484E+02  0.32151593476E+02  0.45045681996E+02  0.00000000000E+00 0.  1.
         11    1    3    3    0    0  0.13185731655E+02 -0.44301911860E+01 -0.15494012462E+02  0.20821972424E+02  0.51100000000E-03 0. -1.
        -11    1    3    3    0    0  0.34188589801E+01 -0.26079304288E+01 -0.65974318577E+00  0.43503056421E+01  0.51100000000E-03 0.  1.
        -12    1    3    3    0    0  0.12968024090E+02 -0.39550108693E+01 -0.15997837828E+02  0.20970039937E+02  0.00000000000E+00 0.  1.
</event>
<event>
 7    1  0.2006390E-008  0.4614232E+02  0.7816164E-02  0.1320468E+00
        -11   -1    0    0    0    0  0.00000000000E+00  0.00000000000E+00  0.45593999997E+02  0.45594000000E+02  0.51100000000E-03 0.  1.
         11   -1    0    0    0    0 -0.00000000000E+00 -0.00000000000E+00 -0.45593999997E+02  0.45594000000E+02  0.51100000000E-03 0. -1.
    9900012    2    1    2    0    0 -0.10483444788E+02  0.41818641308E+02  0.13054198097E+02  0.46142318038E+02  0.10000002526E+02 0.  0.
        -12    1    1    2    0    0  0.10483444788E+02 -0.41818641308E+02 -0.13054198097E+02  0.45045681962E+02  0.00000000000E+00 0.  1.
         11    1    3    3    0    0 -0.92227169795E+01  0.33991497725E+02  0.13091813145E+02  0.37574938426E+02  0.51100000000E-03 0. -1.
        -11    1    3    3    0    0 -0.12252485568E+01  0.79547751688E+01 -0.52172275083E+00  0.80654743755E+01  0.51100000000E-03 0.  1.
         12    1    3    3    0    0 -0.35479251896E-01 -0.12763158571E+00  0.48410770188E+00  0.50190523608E+00  0.00000000000E+00 0. -1.
</event>
<event>
 7    1  0.1563903E-008  0.4614232E+02  0.7816164E-02  0.1320468E+00
        -11   -1    0    0    0    0  0.00000000000E+00  0.00000000000E+00  0.45593999997E+02  0.45594000000E+02  0.51100000000E-03 0.  1.
         11   -1    0    0    0    0 -0.00000000000E+00 -0.00000000000E+00 -0.45593999997E+02  0.45594000000E+02  0.51100000000E-03 0. -1.
    9900012    2    1    2    0    0  0.25944467189E+02 -0.17155329245E+02 -0.32583628011E+02  0.46142317481E+02  0.99999974476E+01 0.  0.
        -12    1    1    2    0    0 -0.25944467189E+02  0.17155329245E+02  0.32583628011E+02  0.45045682519E+02  0.00000000000E+00 0.  1.
         11    1    3    3    0    0  0.58822756728E+01 -0.37590229712E+01 -0.12345112797E+02  0.14182144796E+02  0.51100000000E-03 0. -1.
        -11    1    3    3    0    0  0.10519016161E+02 -0.10065309145E+02 -0.10761370620E+02  0.18104343320E+02  0.51100000000E-03 0.  1.
        -12    1    3    3    0    0  0.95431753545E+01 -0.33309971287E+01 -0.94771445953E+01  0.13855829365E+02  0.00000000000E+00 0.  1.
</event>
<event>
 7    1  0.1563903E-008  0.4614232E+02  0.7816164E-02  0.1320468E+00
        -11   -1    0    0    0    0  0.00000000000E+00  0.00000000000E+00  0.45593999997E+02  0.45594000000E+02  0.51100000000E-03 0. -1.
         11   -1    0    0    0    0 -0.00000000000E+00 -0.00000000000E+00 -0.45593999997E+02  0.45594000000E+02  0.51100000000E-03 0.  1.
    9900012    2    1    2    0    0 -0.30636709406E+02  0.15104014749E+02  0.29366210446E+02  0.46142317180E+02  0.99999947005E+01 0.  0.
        -12    1    1    2    0    0  0.30636709406E+02 -0.15104014749E+02 -0.29366210446E+02  0.45045682820E+02  0.00000000000E+00 0.  1.
         11    1    3    3    0    0 -0.13286487454E+02  0.43673796308E+01  0.88095836282E+01  0.16529171717E+02  0.51100000000E-03 0. -1.
        -11    1    3    3    0    0 -0.32069852495E+01  0.89762124792E+00  0.67787467600E+01  0.75526079067E+01  0.51100000000E-03 0.  1.
        -12    1    3    3    0    0 -0.14143236703E+02  0.98390138700E+01  0.13777880058E+02  0.22060537556E+02  0.00000000000E+00 0.  1.
</event>
<event>
 7    1  0.1563903E-008  0.4614232E+02  0.7816164E-02  0.1320468E+00
        -11   -1    0    0    0    0  0.00000000000E+00  0.00000000000E+00  0.45593999997E+02  0.45594000000E+02  0.51100000000E-03 0.  1.
         11   -1    0    0    0    0 -0.00000000000E+00 -0.00000000000E+00 -0.45593999997E+02  0.45594000000E+02  0.51100000000E-03 0. -1.
    9900012    2    1    2    0    0  0.26259526912E+02 -0.36536803682E+02 -0.21477129414E+01  0.46142318211E+02  0.10000004105E+02 0.  0.
        -12    1    1    2    0    0 -0.26259526912E+02  0.36536803682E+02  0.21477129414E+01  0.45045681789E+02  0.00000000000E+00 0.  1.
         11    1    3    3    0    0  0.22588253047E+02 -0.34469647174E+02 -0.96720215622E+00  0.41222824167E+02  0.51100000000E-03 0. -1.
        -11    1    3    3    0    0  0.10560817587E+00 -0.27413355726E-01 -0.78510074332E+00  0.79264621186E+00  0.51100000000E-03 0.  1.
        -12    1    3    3    0    0  0.35656656887E+01 -0.20397431521E+01 -0.39541004190E+00  0.41268478324E+01  0.00000000000E+00 0.  1.
</event>
<event>
 7    1  0.1563903E-008  0.4614232E+02  0.7816164E-02  0.1320468E+00
        -11   -1    0    0    0    0  0.00000000000E+00  0.00000000000E+00  0.45593999997E+02  0.45594000000E+02  0.51100000000E-03 0.  1.
         11   -1    0    0    0    0 -0.00000000000E+00 -0.00000000000E+00 -0.45593999997E+02  0.45594000000E+02  0.51100000000E-03 0. -1.
    9900012    2    1    2    0    0  0.38009474043E+02  0.23720218510E+02 -0.46631051870E+01  0.46142318374E+02  0.10000005590E+02 0.  0.
        -12    1    1    2    0    0 -0.38009474043E+02 -0.23720218510E+02  0.46631051870E+01  0.45045681626E+02  0.00000000000E+00 0.  1.
         11    1    3    3    0    0  0.24202900825E+01  0.21458436600E+01 -0.22858983332E+01  0.39607802953E+01  0.51100000000E-03 0.  1.
        -11    1    3    3    0    0  0.11446883651E+02  0.43906295255E+01 -0.26672428510E+01  0.12546830581E+02  0.51100000000E-03 0. -1.
        -12    1    3    3    0    0  0.24142300310E+02  0.17183745324E+02  0.29003599713E+00  0.29634707498E+02  0.00000000000E+00 0.  1.
</event>
<event>
 7    1  0.1563903E-008  0.4614232E+02  0.7816164E-02  0.1320468E+00
        -11   -1    0    0    0    0  0.00000000000E+00  0.00000000000E+00  0.45593999997E+02  0.45594000000E+02  0.51100000000E-03 0.  1.
         11   -1    0    0    0    0 -0.00000000000E+00 -0.00000000000E+00 -0.45593999997E+02  0.45594000000E+02  0.51100000000E-03 0. -1.
    9900012    2    1    2    0    0 -0.12240248739E+02 -0.29482747065E+02 -0.31781400735E+02  0.46142317672E+02  0.99999991850E+01 0.  0.
        -12    1    1    2    0    0  0.12240248739E+02  0.29482747065E+02  0.31781400735E+02  0.45045682328E+02  0.00000000000E+00 0.  1.
         11    1    3    3    0    0 -0.35620657197E+01 -0.18029883004E+02 -0.20341383303E+02  0.27414172762E+02  0.51100000000E-03 0. -1.
        -11    1    3    3    0    0 -0.23765827083E+00 -0.25258944886E+01 -0.17694897950E+01  0.30931729369E+01  0.51100000000E-03 0.  1.
         12    1    3    3    0    0 -0.84405247487E+01 -0.89269695731E+01 -0.96705276377E+01  0.15634971973E+02  0.00000000000E+00 0. -1.
</event>
<event>
 7    1  0.1563903E-008  0.4614232E+02  0.7816164E-02  0.1320468E+00
        -11   -1    0    0    0    0  0.00000000000E+00  0.00000000000E+00  0.45593999997E+02  0.45594000000E+02  0.51100000000E-03 0.  1.
         11   -1    0    0    0    0 -0.00000000000E+00 -0.00000000000E+00 -0.45593999997E+02  0.45594000000E+02  0.51100000000E-03 0. -1.
    9900012    2    1    2    0    0  0.35500667637E+02  0.19293434919E+02 -0.19914299631E+02  0.46142319148E+02  0.10000012644E+02 0.  0.
        -12    1    1    2    0    0 -0.35500667637E+02 -0.19293434919E+02  0.19914299631E+02  0.45045680852E+02  0.00000000000E+00 0.  1.
         11    1    3    3    0    0  0.81677410556E+01  0.57910761284E+01 -0.86879213259E+01  0.13256263950E+02  0.51100000000E-03 0. -1.
        -11    1    3    3    0    0  0.14339735225E+02  0.49369610368E+01 -0.37585296885E+01  0.15624600356E+02  0.51100000000E-03 0.  1.
         12    1    3    3    0    0  0.12993191357E+02  0.85653977534E+01 -0.74678486164E+01  0.17261454842E+02  0.00000000000E+00 0. -1.
</event>
<event>
 7    1  0.1563903E-008  0.4614232E+02  0.7816164E-02  0.1320468E+00
        -11   -1    0    0    0    0  0.00000000000E+00  0.00000000000E+00  0.45593999997E+02  0.45594000000E+02  0.51100000000E-03 0.  1.
         11   -1    0    0    0    0 -0.00000000000E+00 -0.00000000000E+00 -0.45593999997E+02  0.45594000000E+02  0.51100000000E-03 0. -1.
    9900012    2    1    2    0    0 -0.81133240517E+01 -0.77139234294E+01 -0.43632359333E+02  0.46142318489E+02  0.10000006636E+02 0.  0.
        -12    1    1    2    0    0  0.81133240517E+01  0.77139234294E+01  0.43632359333E+02  0.45045681511E+02  0.00000000000E+00 0.  1.
         11    1    3    3    0    0 -0.50624127184E+01 -0.66850896798E+00 -0.13830678626E+02  0.14743222114E+02  0.51100000000E-03 0. -1.
        -11    1    3    3    0    0 -0.15197719964E+01 -0.57930928764E+01 -0.11273570182E+02  0.12765696883E+02  0.51100000000E-03 0.  1.
        -12    1    3    3    0    0 -0.15311393370E+01 -0.12523215850E+01 -0.18528110525E+02  0.18633399492E+02  0.00000000000E+00 0.  1.
</event>
<event>
 7    1  0.1563903E-008  0.4614232E+02  0.7816164E-02  0.1320468E+00
        -11   -1    0    0    0    0  0.00000000000E+00  0.00000000000E+00  0.45593999997E+02  0.45594000000E+02  0.51100000000E-03 0. -1.
         11   -1    0    0    0    0 -0.00000000000E+00 -0.00000000000E+00 -0.45593999997E+02  0.45594000000E+02  0.51100000000E-03 0.  1.
    9900012    2    1    2    0    0  0.34717537102E+02  0.10270038274E+02  0.26801719446E+02  0.46142320587E+02  0.10000025764E+02 0.  0.
        -12    1    1    2    0    0 -0.34717537102E+02 -0.10270038274E+02 -0.26801719446E+02  0.45045679413E+02  0.00000000000E+00 0.  1.
         11    1    3    3    0    0  0.12758148567E+02  0.70924047798E+01  0.99667849649E+01  0.17675105748E+02  0.51100000000E-03 0. -1.
        -11    1    3    3    0    0  0.21667039819E+02  0.30456620707E+01  0.17306319820E+02  0.27897049628E+02  0.51100000000E-03 0.  1.
        -12    1    3    3    0    0  0.29234871699E+00  0.13197142324E+00 -0.47138533976E+00  0.57016521063E+00  0.00000000000E+00 0.  1.
</event>
<event>
 7    1  0.1563903E-008  0.4614232E+02  0.7816164E-02  0.1320468E+00
        -11   -1    0    0    0    0  0.00000000000E+00  0.00000000000E+00  0.45593999997E+02  0.45594000000E+02  0.51100000000E-03 0.  1.
         11   -1    0    0    0    0 -0.00000000000E+00 -0.00000000000E+00 -0.45593999997E+02  0.45594000000E+02  0.51100000000E-03 0. -1.
    9900012    2    1    2    0    0  0.16506479847E+02  0.29876277708E+02 -0.29394857020E+02  0.46142318011E+02  0.10000002282E+02 0.  0.
        -12    1    1    2    0    0 -0.16506479847E+02 -0.29876277708E+02  0.29394857020E+02  0.45045681989E+02  0.00000000000E+00 0.  1.
         11    1    3    3    0    0  0.64770684636E+01  0.45580681373E+01 -0.58040286605E+01  0.98191216501E+01  0.51100000000E-03 0.  1.
        -11    1    3    3    0    0  0.90186851940E+01  0.24850789702E+02 -0.23096644307E+02  0.35104891539E+02  0.51100000000E-03 0. -1.
         12    1    3    3    0    0  0.10107261893E+01  0.46741986833E+00 -0.49418405251E+00  0.12183048226E+01  0.00000000000E+00 0. -1.
</event>
<event>
 7    1  0.1563903E-008  0.4614232E+02  0.7816164E-02  0.1320468E+00
        -11   -1    0    0    0    0  0.00000000000E+00  0.00000000000E+00  0.45593999997E+02  0.45594000000E+02  0.51100000000E-03 0.  1.
         11   -1    0    0    0    0 -0.00000000000E+00 -0.00000000000E+00 -0.45593999997E+02  0.45594000000E+02  0.51100000000E-03 0. -1.
    9900012    2    1    2    0    0  0.44310434256E+02  0.77924498081E+01 -0.22308313971E+01  0.46142318001E+02  0.10000002191E+02 0.  0.
        -12    1    1    2    0    0 -0.44310434256E+02 -0.77924498081E+01  0.22308313971E+01  0.45045681999E+02  0.00000000000E+00 0.  1.
         11    1    3    3    0    0  0.70649002238E+01  0.19521741204E+01 -0.21233517573E+00  0.73327270136E+01  0.51100000000E-03 0. -1.
        -11    1    3    3    0    0  0.95122007409E+01 -0.34281050405E+00  0.29482950949E+01  0.99645334163E+01  0.51100000000E-03 0.  1.
        -12    1    3    3    0    0  0.27733333292E+02  0.61830861917E+01 -0.49667913162E+01  0.28845057571E+02  0.00000000000E+00 0.  1.
</event>
<event>
 7    1  0.1563903E-008  0.4614232E+02  0.7816164E-02  0.1320468E+00
        -11   -1    0    0    0    0  0.00000000000E+00  0.00000000000E+00  0.45593999997E+02  0.45594000000E+02  0.51100000000E-03 0.  1.
         11   -1    0    0    0    0 -0.00000000000E+00 -0.00000000000E+00 -0.45593999997E+02  0.45594000000E+02  0.51100000000E-03 0. -1.
    9900012    2    1    2    0    0  0.39809502184E+01 -0.37766439533E+02 -0.24227287736E+02  0.46142318846E+02  0.10000009890E+02 0.  0.
        -12    1    1    2    0    0 -0.39809502184E+01  0.37766439533E+02  0.24227287736E+02  0.45045681154E+02  0.00000000000E+00 0.  1.
         11    1    3    3    0    0 -0.92116517060E+00 -0.83557255724E+01 -0.57192783038E+01  0.10167440174E+02  0.51100000000E-03 0. -1.
        -11    1    3    3    0    0  0.64848747111E+01 -0.16886987756E+02 -0.12547370630E+02  0.22015005462E+02  0.51100000000E-03 0.  1.
        -12    1    3    3    0    0 -0.15827593221E+01 -0.12523726204E+02 -0.59606388024E+01  0.13959873210E+02  0.00000000000E+00 0.  1.
</event>
<event>
 7    1  0.1563903E-008  0.4614232E+02  0.7816164E-02  0.1320468E+00
        -11   -1    0    0    0    0  0.00000000000E+00  0.00000000000E+00  0.45593999997E+02  0.45594000000E+02  0.51100000000E-03 0.  1.
         11   -1    0    0    0    0 -0.00000000000E+00 -0.00000000000E+00 -0.45593999997E+02  0.45594000000E+02  0.51100000000E-03 0. -1.
    9900012    2    1    2    0    0  0.21685742733E+02  0.11544609223E+02 -0.37756641197E+02  0.46142318804E+02  0.10000009506E+02 0.  0.
        -12    1    1    2    0    0 -0.21685742733E+02 -0.11544609223E+02  0.37756641197E+02  0.45045681196E+02  0.00000000000E+00 0.  1.
         11    1    3    3    0    0  0.26602806646E+01  0.42972609724E+01 -0.30878278269E+01  0.59226873992E+01  0.51100000000E-03 0. -1.
        -11    1    3    3    0    0  0.18423857905E+02  0.72113441226E+01 -0.33708390038E+02  0.39085772135E+02  0.51100000000E-03 0.  1.
         12    1    3    3    0    0  0.60160416363E+00  0.36004128018E-01 -0.96042333169E+00  0.11338592695E+01  0.00000000000E+00 0. -1.
</event>
<event>
 7    1  0.1563903E-008  0.4614232E+02  0.7816164E-02  0.1320468E+00
        -11   -1    0    0    0    0  0.00000000000E+00  0.00000000000E+00  0.45593999997E+02  0.45594000000E+02  0.51100000000E-03 0. -1.
         11   -1    0    0    0    0 -0.00000000000E+00 -0.00000000000E+00 -0.45593999997E+02  0.45594000000E+02  0.51100000000E-03 0.  1.
    9900012    2    1    2    0    0  0.44429506005E+02  0.42895105814E+01  0.60607539386E+01  0.46142316043E+02  0.99999843314E+01 0.  0.
        -12    1    1    2    0    0 -0.44429506005E+02 -0.42895105814E+01 -0.60607539386E+01  0.45045683957E+02  0.00000000000E+00 0.  1.
         11    1    3    3    0    0  0.17586814704E+02  0.66258019884E+00 -0.17606522237E+01  0.17687141105E+02  0.51100000000E-03 0. -1.
        -11    1    3    3    0    0  0.25363913930E+02  0.38004514854E+01  0.81868925338E+01  0.26922049902E+02  0.51100000000E-03 0.  1.
        -12    1    3    3    0    0  0.14787773714E+01 -0.17352110287E+00 -0.36548637154E+00  0.15331250357E+01  0.00000000000E+00 0.  1.
</event>
<event>
 7    1  0.1563903E-008  0.4614231E+02  0.7816164E-02  0.1320468E+00
        -11   -1    0    0    0    0  0.00000000000E+00  0.00000000000E+00  0.45593999997E+02  0.45594000000E+02  0.51100000000E-03 0. -1.
         11   -1    0    0    0    0 -0.00000000000E+00 -0.00000000000E+00 -0.45593999997E+02  0.45594000000E+02  0.51100000000E-03 0.  1.
    9900012    2    1    2    0    0 -0.22155176334E+02 -0.22939442397E+02  0.31812641514E+02  0.46142311905E+02  0.99999465984E+01 0.  0.
        -12    1    1    2    0    0  0.22155176334E+02  0.22939442397E+02 -0.31812641514E+02  0.45045688095E+02  0.00000000000E+00 0.  1.
         11    1    3    3    0    0 -0.96712356011E+01 -0.89942701380E+01  0.14159826250E+02  0.19363118888E+02  0.51100000000E-03 0. -1.
        -11    1    3    3    0    0 -0.20496877749E+01 -0.91367400041E+00  0.60395122731E+01  0.64429596392E+01  0.51100000000E-03 0.  1.
        -12    1    3    3    0    0 -0.10434252958E+02 -0.13031498259E+02  0.11613302991E+02  0.20336233378E+02  0.00000000000E+00 0.  1.
</event>
<event>
 7    1  0.1563903E-008  0.4614232E+02  0.7816164E-02  0.1320468E+00
        -11   -1    0    0    0    0  0.00000000000E+00  0.00000000000E+00  0.45593999997E+02  0.45594000000E+02  0.51100000000E-03 0.  1.
         11   -1    0    0    0    0 -0.00000000000E+00 -0.00000000000E+00 -0.45593999997E+02  0.45594000000E+02  0.51100000000E-03 0. -1.
    9900012    2    1    2    0    0 -0.20374203899E+02  0.19968569722E+02 -0.34860601340E+02  0.46142317776E+02  0.10000000134E+02 0.  0.
        -12    1    1    2    0    0  0.20374203899E+02 -0.19968569722E+02  0.34860601340E+02  0.45045682224E+02  0.00000000000E+00 0.  1.
         11    1    3    3    0    0 -0.64333139044E+01  0.10445344303E+02 -0.13507876522E+02  0.18247067540E+02  0.51100000000E-03 0. -1.
        -11    1    3    3    0    0 -0.12288919009E+01 -0.25573110422E+00 -0.85022601063E-01  0.12580949112E+01  0.51100000000E-03 0.  1.
         12    1    3    3    0    0 -0.12711998094E+02  0.97789565229E+01 -0.21267702217E+02  0.26637155325E+02  0.00000000000E+00 0. -1.
</event>
<event>
 7    1  0.1563903E-008  0.4614232E+02  0.7816164E-02  0.1320468E+00
        -11   -1    0    0    0    0  0.00000000000E+00  0.00000000000E+00  0.45593999997E+02  0.45594000000E+02  0.51100000000E-03 0.  1.
         11   -1    0    0    0    0 -0.00000000000E+00 -0.00000000000E+00 -0.45593999997E+02  0.45594000000E+02  0.51100000000E-03 0. -1.
    9900012    2    1    2    0    0  0.21902863365E+02  0.12889495032E+02 -0.37191922339E+02  0.46142316599E+02  0.99999893999E+01 0.  0.
        -12    1    1    2    0    0 -0.21902863365E+02 -0.12889495032E+02  0.37191922339E+02  0.45045683401E+02  0.00000000000E+00 0.  1.
         11    1    3    3    0    0  0.37671812801E+01  0.30510673140E+01 -0.47654010378E+01  0.67977727134E+01  0.51100000000E-03 0. -1.
        -11    1    3    3    0    0  0.11709496917E+02  0.65794583738E+01 -0.13284154060E+02  0.18891012146E+02  0.51100000000E-03 0.  1.
        -12    1    3    3    0    0  0.64261851683E+01  0.32589693446E+01 -0.19142367241E+02  0.20453531739E+02  0.00000000000E+00 0.  1.
</event>
<event>
 7    1  0.1563903E-008  0.4614232E+02  0.7816164E-02  0.1320468E+00
        -11   -1    0    0    0    0  0.00000000000E+00  0.00000000000E+00  0.45593999997E+02  0.45594000000E+02  0.51100000000E-03 0.  1.
         11   -1    0    0    0    0 -0.00000000000E+00 -0.00000000000E+00 -0.45593999997E+02  0.45594000000E+02  0.51100000000E-03 0. -1.
    9900012    2    1    2    0    0 -0.83867351184E+00  0.60183632999E+00 -0.45033852509E+02  0.46142318164E+02  0.10000003676E+02 0.  0.
        -12    1    1    2    0    0  0.83867351184E+00 -0.60183632999E+00  0.45033852509E+02  0.45045681836E+02  0.00000000000E+00 0.  1.
         11    1    3    3    0    0  0.99498091998E+00  0.25822280179E+01 -0.45116768035E+01  0.52927418611E+01  0.51100000000E-03 0. -1.
        -11    1    3    3    0    0  0.74944541038E+00 -0.18762497993E+01 -0.27448212172E+02  0.27522469610E+02  0.51100000000E-03 0.  1.
         12    1    3    3    0    0 -0.25830998422E+01 -0.10414188865E+00 -0.13073963533E+02  0.13327106693E+02  0.00000000000E+00 0. -1.
</event>
<event>
 7    1  0.1563903E-008  0.4614232E+02  0.7816164E-02  0.1320468E+00
        -11   -1    0    0    0    0  0.00000000000E+00  0.00000000000E+00  0.45593999997E+02  0.45594000000E+02  0.51100000000E-03 0.  1.
         11   -1    0    0    0    0 -0.00000000000E+00 -0.00000000000E+00 -0.45593999997E+02  0.45594000000E+02  0.51100000000E-03 0. -1.
    9900012    2    1    2    0    0 -0.87912308617E+01 -0.70346326970E+01 -0.43615841530E+02  0.46142318414E+02  0.10000005951E+02 0.  0.
        -12    1    1    2    0    0  0.87912308617E+01  0.70346326970E+01  0.43615841530E+02  0.45045681586E+02  0.00000000000E+00 0.  1.
         11    1    3    3    0    0 -0.18744025431E+00 -0.15988492689E+01 -0.11435168991E+02  0.11547923751E+02  0.51100000000E-03 0. -1.
        -11    1    3    3    0    0 -0.35294444725E+01 -0.57076246240E+01 -0.24362674353E+02  0.25270018976E+02  0.51100000000E-03 0.  1.
        -12    1    3    3    0    0 -0.50743461349E+01  0.27184119589E+00 -0.78179981850E+01  0.93243756870E+01  0.00000000000E+00 0.  1.
</event>
<event>
 7    1  0.1563903E-008  0.4614232E+02  0.7816164E-02  0.1320468E+00
        -11   -1    0    0    0    0  0.00000000000E+00  0.00000000000E+00  0.45593999997E+02  0.45594000000E+02  0.51100000000E-03 0. -1.
         11   -1    0    0    0    0 -0.00000000000E+00 -0.00000000000E+00 -0.45593999997E+02  0.45594000000E+02  0.51100000000E-03 0.  1.
    9900012    2    1    2    0    0 -0.41462063675E+02 -0.13099480747E+01  0.17558323644E+02  0.46142318549E+02  0.10000007187E+02 0.  0.
        -12    1    1    2    0    0  0.41462063675E+02  0.13099480747E+01 -0.17558323644E+02  0.45045681451E+02  0.00000000000E+00 0.  1.
         11    1    3    3    0    0 -0.48412731909E+01 -0.27801509642E+00  0.58797184412E+01  0.76214373784E+01  0.51100000000E-03 0. -1.
        -11    1    3    3    0    0 -0.13900392390E+02  0.72315476580E-01  0.33652556693E+01  0.14302135649E+02  0.51100000000E-03 0.  1.
         12    1    3    3    0    0 -0.22720398094E+02 -0.11042484549E+01  0.83133495330E+01  0.24218745522E+02  0.00000000000E+00 0. -1.
</event>
<event>
 7    1  0.1563903E-008  0.4614232E+02  0.7816164E-02  0.1320468E+00
        -11   -1    0    0    0    0  0.00000000000E+00  0.00000000000E+00  0.45593999997E+02  0.45594000000E+02  0.51100000000E-03 0.  1.
         11   -1    0    0    0    0 -0.00000000000E+00 -0.00000000000E+00 -0.45593999997E+02  0.45594000000E+02  0.51100000000E-03 0. -1.
    9900012    2    1    2    0    0  0.31235850161E+02  0.29600765528E+02 -0.13312768402E+02  0.46142318102E+02  0.10000003111E+02 0.  0.
        -12    1    1    2    0    0 -0.31235850161E+02 -0.29600765528E+02  0.13312768402E+02  0.45045681898E+02  0.00000000000E+00 0.  1.
         11    1    3    3    0    0  0.28120591276E+01  0.20779690727E+01 -0.41026100365E+01  0.53904583643E+01  0.51100000000E-03 0.  1.
        -11    1    3    3    0    0  0.12999318615E+02  0.11410334709E+02 -0.54259161012E+01  0.18127840148E+02  0.51100000000E-03 0. -1.
        -12    1    3    3    0    0  0.15424472418E+02  0.16112461746E+02 -0.37842422645E+01  0.22624019590E+02  0.00000000000E+00 0.  1.
</event>
<event>
 7    1  0.1563903E-008  0.4614232E+02  0.7816164E-02  0.1320468E+00
        -11   -1    0    0    0    0  0.00000000000E+00  0.00000000000E+00  0.45593999997E+02  0.45594000000E+02  0.51100000000E-03 0.  1.
         11   -1    0    0    0    0 -0.00000000000E+00 -0.00000000000E+00 -0.45593999997E+02  0.45594000000E+02  0.51100000000E-03 0. -1.
    9900012    2    1    2    0    0  0.11473314212E+02 -0.36645627685E+02 -0.23549402319E+02  0.46142319663E+02  0.10000017342E+02 0.  0.
        -12    1    1    2    0    0 -0.11473314212E+02  0.36645627685E+02  0.23549402319E+02  0.45045680337E+02  0.00000000000E+00 0.  1.
         11    1    3    3    0    0  0.72675375802E+01 -0.21606930302E+02 -0.14414616435E+02  0.26971423892E+02  0.51100000000E-03 0. -1.
        -11    1    3    3    0    0  0.43253394410E+01 -0.11681380498E+02 -0.40916110714E+01  0.13111235374E+02  0.51100000000E-03 0.  1.
        -12    1    3    3    0    0 -0.11956280899E+00 -0.33573168860E+01 -0.50431748117E+01  0.60596603964E+01  0.00000000000E+00 0.  1.
</event>
<event>
 7    1  0.1563903E-008  0.4614232E+02  0.7816164E-02  0.1320468E+00
        -11   -1    0    0    0    0  0.00000000000E+00  0.00000000000E+00  0.45593999997E+02  0.45594000000E+02  0.51100000000E-03 0.  1.
         11   -1    0    0    0    0 -0.00000000000E+00 -0.00000000000E+00 -0.45593999997E+02  0.45594000000E+02  0.51100000000E-03 0. -1.
    9900012    2    1    2    0    0 -0.17900213233E+02  0.20603986604E+02 -0.35835339583E+02  0.46142318067E+02  0.10000002792E+02 0.  0.
        -12    1    1    2    0    0  0.17900213233E+02 -0.20603986604E+02  0.35835339583E+02  0.45045681933E+02  0.00000000000E+00 0.  1.
         11    1    3    3    0    0 -0.10311069312E+02  0.15873784805E+02 -0.24949231192E+02  0.31317077317E+02  0.51100000000E-03 0. -1.
        -11    1    3    3    0    0 -0.10841114026E+01  0.25296856355E+01 -0.13276049841E+01  0.30556737723E+01  0.51100000000E-03 0.  1.
         12    1    3    3    0    0 -0.65050325183E+01  0.22005161633E+01 -0.95585034076E+01  0.11769566978E+02  0.00000000000E+00 0. -1.
</event>
<event>
 7    1  0.1563903E-008  0.4614232E+02  0.7816164E-02  0.1320468E+00
        -11   -1    0    0    0    0  0.00000000000E+00  0.00000000000E+00  0.45593999997E+02  0.45594000000E+02  0.51100000000E-03 0.  1.
         11   -1    0    0    0    0 -0.00000000000E+00 -0.00000000000E+00 -0.45593999997E+02  0.45594000000E+02  0.51100000000E-03 0. -1.
    9900012    2    1    2    0    0  0.10498422132E+02 -0.21289008176E+02 -0.38284132248E+02  0.46142317428E+02  0.99999969622E+01 0.  0.
        -12    1    1    2    0    0 -0.10498422132E+02  0.21289008176E+02  0.38284132248E+02  0.45045682572E+02  0.00000000000E+00 0.  1.
         11    1    3    3    0    0  0.11140240409E+01 -0.26165814503E+00 -0.51392967920E+01  0.52651577684E+01  0.51100000000E-03 0. -1.
        -11    1    3    3    0    0 -0.75466287265E+00 -0.66396386955E+00 -0.60104772088E+00  0.11711629670E+01  0.51100000000E-03 0.  1.
         12    1    3    3    0    0  0.10139060964E+02 -0.20363386162E+02 -0.32543787735E+02  0.39705996693E+02  0.00000000000E+00 0. -1.
</event>
<event>
 7    1  0.1563903E-008  0.4614231E+02  0.7816164E-02  0.1320468E+00
        -11   -1    0    0    0    0  0.00000000000E+00  0.00000000000E+00  0.45593999997E+02  0.45594000000E+02  0.51100000000E-03 0.  1.
         11   -1    0    0    0    0 -0.00000000000E+00 -0.00000000000E+00 -0.45593999997E+02  0.45594000000E+02  0.51100000000E-03 0. -1.
    9900012    2    1    2    0    0  0.29237814519E+01 -0.18710152003E+02 -0.40871698739E+02  0.46142311597E+02  0.99999437875E+01 0.  0.
        -12    1    1    2    0    0 -0.29237814519E+01  0.18710152003E+02  0.40871698739E+02  0.45045688403E+02  0.00000000000E+00 0.  1.
         11    1    3    3    0    0 -0.82473640871E+00 -0.10625258589E+02 -0.14254151718E+02  0.17797672648E+02  0.51100000000E-03 0. -1.
        -11    1    3    3    0    0  0.46758014554E+00 -0.56021984985E+01 -0.14841264653E+02  0.15870299177E+02  0.51100000000E-03 0.  1.
        -12    1    3    3    0    0  0.32809377151E+01 -0.24826949154E+01 -0.11776282368E+02  0.12474339772E+02  0.00000000000E+00 0.  1.
</event>
<event>
 7    1  0.1563903E-008  0.4614232E+02  0.7816164E-02  0.1320468E+00
        -11   -1    0    0    0    0  0.00000000000E+00  0.00000000000E+00  0.45593999997E+02  0.45594000000E+02  0.51100000000E-03 0. -1.
         11   -1    0    0    0    0 -0.00000000000E+00 -0.00000000000E+00 -0.45593999997E+02  0.45594000000E+02  0.51100000000E-03 0.  1.
    9900012    2    1    2    0    0  0.38220605794E+02 -0.23828201803E+02  0.71805335692E+00  0.46142317531E+02  0.99999979040E+01 0.  0.
        -12    1    1    2    0    0 -0.38220605794E+02  0.23828201803E+02 -0.71805335692E+00  0.45045682469E+02  0.00000000000E+00 0.  1.
         11    1    3    3    0    0  0.30297531444E+02 -0.19118289660E+02 -0.64228631926E+00  0.35831019286E+02  0.51100000000E-03 0. -1.
        -11    1    3    3    0    0  0.56761478902E+00 -0.12024840977E+01  0.16964167971E+01  0.21554546538E+01  0.51100000000E-03 0.  1.
        -12    1    3    3    0    0  0.73554595615E+01 -0.35074280456E+01 -0.33607712093E+00  0.81558435914E+01  0.00000000000E+00 0.  1.
</event>
<event>
 7    1  0.1563903E-008  0.4614232E+02  0.7816164E-02  0.1320468E+00
        -11   -1    0    0    0    0  0.00000000000E+00  0.00000000000E+00  0.45593999997E+02  0.45594000000E+02  0.51100000000E-03 0. -1.
         11   -1    0    0    0    0 -0.00000000000E+00 -0.00000000000E+00 -0.45593999997E+02  0.45594000000E+02  0.51100000000E-03 0.  1.
    9900012    2    1    2    0    0 -0.14241660416E+02 -0.94789244391E+01  0.41670596504E+02  0.46142317489E+02  0.99999975176E+01 0.  0.
        -12    1    1    2    0    0  0.14241660416E+02  0.94789244391E+01 -0.41670596504E+02  0.45045682511E+02  0.00000000000E+00 0.  1.
         11    1    3    3    0    0 -0.10158646591E+02 -0.38335578845E+01  0.23270300252E+02  0.25678807229E+02  0.51100000000E-03 0. -1.
        -11    1    3    3    0    0 -0.23579026181E+01 -0.63189792512E+01  0.11626954276E+02  0.13441550116E+02  0.51100000000E-03 0.  1.
         12    1    3    3    0    0 -0.17251112070E+01  0.67361269664E+00  0.67733419760E+01  0.70219601441E+01  0.00000000000E+00 0. -1.
</event>
<event>
 7    1  0.1563903E-008  0.4614232E+02  0.7816164E-02  0.1320468E+00
        -11   -1    0    0    0    0  0.00000000000E+00  0.00000000000E+00  0.45593999997E+02  0.45594000000E+02  0.51100000000E-03 0.  1.
         11   -1    0    0    0    0 -0.00000000000E+00 -0.00000000000E+00 -0.45593999997E+02  0.45594000000E+02  0.51100000000E-03 0. -1.
    9900012    2    1    2    0    0 -0.29133069402E+02 -0.29056733214E+02 -0.18332595881E+02  0.46142317081E+02  0.99999937984E+01 0.  0.
        -12    1    1    2    0    0  0.29133069402E+02  0.29056733214E+02  0.18332595881E+02  0.45045682919E+02  0.00000000000E+00 0.  1.
         11    1    3    3    0    0 -0.48632953138E+01 -0.38149501278E+01 -0.51981740365E+01  0.80762924267E+01  0.51100000000E-03 0. -1.
        -11    1    3    3    0    0 -0.34407071840E+01 -0.73423505920E+00 -0.18916485790E+01  0.39944839036E+01  0.51100000000E-03 0.  1.
        -12    1    3    3    0    0 -0.20829066905E+02 -0.24507548027E+02 -0.11242773266E+02  0.34071540751E+02  0.00000000000E+00 0.  1.
</event>
<event>
 7    1  0.1563903E-008  0.4614232E+02  0.7816164E-02  0.1320468E+00
        -11   -1    0    0    0    0  0.00000000000E+00  0.00000000000E+00  0.45593999997E+02  0.45594000000E+02  0.51100000000E-03 0.  1.
         11   -1    0    0    0    0 -0.00000000000E+00 -0.00000000000E+00 -0.45593999997E+02  0.45594000000E+02  0.51100000000E-03 0. -1.
    9900012    2    1    2    0    0 -0.37399702264E+02  0.22520059499E+02 -0.11100576758E+02  0.46142316371E+02  0.99999873204E+01 0.  0.
        -12    1    1    2    0    0  0.37399702264E+02 -0.22520059499E+02  0.11100576758E+02  0.45045683629E+02  0.00000000000E+00 0.  1.
         11    1    3    3    0    0 -0.26366855062E+02  0.16677232934E+02 -0.83235867249E+01  0.32289676995E+02  0.51100000000E-03 0. -1.
        -11    1    3    3    0    0 -0.35179875887E+01  0.21489147751E+00 -0.27393618568E+01  0.44639129320E+01  0.51100000000E-03 0.  1.
        -12    1    3    3    0    0 -0.75148596128E+01  0.56279350884E+01 -0.37628176552E-01  0.93887264439E+01  0.00000000000E+00 0.  1.
</event>
<event>
 7    1  0.1563903E-008  0.4614232E+02  0.7816164E-02  0.1320468E+00
        -11   -1    0    0    0    0  0.00000000000E+00  0.00000000000E+00  0.45593999997E+02  0.45594000000E+02  0.51100000000E-03 0.  1.
         11   -1    0    0    0    0 -0.00000000000E+00 -0.00000000000E+00 -0.45593999997E+02  0.45594000000E+02  0.51100000000E-03 0. -1.
    9900012    2    1    2    0    0  0.20724131739E+02  0.28999155870E+02 -0.27544016198E+02  0.46142317567E+02  0.99999982325E+01 0.  0.
        -12    1    1    2    0    0 -0.20724131739E+02 -0.28999155870E+02  0.27544016198E+02  0.45045682433E+02  0.00000000000E+00 0.  1.
         11    1    3    3    0    0  0.99797531038E+01  0.12082086001E+02 -0.13617534762E+02  0.20760768950E+02  0.51100000000E-03 0. -1.
        -11    1    3    3    0    0  0.80952374307E+01  0.74213180247E+01 -0.97103841193E+01  0.14659481242E+02  0.51100000000E-03 0.  1.
        -12    1    3    3    0    0  0.26491412047E+01  0.94957518440E+01 -0.42160973166E+01  0.10722067375E+02  0.00000000000E+00 0.  1.
</event>
<event>
 7    1  0.1563903E-008  0.4614232E+02  0.7816164E-02  0.1320468E+00
        -11   -1    0    0    0    0  0.00000000000E+00  0.00000000000E+00  0.45593999997E+02  0.45594000000E+02  0.51100000000E-03 0. -1.
         11   -1    0    0    0    0 -0.00000000000E+00 -0.00000000000E+00 -0.45593999997E+02  0.45594000000E+02  0.51100000000E-03 0.  1.
    9900012    2    1    2    0    0  0.12036405040E+02 -0.43373654761E+02  0.17217819306E+01  0.46142317559E+02  0.99999981547E+01 0.  0.
        -12    1    1    2    0    0 -0.12036405040E+02  0.43373654761E+02 -0.17217819306E+01  0.45045682441E+02  0.00000000000E+00 0.  1.
         11    1    3    3    0    0  0.37560202790E+01 -0.12901829801E+02  0.48344980208E+01  0.14280660766E+02  0.51100000000E-03 0. -1.
        -11    1    3    3    0    0  0.74871557618E+01 -0.25664425891E+02 -0.16984396292E+01  0.26788149528E+02  0.51100000000E-03 0.  1.
        -12    1    3    3    0    0  0.79322899946E+00 -0.48073990694E+01 -0.14142764610E+01  0.50735072648E+01  0.00000000000E+00 0.  1.
</event>
<event>
 7    1  0.1563903E-008  0.4614232E+02  0.7816164E-02  0.1320468E+00
        -11   -1    0    0    0    0  0.00000000000E+00  0.00000000000E+00  0.45593999997E+02  0.45594000000E+02  0.51100000000E-03 0.  1.
         11   -1    0    0    0    0 -0.00000000000E+00 -0.00000000000E+00 -0.45593999997E+02  0.45594000000E+02  0.51100000000E-03 0. -1.
    9900012    2    1    2    0    0 -0.40935716245E+02 -0.17725367701E+02 -0.62603599261E+01  0.46142316177E+02  0.99999855583E+01 0.  0.
        -12    1    1    2    0    0  0.40935716245E+02  0.17725367701E+02  0.62603599261E+01  0.45045683823E+02  0.00000000000E+00 0.  1.
         11    1    3    3    0    0 -0.12362380422E+02 -0.65741110646E+01 -0.19493199738E+01  0.14136733519E+02  0.51100000000E-03 0. -1.
        -11    1    3    3    0    0 -0.42021668044E+01 -0.42784276022E+01  0.11386290937E+01  0.61040662737E+01  0.51100000000E-03 0.  1.
        -12    1    3    3    0    0 -0.24371169019E+02 -0.68728290344E+01 -0.54496690459E+01  0.25901516384E+02  0.00000000000E+00 0.  1.
</event>
<event>
 7    1  0.1563903E-008  0.4614232E+02  0.7816164E-02  0.1320468E+00
        -11   -1    0    0    0    0  0.00000000000E+00  0.00000000000E+00  0.45593999997E+02  0.45594000000E+02  0.51100000000E-03 0. -1.
         11   -1    0    0    0    0 -0.00000000000E+00 -0.00000000000E+00 -0.45593999997E+02  0.45594000000E+02  0.51100000000E-03 0.  1.
    9900012    2    1    2    0    0  0.43335724118E+02  0.11518166913E+02  0.42965528931E+01  0.46142317403E+02  0.99999967375E+01 0.  0.
        -12    1    1    2    0    0 -0.43335724118E+02 -0.11518166913E+02 -0.42965528931E+01  0.45045682597E+02  0.00000000000E+00 0.  1.
         11    1    3    3    0    0  0.40026937457E+01  0.19168583219E+01  0.27342468445E+01  0.52126777299E+01  0.51100000000E-03 0. -1.
        -11    1    3    3    0    0  0.22881326333E+02  0.67646873586E+01 -0.16946258502E+01  0.23920448300E+02  0.51100000000E-03 0.  1.
         12    1    3    3    0    0  0.16451704039E+02  0.28366212330E+01  0.32569318989E+01  0.17009191374E+02  0.00000000000E+00 0. -1.
</event>
<event>
 7    1  0.1563903E-008  0.4614232E+02  0.7816164E-02  0.1320468E+00
        -11   -1    0    0    0    0  0.00000000000E+00  0.00000000000E+00  0.45593999997E+02  0.45594000000E+02  0.51100000000E-03 0.  1.
         11   -1    0    0    0    0 -0.00000000000E+00 -0.00000000000E+00 -0.45593999997E+02  0.45594000000E+02  0.51100000000E-03 0. -1.
    9900012    2    1    2    0    0 -0.38090346541E+01  0.16351355716E+02 -0.41799974537E+02  0.46142318186E+02  0.10000003875E+02 0.  0.
        -12    1    1    2    0    0  0.38090346541E+01 -0.16351355716E+02  0.41799974537E+02  0.45045681814E+02  0.00000000000E+00 0.  1.
         11    1    3    3    0    0 -0.40806652322E+01  0.87000039478E+01 -0.21707107953E+02  0.23739006579E+02  0.51100000000E-03 0. -1.
        -11    1    3    3    0    0 -0.19282126264E+01  0.64903358868E+01 -0.17704099828E+02  0.18954619881E+02  0.51100000000E-03 0.  1.
        -12    1    3    3    0    0  0.21998432045E+01  0.11610158817E+01 -0.23887667564E+01  0.34486917256E+01  0.00000000000E+00 0.  1.
</event>
<event>
 7    1  0.1563903E-008  0.4614232E+02  0.7816164E-02  0.1320468E+00
        -11   -1    0    0    0    0  0.00000000000E+00  0.00000000000E+00  0.45593999997E+02  0.45594000000E+02  0.51100000000E-03 0.  1.
         11   -1    0    0    0    0 -0.00000000000E+00 -0.00000000000E+00 -0.45593999997E+02  0.45594000000E+02  0.51100000000E-03 0. -1.
    9900012    2    1    2    0    0 -0.13810419202E+02 -0.36646178758E+02 -0.22258558053E+02  0.46142317602E+02  0.99999985506E+01 0.  0.
        -12    1    1    2    0    0  0.13810419202E+02  0.36646178758E+02  0.22258558053E+02  0.45045682398E+02  0.00000000000E+00 0.  1.
         11    1    3    3    0    0 -0.39272616220E+01 -0.14645370436E+02 -0.99421906118E+01  0.18131668800E+02  0.51100000000E-03 0. -1.
        -11    1    3    3    0    0 -0.31150165479E-01 -0.80538816753E+01 -0.33361181592E+01  0.87175492545E+01  0.51100000000E-03 0.  1.
        -12    1    3    3    0    0 -0.98520074145E+01 -0.13946926646E+02 -0.89802492826E+01  0.19293099547E+02  0.00000000000E+00 0.  1.
</event>
<event>
 7    1  0.1563903E-008  0.4614232E+02  0.7816164E-02  0.1320468E+00
        -11   -1    0    0    0    0  0.00000000000E+00  0.00000000000E+00  0.45593999997E+02  0.45594000000E+02  0.51100000000E-03 0.  1.
         11   -1    0    0    0    0 -0.00000000000E+00 -0.00000000000E+00 -0.45593999997E+02  0.45594000000E+02  0.51100000000E-03 0. -1.
    9900012    2    1    2    0    0  0.32335256367E+02  0.10095332702E+02 -0.29692236465E+02  0.46142318154E+02  0.10000003586E+02 0.  0.
        -12    1    1    2    0    0 -0.32335256367E+02 -0.10095332702E+02  0.29692236465E+02  0.45045681846E+02  0.00000000000E+00 0.  1.
         11    1    3    3    0    0  0.10750075292E+01  0.43388907790E+00  0.54634827430E+00  0.12815606180E+01  0.51100000000E-03 0. -1.
        -11    1    3    3    0    0  0.32139923875E+01 -0.35061014414E+00 -0.42179800875E+01  0.53145113435E+01  0.51100000000E-03 0.  1.
         12    1    3    3    0    0  0.28046256450E+02  0.10012053768E+02 -0.26020604652E+02  0.39546246193E+02  0.00000000000E+00 0. -1.
</event>
<event>
 7    1  0.1563903E-008  0.4614232E+02  0.7816164E-02  0.1320468E+00
        -11   -1    0    0    0    0  0.00000000000E+00  0.00000000000E+00  0.45593999997E+02  0.45594000000E+02  0.51100000000E-03 0.  1.
         11   -1    0    0    0    0 -0.00000000000E+00 -0.00000000000E+00 -0.45593999997E+02  0.45594000000E+02  0.51100000000E-03 0. -1.
    9900012    2    1    2    0    0 -0.26824457413E+02  0.58422858809E+01 -0.35713156994E+02  0.46142318717E+02  0.10000008715E+02 0.  0.
        -12    1    1    2    0    0  0.26824457413E+02 -0.58422858809E+01  0.35713156994E+02  0.45045681283E+02  0.00000000000E+00 0.  1.
         11    1    3    3    0    0 -0.23918190022E+02  0.58089339013E+01 -0.25536579499E+02  0.35467455784E+02  0.51100000000E-03 0. -1.
        -11    1    3    3    0    0  0.49657700324E-02 -0.81374893374E-01 -0.18768236817E+01  0.18785936031E+01  0.51100000000E-03 0.  1.
         12    1    3    3    0    0 -0.29112331611E+01  0.11472687297E+00 -0.82997538127E+01  0.87962693300E+01  0.00000000000E+00 0. -1.
</event>
<event>
 7    1  0.1563903E-008  0.4614232E+02  0.7816164E-02  0.1320468E+00
        -11   -1    0    0    0    0  0.00000000000E+00  0.00000000000E+00  0.45593999997E+02  0.45594000000E+02  0.51100000000E-03 0. -1.
         11   -1    0    0    0    0 -0.00000000000E+00 -0.00000000000E+00 -0.45593999997E+02  0.45594000000E+02  0.51100000000E-03 0.  1.
    9900012    2    1    2    0    0  0.17790555424E+02 -0.34686778319E+02  0.22570711496E+02  0.46142317966E+02  0.10000001869E+02 0.  0.
        -12    1    1    2    0    0 -0.17790555424E+02  0.34686778319E+02 -0.22570711496E+02  0.45045682034E+02  0.00000000000E+00 0.  1.
         11    1    3    3    0    0  0.15848502959E+01 -0.38939708406E+01  0.18704436747E+01  0.46014475080E+01  0.51100000000E-03 0. -1.
        -11    1    3    3    0    0  0.29139391938E+01 -0.58489957231E+00  0.11831796139E+01  0.31989159718E+01  0.51100000000E-03 0.  1.
        -12    1    3    3    0    0  0.13291765934E+02 -0.30207907906E+02  0.19517088207E+02  0.38341954486E+02  0.00000000000E+00 0.  1.
</event>
<event>
 7    1  0.1563903E-008  0.4614232E+02  0.7816164E-02  0.1320468E+00
        -11   -1    0    0    0    0  0.00000000000E+00  0.00000000000E+00  0.45593999997E+02  0.45594000000E+02  0.51100000000E-03 0.  1.
         11   -1    0    0    0    0 -0.00000000000E+00 -0.00000000000E+00 -0.45593999997E+02  0.45594000000E+02  0.51100000000E-03 0. -1.
    9900012    2    1    2    0    0  0.29941435954E+02  0.45121204303E+00 -0.33651453593E+02  0.46142317541E+02  0.99999979918E+01 0.  0.
        -12    1    1    2    0    0 -0.29941435954E+02 -0.45121204303E+00  0.33651453593E+02  0.45045682459E+02  0.00000000000E+00 0.  1.
         11    1    3    3    0    0  0.20966705650E+02 -0.15101899186E+01 -0.17518009781E+02  0.27363553979E+02  0.51100000000E-03 0. -1.
        -11    1    3    3    0    0  0.81066784785E+01  0.15076333764E+01 -0.15643377412E+02  0.17683507895E+02  0.51100000000E-03 0.  1.
        -12    1    3    3    0    0  0.86805182515E+00  0.45376858518E+00 -0.49006640022E+00  0.10952556673E+01  0.00000000000E+00 0.  1.
</event>
<event>
 7    1  0.1563903E-008  0.4614232E+02  0.7816164E-02  0.1320468E+00
        -11   -1    0    0    0    0  0.00000000000E+00  0.00000000000E+00  0.45593999997E+02  0.45594000000E+02  0.51100000000E-03 0.  1.
         11   -1    0    0    0    0 -0.00000000000E+00 -0.00000000000E+00 -0.45593999997E+02  0.45594000000E+02  0.51100000000E-03 0. -1.
    9900012    2    1    2    0    0  0.37740251100E+01 -0.25463959466E+02 -0.36965618670E+02  0.46142318066E+02  0.10000002785E+02 0.  0.
        -12    1    1    2    0    0 -0.37740251100E+01  0.25463959466E+02  0.36965618670E+02  0.45045681934E+02  0.00000000000E+00 0.  1.
         11    1    3    3    0    0  0.66271832310E+00 -0.98344011719E+01 -0.81281332478E+01  0.12775804959E+02  0.51100000000E-03 0. -1.
        -11    1    3    3    0    0  0.12863110813E+01 -0.10277989032E+01 -0.11400076283E+01  0.20026443611E+01  0.51100000000E-03 0.  1.
         12    1    3    3    0    0  0.18249957056E+01 -0.14601759391E+02 -0.27697477794E+02  0.31363868747E+02  0.00000000000E+00 0. -1.
</event>
<event>
 7    1  0.1563903E-008  0.4614232E+02  0.7816164E-02  0.1320468E+00
        -11   -1    0    0    0    0  0.00000000000E+00  0.00000000000E+00  0.45593999997E+02  0.45594000000E+02  0.51100000000E-03 0.  1.
         11   -1    0    0    0    0 -0.00000000000E+00 -0.00000000000E+00 -0.45593999997E+02  0.45594000000E+02  0.51100000000E-03 0. -1.
    9900012    2    1    2    0    0 -0.29810227873E+02  0.33519535208E+02  0.41115432692E+01  0.46142315252E+02  0.99999771161E+01 0.  0.
        -12    1    1    2    0    0  0.29810227873E+02 -0.33519535208E+02 -0.41115432692E+01  0.45045684748E+02  0.00000000000E+00 0.  1.
         11    1    3    3    0    0 -0.16494237995E+02  0.24685063056E+02  0.39812073720E+01  0.29954335871E+02  0.51100000000E-03 0. -1.
        -11    1    3    3    0    0 -0.19568476736E+01  0.36892107172E+00  0.33770148021E+00  0.20197519960E+01  0.51100000000E-03 0.  1.
         12    1    3    3    0    0 -0.11359142205E+02  0.84655510805E+01 -0.20736558308E+00  0.14168227384E+02  0.00000000000E+00 0. -1.
</event>
<event>
 7    1  0.1563903E-008  0.4614232E+02  0.7816164E-02  0.1320468E+00
        -11   -1    0    0    0    0  0.00000000000E+00  0.00000000000E+00  0.45593999997E+02  0.45594000000E+02  0.51100000000E-03 0.  1.
         11   -1    0    0    0    0 -0.00000000000E+00 -0.00000000000E+00 -0.45593999997E+02  0.45594000000E+02  0.51100000000E-03 0. -1.
    9900012    2    1    2    0    0  0.91562130866E+01 -0.55933467437E+00 -0.44101750392E+02  0.46142317843E+02  0.10000000744E+02 0.  0.
        -12    1    1    2    0    0 -0.91562130866E+01  0.55933467437E+00  0.44101750392E+02  0.45045682157E+02  0.00000000000E+00 0.  1.
         11    1    3    3    0    0  0.69369913927E+01 -0.39020070019E+00 -0.16943034736E+02  0.18312305493E+02  0.51100000000E-03 0. -1.
        -11    1    3    3    0    0  0.20692206775E+00 -0.49913759956E-01  0.26072036321E+00  0.33657613473E+00  0.51100000000E-03 0.  1.
         12    1    3    3    0    0  0.20122996261E+01 -0.11922021422E+00 -0.27419436020E+02  0.27493436215E+02  0.00000000000E+00 0. -1.
</event>
<event>
 7    1  0.1563903E-008  0.4614232E+02  0.7816164E-02  0.1320468E+00
        -11   -1    0    0    0    0  0.00000000000E+00  0.00000000000E+00  0.45593999997E+02  0.45594000000E+02  0.51100000000E-03 0.  1.
         11   -1    0    0    0    0 -0.00000000000E+00 -0.00000000000E+00 -0.45593999997E+02  0.45594000000E+02  0.51100000000E-03 0. -1.
    9900012    2    1    2    0    0 -0.44947687006E+02 -0.25680687354E+01  0.14912821243E+01  0.46142318003E+02  0.10000002204E+02 0.  0.
        -12    1    1    2    0    0  0.44947687006E+02  0.25680687354E+01 -0.14912821243E+01  0.45045681997E+02  0.00000000000E+00 0.  1.
         11    1    3    3    0    0 -0.20166370987E+02 -0.94240664843E+00  0.48274078495E+01  0.20757517093E+02  0.51100000000E-03 0.  1.
        -11    1    3    3    0    0 -0.21248584978E+02 -0.20340684086E+01 -0.41285763346E+01  0.21741318743E+02  0.51100000000E-03 0. -1.
         12    1    3    3    0    0 -0.35327310409E+01  0.40840632163E+00  0.79245060939E+00  0.36434821667E+01  0.00000000000E+00 0. -1.
</event>
<event>
 7    1  0.1563903E-008  0.4614231E+02  0.7816164E-02  0.1320468E+00
        -11   -1    0    0    0    0  0.00000000000E+00  0.00000000000E+00  0.45593999997E+02  0.45594000000E+02  0.51100000000E-03 0.  1.
         11   -1    0    0    0    0 -0.00000000000E+00 -0.00000000000E+00 -0.45593999997E+02  0.45594000000E+02  0.51100000000E-03 0. -1.
    9900012    2    1    2    0    0  0.11584853875E+02  0.27536032931E+02 -0.33714566532E+02  0.46142312689E+02  0.99999537505E+01 0.  0.
        -12    1    1    2    0    0 -0.11584853875E+02 -0.27536032931E+02  0.33714566532E+02  0.45045687311E+02  0.00000000000E+00 0.  1.
         11    1    3    3    0    0  0.28766760215E+01  0.91234223954E+01 -0.10672983460E+02  0.14332643767E+02  0.51100000000E-03 0. -1.
        -11    1    3    3    0    0  0.98646603306E+01  0.12657333412E+02 -0.17341932914E+02  0.23627573934E+02  0.51100000000E-03 0.  1.
        -12    1    3    3    0    0 -0.11564824775E+01  0.57552771228E+01 -0.56996501581E+01  0.81820949888E+01  0.00000000000E+00 0.  1.
</event>
<event>
 7    1  0.1563903E-008  0.4614232E+02  0.7816164E-02  0.1320468E+00
        -11   -1    0    0    0    0  0.00000000000E+00  0.00000000000E+00  0.45593999997E+02  0.45594000000E+02  0.51100000000E-03 0.  1.
         11   -1    0    0    0    0 -0.00000000000E+00 -0.00000000000E+00 -0.45593999997E+02  0.45594000000E+02  0.51100000000E-03 0. -1.
    9900012    2    1    2    0    0  0.33982001353E+02 -0.11837071934E+02 -0.27096507908E+02  0.46142318423E+02  0.10000006034E+02 0.  0.
        -12    1    1    2    0    0 -0.33982001353E+02  0.11837071934E+02  0.27096507908E+02  0.45045681577E+02  0.00000000000E+00 0.  1.
         11    1    3    3    0    0  0.21425943459E+02 -0.11363905390E+02 -0.18988475459E+02  0.30802136279E+02  0.51100000000E-03 0. -1.
        -11    1    3    3    0    0  0.10085716821E+02 -0.17580272057E+01 -0.63888591999E+01  0.12067719983E+02  0.51100000000E-03 0.  1.
         12    1    3    3    0    0  0.24703410731E+01  0.12848606611E+01 -0.17191732493E+01  0.32724621613E+01  0.00000000000E+00 0. -1.
</event>
<event>
 7    1  0.1563903E-008  0.4614232E+02  0.7816164E-02  0.1320468E+00
        -11   -1    0    0    0    0  0.00000000000E+00  0.00000000000E+00  0.45593999997E+02  0.45594000000E+02  0.51100000000E-03 0.  1.
         11   -1    0    0    0    0 -0.00000000000E+00 -0.00000000000E+00 -0.45593999997E+02  0.45594000000E+02  0.51100000000E-03 0. -1.
    9900012    2    1    2    0    0  0.67848827209E+01  0.40441141740E+02 -0.18643845205E+02  0.46142317157E+02  0.99999944879E+01 0.  0.
        -12    1    1    2    0    0 -0.67848827209E+01 -0.40441141740E+02  0.18643845205E+02  0.45045682843E+02  0.00000000000E+00 0.  1.
         11    1    3    3    0    0  0.79066113061E+01  0.28404388499E+02 -0.14505996487E+02  0.32859514949E+02  0.51100000000E-03 0. -1.
        -11    1    3    3    0    0 -0.83608345245E+00  0.15019339054E+01 -0.17979719809E+01  0.24874775378E+01  0.51100000000E-03 0.  1.
         12    1    3    3    0    0 -0.28564513269E+00  0.10534819336E+02 -0.23398767375E+01  0.10795324670E+02  0.00000000000E+00 0. -1.
</event>
<event>
 7    1  0.1563903E-008  0.4614232E+02  0.7816164E-02  0.1320468E+00
        -11   -1    0    0    0    0  0.00000000000E+00  0.00000000000E+00  0.45593999997E+02  0.45594000000E+02  0.51100000000E-03 0.  1.
         11   -1    0    0    0    0 -0.00000000000E+00 -0.00000000000E+00 -0.45593999997E+02  0.45594000000E+02  0.51100000000E-03 0. -1.
    9900012    2    1    2    0    0 -0.58677997245E+00 -0.35747085328E+02 -0.27402830254E+02  0.46142317342E+02  0.99999961822E+01 0.  0.
        -12    1    1    2    0    0  0.58677997245E+00  0.35747085328E+02  0.27402830254E+02  0.45045682658E+02  0.00000000000E+00 0.  1.
         11    1    3    3    0    0  0.39298718660E+01 -0.17739692831E+02 -0.12774591899E+02  0.22211051148E+02  0.51100000000E-03 0. -1.
        -11    1    3    3    0    0 -0.30694415878E+01 -0.83407381017E+01 -0.49365944598E+01  0.10166579998E+02  0.51100000000E-03 0.  1.
         12    1    3    3    0    0 -0.14472102506E+01 -0.96666543944E+01 -0.96916438955E+01  0.13764686196E+02  0.00000000000E+00 0. -1.
</event>
<event>
 7    1  0.1563903E-008  0.4614232E+02  0.7816164E-02  0.1320468E+00
        -11   -1    0    0    0    0  0.00000000000E+00  0.00000000000E+00  0.45593999997E+02  0.45594000000E+02  0.51100000000E-03 0. -1.
         11   -1    0    0    0    0 -0.00000000000E+00 -0.00000000000E+00 -0.45593999997E+02  0.45594000000E+02  0.51100000000E-03 0.  1.
    9900012    2    1    2    0    0  0.19074449300E+02  0.34838816398E+02  0.21249369123E+02  0.46142318384E+02  0.10000005676E+02 0.  0.
        -12    1    1    2    0    0 -0.19074449300E+02 -0.34838816398E+02 -0.21249369123E+02  0.45045681616E+02  0.00000000000E+00 0.  1.
         11    1    3    3    0    0  0.11967367667E+02  0.13441400207E+02  0.78915033295E+01  0.19651080211E+02  0.51100000000E-03 0. -1.
        -11    1    3    3    0    0  0.24374585672E+01  0.94079881795E+01  0.78596470307E+01  0.12499019864E+02  0.51100000000E-03 0.  1.
        -12    1    3    3    0    0  0.46696230664E+01  0.11989428011E+02  0.54982187632E+01  0.13992218308E+02  0.00000000000E+00 0.  1.
</event>
<event>
 7    1  0.1563903E-008  0.4614232E+02  0.7816164E-02  0.1320468E+00
        -11   -1    0    0    0    0  0.00000000000E+00  0.00000000000E+00  0.45593999997E+02  0.45594000000E+02  0.51100000000E-03 0. -1.
         11   -1    0    0    0    0 -0.00000000000E+00 -0.00000000000E+00 -0.45593999997E+02  0.45594000000E+02  0.51100000000E-03 0.  1.
    9900012    2    1    2    0    0  0.36161404651E+02 -0.26804947919E+02 -0.17207813423E+01  0.46142317547E+02  0.99999980447E+01 0.  0.
        -12    1    1    2    0    0 -0.36161404651E+02  0.26804947919E+02  0.17207813423E+01  0.45045682453E+02  0.00000000000E+00 0.  1.
         11    1    3    3    0    0  0.61465739314E+00 -0.12754605037E+01  0.10213840900E+01  0.17458032328E+01  0.51100000000E-03 0. -1.
        -11    1    3    3    0    0  0.13993207904E+02 -0.13313588838E+02  0.10008232642E+01  0.19340712568E+02  0.51100000000E-03 0.  1.
         12    1    3    3    0    0  0.21553539354E+02 -0.12215898578E+02 -0.37429886964E+01  0.25055801746E+02  0.00000000000E+00 0. -1.
</event>
<event>
 7    1  0.1563903E-008  0.4614232E+02  0.7816164E-02  0.1320468E+00
        -11   -1    0    0    0    0  0.00000000000E+00  0.00000000000E+00  0.45593999997E+02  0.45594000000E+02  0.51100000000E-03 0.  1.
         11   -1    0    0    0    0 -0.00000000000E+00 -0.00000000000E+00 -0.45593999997E+02  0.45594000000E+02  0.51100000000E-03 0. -1.
    9900012    2    1    2    0    0 -0.21183250464E+02 -0.16880923178E+02 -0.35991913233E+02  0.46142317790E+02  0.10000000267E+02 0.  0.
        -12    1    1    2    0    0  0.21183250464E+02  0.16880923178E+02  0.35991913233E+02  0.45045682210E+02  0.00000000000E+00 0.  1.
         11    1    3    3    0    0 -0.15299077043E+02 -0.82196935208E+01 -0.18324195581E+02  0.25246807004E+02  0.51100000000E-03 0. -1.
        -11    1    3    3    0    0 -0.79261212711E+00  0.24062029278E+00 -0.77907692436E+00  0.11371425700E+01  0.51100000000E-03 0.  1.
         12    1    3    3    0    0 -0.50915612933E+01 -0.89018499498E+01 -0.16888640728E+02  0.19758368216E+02  0.00000000000E+00 0. -1.
</event>
<event>
 7    1  0.1576835E-008  0.4614232E+02  0.7816164E-02  0.1320468E+00
        -11   -1    0    0    0    0  0.00000000000E+00  0.00000000000E+00  0.45593999997E+02  0.45594000000E+02  0.51100000000E-03 0.  1.
         11   -1    0    0    0    0 -0.00000000000E+00 -0.00000000000E+00 -0.45593999997E+02  0.45594000000E+02  0.51100000000E-03 0. -1.
    9900012    2    1    2    0    0  0.21045630541E+02  0.37602065663E+02 -0.13125532861E+02  0.46142317412E+02  0.99999968145E+01 0.  0.
        -12    1    1    2    0    0 -0.21045630541E+02 -0.37602065663E+02  0.13125532861E+02  0.45045682588E+02  0.00000000000E+00 0.  1.
         11    1    3    3    0    0  0.17057164273E+02  0.28197740150E+02 -0.10687045806E+02  0.34644946975E+02  0.51100000000E-03 0. -1.
        -11    1    3    3    0    0  0.12873345548E+01  0.26457395205E+00 -0.13841480237E+01  0.19086895098E+01  0.51100000000E-03 0.  1.
         12    1    3    3    0    0  0.27011317132E+01  0.91397515611E+01 -0.10543390313E+01  0.95886809272E+01  0.00000000000E+00 0. -1.
</event>
<event>
 7    1  0.1563903E-008  0.4614232E+02  0.7816164E-02  0.1320468E+00
        -11   -1    0    0    0    0  0.00000000000E+00  0.00000000000E+00  0.45593999997E+02  0.45594000000E+02  0.51100000000E-03 0. -1.
         11   -1    0    0    0    0 -0.00000000000E+00 -0.00000000000E+00 -0.45593999997E+02  0.45594000000E+02  0.51100000000E-03 0.  1.
    9900012    2    1    2    0    0 -0.30286077537E+02 -0.31215017070E+02  0.11725602118E+02  0.46142317318E+02  0.99999959584E+01 0.  0.
        -12    1    1    2    0    0  0.30286077537E+02  0.31215017070E+02 -0.11725602118E+02  0.45045682682E+02  0.00000000000E+00 0.  1.
         11    1    3    3    0    0 -0.17164267615E+02 -0.13582955904E+02  0.17444831073E+01  0.21957959728E+02  0.51100000000E-03 0. -1.
        -11    1    3    3    0    0 -0.11900815764E+02 -0.16378441525E+02  0.88145011878E+01  0.22081172842E+02  0.51100000000E-03 0.  1.
         12    1    3    3    0    0 -0.12209941577E+01 -0.12536196419E+01  0.11666178224E+01  0.21031847478E+01  0.00000000000E+00 0. -1.
</event>
<event>
 7    1  0.1563903E-008  0.4614232E+02  0.7816164E-02  0.1320468E+00
        -11   -1    0    0    0    0  0.00000000000E+00  0.00000000000E+00  0.45593999997E+02  0.45594000000E+02  0.51100000000E-03 0.  1.
         11   -1    0    0    0    0 -0.00000000000E+00 -0.00000000000E+00 -0.45593999997E+02  0.45594000000E+02  0.51100000000E-03 0. -1.
    9900012    2    1    2    0    0 -0.37723224459E+02  0.24546858724E+02  0.18770960747E+01  0.46142318448E+02  0.10000006267E+02 0.  0.
        -12    1    1    2    0    0  0.37723224459E+02 -0.24546858724E+02 -0.18770960747E+01  0.45045681552E+02  0.00000000000E+00 0.  1.
         11    1    3    3    0    0 -0.21729324077E+02  0.13695085018E+02  0.21325278218E+00  0.25685878523E+02  0.51100000000E-03 0. -1.
        -11    1    3    3    0    0 -0.83128850332E+01  0.94394632724E+01  0.11161087949E+01  0.12627478907E+02  0.51100000000E-03 0.  1.
         12    1    3    3    0    0 -0.76810153485E+01  0.14123104335E+01  0.54773449762E+00  0.78289610182E+01  0.00000000000E+00 0. -1.
</event>
<event>
 7    1  0.1563903E-008  0.4614232E+02  0.7816164E-02  0.1320468E+00
        -11   -1    0    0    0    0  0.00000000000E+00  0.00000000000E+00  0.45593999997E+02  0.45594000000E+02  0.51100000000E-03 0. -1.
         11   -1    0    0    0    0 -0.00000000000E+00 -0.00000000000E+00 -0.45593999997E+02  0.45594000000E+02  0.51100000000E-03 0.  1.
    9900012    2    1    2    0    0  0.39219497154E+02  0.21249337698E+02  0.62777634861E+01  0.46142316255E+02  0.99999862683E+01 0.  0.
        -12    1    1    2    0    0 -0.39219497154E+02 -0.21249337698E+02 -0.62777634861E+01  0.45045683745E+02  0.00000000000E+00 0.  1.
         11    1    3    3    0    0  0.28122182732E+02  0.18765179260E+02  0.67055329349E+01  0.34466698225E+02  0.51100000000E-03 0. -1.
        -11    1    3    3    0    0  0.11078671463E+02  0.24885995755E+01 -0.10797718245E+00  0.11355252026E+02  0.51100000000E-03 0.  1.
        -12    1    3    3    0    0  0.18642958755E-01 -0.44411372058E-02 -0.31979226634E+00  0.32036600510E+00  0.00000000000E+00 0.  1.
</event>
<event>
 7    1  0.1563903E-008  0.4614232E+02  0.7816164E-02  0.1320468E+00
        -11   -1    0    0    0    0  0.00000000000E+00  0.00000000000E+00  0.45593999997E+02  0.45594000000E+02  0.51100000000E-03 0.  1.
         11   -1    0    0    0    0 -0.00000000000E+00 -0.00000000000E+00 -0.45593999997E+02  0.45594000000E+02  0.51100000000E-03 0. -1.
    9900012    2    1    2    0    0 -0.56980727260E+01  0.18494996170E+02 -0.40676536479E+02  0.46142317232E+02  0.99999951757E+01 0.  0.
        -12    1    1    2    0    0  0.56980727260E+01 -0.18494996170E+02  0.40676536479E+02  0.45045682768E+02  0.00000000000E+00 0.  1.
         11    1    3    3    0    0  0.24801029841E+01  0.79078886365E+01 -0.17439391611E+02  0.19308495372E+02  0.51100000000E-03 0. -1.
        -11    1    3    3    0    0 -0.66746995826E+01  0.92458112586E+01 -0.19600711749E+02  0.22676519612E+02  0.51100000000E-03 0.  1.
         12    1    3    3    0    0 -0.15034761275E+01  0.13412962751E+01 -0.36364331178E+01  0.41573022483E+01  0.00000000000E+00 0. -1.
</event>
<event>
 7    1  0.1563903E-008  0.4614232E+02  0.7816164E-02  0.1320468E+00
        -11   -1    0    0    0    0  0.00000000000E+00  0.00000000000E+00  0.45593999997E+02  0.45594000000E+02  0.51100000000E-03 0. -1.
         11   -1    0    0    0    0 -0.00000000000E+00 -0.00000000000E+00 -0.45593999997E+02  0.45594000000E+02  0.51100000000E-03 0.  1.
    9900012    2    1    2    0    0  0.34976298501E+02  0.21018244325E+02  0.19078929395E+02  0.46142316542E+02  0.99999888868E+01 0.  0.
        -12    1    1    2    0    0 -0.34976298501E+02 -0.21018244325E+02 -0.19078929395E+02  0.45045683458E+02  0.00000000000E+00 0.  1.
         11    1    3    3    0    0  0.24025561524E+02  0.18539884851E+02  0.11095474165E+02  0.32311986693E+02  0.51100000000E-03 0.  1.
        -11    1    3    3    0    0  0.43400190480E+01  0.39690511367E+00  0.32766609305E+01  0.54525045732E+01  0.51100000000E-03 0. -1.
        -12    1    3    3    0    0  0.66107179284E+01  0.20814543602E+01  0.47067942986E+01  0.83778252757E+01  0.00000000000E+00 0.  1.
</event>
<event>
 7    1  0.1563903E-008  0.4614232E+02  0.7816164E-02  0.1320468E+00
        -11   -1    0    0    0    0  0.00000000000E+00  0.00000000000E+00  0.45593999997E+02  0.45594000000E+02  0.51100000000E-03 0.  1.
         11   -1    0    0    0    0 -0.00000000000E+00 -0.00000000000E+00 -0.45593999997E+02  0.45594000000E+02  0.51100000000E-03 0. -1.
    9900012    2    1    2    0    0 -0.73383067679E+01 -0.37194500258E+02 -0.24327596901E+02  0.46142316892E+02  0.99999920768E+01 0.  0.
        -12    1    1    2    0    0  0.73383067679E+01  0.37194500258E+02  0.24327596901E+02  0.45045683108E+02  0.00000000000E+00 0.  1.
         11    1    3    3    0    0 -0.60766769975E+00 -0.10015160428E+02 -0.79269091122E+01  0.12787047617E+02  0.51100000000E-03 0. -1.
        -11    1    3    3    0    0 -0.27809491306E+01 -0.20967265896E+02 -0.92247819382E+01  0.23075019378E+02  0.51100000000E-03 0.  1.
        -12    1    3    3    0    0 -0.39496899376E+01 -0.62120739334E+01 -0.71759058508E+01  0.10280249897E+02  0.00000000000E+00 0.  1.
</event>
<event>
 7    1  0.1563903E-008  0.4614232E+02  0.7816164E-02  0.1320468E+00
        -11   -1    0    0    0    0  0.00000000000E+00  0.00000000000E+00  0.45593999997E+02  0.45594000000E+02  0.51100000000E-03 0.  1.
         11   -1    0    0    0    0 -0.00000000000E+00 -0.00000000000E+00 -0.45593999997E+02  0.45594000000E+02  0.51100000000E-03 0. -1.
    9900012    2    1    2    0    0 -0.12177981084E+02 -0.32463001446E+02  0.28756981018E+02  0.46142316040E+02  0.99999843086E+01 0.  0.
        -12    1    1    2    0    0  0.12177981084E+02  0.32463001446E+02 -0.28756981018E+02  0.45045683960E+02  0.00000000000E+00 0.  1.
         11    1    3    3    0    0 -0.19581070138E+00 -0.94775981511E+01  0.53650468447E+01  0.10892517452E+02  0.51100000000E-03 0. -1.
        -11    1    3    3    0    0 -0.10876421694E+01 -0.18209769162E+01  0.40757793055E+01  0.45946599032E+01  0.51100000000E-03 0.  1.
         12    1    3    3    0    0 -0.10894528213E+02 -0.21164426378E+02  0.19316154867E+02  0.30655138685E+02  0.00000000000E+00 0. -1.
</event>
<event>
 7    1  0.1563903E-008  0.4614232E+02  0.7816164E-02  0.1320468E+00
        -11   -1    0    0    0    0  0.00000000000E+00  0.00000000000E+00  0.45593999997E+02  0.45594000000E+02  0.51100000000E-03 0.  1.
         11   -1    0    0    0    0 -0.00000000000E+00 -0.00000000000E+00 -0.45593999997E+02  0.45594000000E+02  0.51100000000E-03 0. -1.
    9900012    2    1    2    0    0  0.11561343147E+02 -0.20301780416E+01 -0.43489392562E+02  0.46142317147E+02  0.99999944027E+01 0.  0.
        -12    1    1    2    0    0 -0.11561343147E+02  0.20301780416E+01  0.43489392562E+02  0.45045682853E+02  0.00000000000E+00 0.  1.
         11    1    3    3    0    0  0.27193925555E+01 -0.30247333767E+01 -0.72946919823E+01  0.83520440162E+01  0.51100000000E-03 0. -1.
        -11    1    3    3    0    0  0.89617043141E+01  0.11024160853E+01 -0.36414768726E+02  0.37517500544E+02  0.51100000000E-03 0.  1.
        -12    1    3    3    0    0 -0.11975372311E+00 -0.10786075012E+00  0.22006814578E+00  0.27277258734E+00  0.00000000000E+00 0.  1.
</event>
<event>
 7    1  0.1563903E-008  0.4614232E+02  0.7816164E-02  0.1320468E+00
        -11   -1    0    0    0    0  0.00000000000E+00  0.00000000000E+00  0.45593999997E+02  0.45594000000E+02  0.51100000000E-03 0.  1.
         11   -1    0    0    0    0 -0.00000000000E+00 -0.00000000000E+00 -0.45593999997E+02  0.45594000000E+02  0.51100000000E-03 0. -1.
    9900012    2    1    2    0    0  0.15489921000E+02 -0.44061735502E+01 -0.42068535247E+02  0.46142315681E+02  0.99999810361E+01 0.  0.
        -12    1    1    2    0    0 -0.15489921000E+02  0.44061735502E+01  0.42068535247E+02  0.45045684319E+02  0.00000000000E+00 0.  1.
         11    1    3    3    0    0  0.67148699530E+01 -0.30603802302E+01 -0.18076403474E+02  0.19524645156E+02  0.51100000000E-03 0. -1.
        -11    1    3    3    0    0  0.53663308821E+01 -0.21888237389E+01 -0.21612044148E+02  0.22375632036E+02  0.51100000000E-03 0.  1.
        -12    1    3    3    0    0  0.34087201645E+01  0.84303041894E+00 -0.23800876245E+01  0.42420384896E+01  0.00000000000E+00 0.  1.
</event>
<event>
 7    1  0.1563903E-008  0.4614232E+02  0.7816164E-02  0.1320468E+00
        -11   -1    0    0    0    0  0.00000000000E+00  0.00000000000E+00  0.45593999997E+02  0.45594000000E+02  0.51100000000E-03 0.  1.
         11   -1    0    0    0    0 -0.00000000000E+00 -0.00000000000E+00 -0.45593999997E+02  0.45594000000E+02  0.51100000000E-03 0. -1.
    9900012    2    1    2    0    0  0.26328608285E+02  0.23512035515E+02 -0.27983957539E+02  0.46142319765E+02  0.10000018274E+02 0.  0.
        -12    1    1    2    0    0 -0.26328608285E+02 -0.23512035515E+02  0.27983957539E+02  0.45045680235E+02  0.00000000000E+00 0.  1.
         11    1    3    3    0    0  0.18205067744E+02  0.17762866031E+02 -0.22617273199E+02  0.34036523742E+02  0.51100000000E-03 0. -1.
        -11    1    3    3    0    0  0.84489551162E+00 -0.58099226561E+00 -0.12529075280E+01  0.16190052418E+01  0.51100000000E-03 0.  1.
         12    1    3    3    0    0  0.72786450294E+01  0.63301617497E+01 -0.41137768119E+01  0.10486790782E+02  0.00000000000E+00 0. -1.
</event>
<event>
 7    1  0.1563903E-008  0.4614232E+02  0.7816164E-02  0.1320468E+00
        -11   -1    0    0    0    0  0.00000000000E+00  0.00000000000E+00  0.45593999997E+02  0.45594000000E+02  0.51100000000E-03 0.  1.
         11   -1    0    0    0    0 -0.00000000000E+00 -0.00000000000E+00 -0.45593999997E+02  0.45594000000E+02  0.51100000000E-03 0. -1.
    9900012    2    1    2    0    0 -0.33271167662E+02  0.25865486297E+02 -0.15909728609E+02  0.46142318260E+02  0.10000004549E+02 0.  0.
        -12    1    1    2    0    0  0.33271167662E+02 -0.25865486297E+02  0.15909728609E+02  0.45045681740E+02  0.00000000000E+00 0.  1.
         11    1    3    3    0    0 -0.19628624039E+02  0.14360140000E+02 -0.10771723292E+02  0.26599370771E+02  0.51100000000E-03 0. -1.
        -11    1    3    3    0    0 -0.42641767914E+00  0.15871262963E+01  0.99096018171E+00  0.19190633810E+01  0.51100000000E-03 0.  1.
        -12    1    3    3    0    0 -0.13216125944E+02  0.99182200007E+01 -0.61289654989E+01  0.17623884108E+02  0.00000000000E+00 0.  1.
</event>
<event>
 7    1  0.1563903E-008  0.4614231E+02  0.7816164E-02  0.1320468E+00
        -11   -1    0    0    0    0  0.00000000000E+00  0.00000000000E+00  0.45593999997E+02  0.45594000000E+02  0.51100000000E-03 0.  1.
         11   -1    0    0    0    0 -0.00000000000E+00 -0.00000000000E+00 -0.45593999997E+02  0.45594000000E+02  0.51100000000E-03 0. -1.
    9900012    2    1    2    0    0 -0.15032375804E+02 -0.54761525156E+01 -0.42108830093E+02  0.46142310523E+02  0.99999339953E+01 0.  0.
        -12    1    1    2    0    0  0.15032375804E+02  0.54761525156E+01  0.42108830093E+02  0.45045689477E+02  0.00000000000E+00 0.  1.
         11    1    3    3    0    0 -0.75188282305E+01  0.76815642326E+00 -0.16936553019E+02  0.18546419349E+02  0.51100000000E-03 0. -1.
        -11    1    3    3    0    0 -0.79596501393E+01 -0.66083404938E+01 -0.24890543388E+02  0.26954876086E+02  0.51100000000E-03 0.  1.
        -12    1    3    3    0    0  0.44610256624E+00  0.36403155487E+00 -0.28173368651E+00  0.64101508770E+00  0.00000000000E+00 0.  1.
</event>
<event>
 7    1  0.1563903E-008  0.4614232E+02  0.7816164E-02  0.1320468E+00
        -11   -1    0    0    0    0  0.00000000000E+00  0.00000000000E+00  0.45593999997E+02  0.45594000000E+02  0.51100000000E-03 0. -1.
         11   -1    0    0    0    0 -0.00000000000E+00 -0.00000000000E+00 -0.45593999997E+02  0.45594000000E+02  0.51100000000E-03 0.  1.
    9900012    2    1    2    0    0  0.23597196188E+02  0.25180516598E+02  0.28952158143E+02  0.46142317130E+02  0.99999942428E+01 0.  0.
        -12    1    1    2    0    0 -0.23597196188E+02 -0.25180516598E+02 -0.28952158143E+02  0.45045682870E+02  0.00000000000E+00 0.  1.
         11    1    3    3    0    0  0.48409786984E+01  0.99047120124E+01  0.13033193180E+02  0.17070516089E+02  0.51100000000E-03 0. -1.
        -11    1    3    3    0    0  0.10744868408E+02  0.75501934046E+01  0.75614297836E+01  0.15153641087E+02  0.51100000000E-03 0.  1.
        -12    1    3    3    0    0  0.80113490808E+01  0.77256111815E+01  0.83575351796E+01  0.13918159954E+02  0.00000000000E+00 0.  1.
</event>
<event>
 7    1  0.1563903E-008  0.4614232E+02  0.7816164E-02  0.1320468E+00
        -11   -1    0    0    0    0  0.00000000000E+00  0.00000000000E+00  0.45593999997E+02  0.45594000000E+02  0.51100000000E-03 0.  1.
         11   -1    0    0    0    0 -0.00000000000E+00 -0.00000000000E+00 -0.45593999997E+02  0.45594000000E+02  0.51100000000E-03 0. -1.
    9900012    2    1    2    0    0 -0.28983324481E+02 -0.34349602665E+02  0.30307168136E+01  0.46142317126E+02  0.99999942040E+01 0.  0.
        -12    1    1    2    0    0  0.28983324481E+02  0.34349602665E+02 -0.30307168136E+01  0.45045682874E+02  0.00000000000E+00 0.  1.
         11    1    3    3    0    0 -0.86858586673E+01 -0.88041786689E+01  0.16771105144E+01  0.12480801367E+02  0.51100000000E-03 0. -1.
        -11    1    3    3    0    0 -0.17395949866E+02 -0.19756165361E+02  0.40754299601E+01  0.26637084509E+02  0.51100000000E-03 0.  1.
        -12    1    3    3    0    0 -0.29015159477E+01 -0.57892586356E+01 -0.27218236609E+01  0.70244312500E+01  0.00000000000E+00 0.  1.
</event>
<event>
 7    1  0.1563903E-008  0.4614232E+02  0.7816164E-02  0.1320468E+00
        -11   -1    0    0    0    0  0.00000000000E+00  0.00000000000E+00  0.45593999997E+02  0.45594000000E+02  0.51100000000E-03 0.  1.
         11   -1    0    0    0    0 -0.00000000000E+00 -0.00000000000E+00 -0.45593999997E+02  0.45594000000E+02  0.51100000000E-03 0. -1.
    9900012    2    1    2    0    0  0.68770838371E+00  0.38934710042E+02 -0.22643519077E+02  0.46142317132E+02  0.99999942633E+01 0.  0.
        -12    1    1    2    0    0 -0.68770838371E+00 -0.38934710042E+02  0.22643519077E+02  0.45045682868E+02  0.00000000000E+00 0.  1.
         11    1    3    3    0    0 -0.29398112403E+01  0.16298908225E+02 -0.97121572597E+01  0.19199554639E+02  0.51100000000E-03 0. -1.
        -11    1    3    3    0    0  0.68254810423E+00  0.34733155649E+01  0.16967916676E+00  0.35438092794E+01  0.51100000000E-03 0.  1.
         12    1    3    3    0    0  0.29449715198E+01  0.19162486252E+02 -0.13101040984E+02  0.23398953213E+02  0.00000000000E+00 0. -1.
</event>
<event>
 7    1  0.1563903E-008  0.4614232E+02  0.7816164E-02  0.1320468E+00
        -11   -1    0    0    0    0  0.00000000000E+00  0.00000000000E+00  0.45593999997E+02  0.45594000000E+02  0.51100000000E-03 0.  1.
         11   -1    0    0    0    0 -0.00000000000E+00 -0.00000000000E+00 -0.45593999997E+02  0.45594000000E+02  0.51100000000E-03 0. -1.
    9900012    2    1    2    0    0 -0.11939036122E+02  0.43372997262E+02 -0.23143157715E+01  0.46142317271E+02  0.99999955284E+01 0.  0.
        -12    1    1    2    0    0  0.11939036122E+02 -0.43372997262E+02  0.23143157715E+01  0.45045682729E+02  0.00000000000E+00 0.  1.
         11    1    3    3    0    0 -0.10948770863E+02  0.33779835663E+02 -0.85039542957E+00  0.35520079582E+02  0.51100000000E-03 0. -1.
        -11    1    3    3    0    0 -0.29622489203E+00  0.96164613432E+01 -0.18936314490E+01  0.98056064717E+01  0.51100000000E-03 0.  1.
         12    1    3    3    0    0 -0.69404036714E+00 -0.23299744098E-01  0.42971110710E+00  0.81663121717E+00  0.00000000000E+00 0. -1.
</event>
<event>
 7    1  0.1563903E-008  0.4614232E+02  0.7816164E-02  0.1320468E+00
        -11   -1    0    0    0    0  0.00000000000E+00  0.00000000000E+00  0.45593999997E+02  0.45594000000E+02  0.51100000000E-03 0. -1.
         11   -1    0    0    0    0 -0.00000000000E+00 -0.00000000000E+00 -0.45593999997E+02  0.45594000000E+02  0.51100000000E-03 0.  1.
    9900012    2    1    2    0    0 -0.39034322600E+02 -0.15631209838E+02  0.16158600060E+02  0.46142318545E+02  0.10000007150E+02 0.  0.
        -12    1    1    2    0    0  0.39034322600E+02  0.15631209838E+02 -0.16158600060E+02  0.45045681455E+02  0.00000000000E+00 0.  1.
         11    1    3    3    0    0 -0.11545190507E+02 -0.30923013434E+01  0.12082746619E+01  0.12013062864E+02  0.51100000000E-03 0. -1.
        -11    1    3    3    0    0 -0.23721354529E+02 -0.11843578386E+02  0.11246528245E+02  0.28800302212E+02  0.51100000000E-03 0.  1.
         12    1    3    3    0    0 -0.37677775636E+01 -0.69533010817E+00  0.37037971530E+01  0.53289534693E+01  0.00000000000E+00 0. -1.
</event>
<event>
 7    1  0.1563903E-008  0.4614232E+02  0.7816164E-02  0.1320468E+00
        -11   -1    0    0    0    0  0.00000000000E+00  0.00000000000E+00  0.45593999997E+02  0.45594000000E+02  0.51100000000E-03 0.  1.
         11   -1    0    0    0    0 -0.00000000000E+00 -0.00000000000E+00 -0.45593999997E+02  0.45594000000E+02  0.51100000000E-03 0. -1.
    9900012    2    1    2    0    0  0.23370871985E+02  0.38988897349E+01 -0.38310761793E+02  0.46142317991E+02  0.10000002093E+02 0.  0.
        -12    1    1    2    0    0 -0.23370871985E+02 -0.38988897349E+01  0.38310761793E+02  0.45045682009E+02  0.00000000000E+00 0.  1.
         11    1    3    3    0    0  0.15021318282E+02  0.59159250898E+01 -0.27497382533E+02  0.31886426878E+02  0.51100000000E-03 0. -1.
        -11    1    3    3    0    0  0.75747717053E+01 -0.25895326098E+01 -0.10575448451E+02  0.13263595128E+02  0.51100000000E-03 0.  1.
         12    1    3    3    0    0  0.77478199828E+00  0.57249725501E+00 -0.23793080944E+00  0.99229598504E+00  0.00000000000E+00 0. -1.
</event>
<event>
 7    1  0.1563903E-008  0.4614232E+02  0.7816164E-02  0.1320468E+00
        -11   -1    0    0    0    0  0.00000000000E+00  0.00000000000E+00  0.45593999997E+02  0.45594000000E+02  0.51100000000E-03 0.  1.
         11   -1    0    0    0    0 -0.00000000000E+00 -0.00000000000E+00 -0.45593999997E+02  0.45594000000E+02  0.51100000000E-03 0. -1.
    9900012    2    1    2    0    0  0.41551307970E+02  0.36431140183E+01 -0.17009702198E+02  0.46142318269E+02  0.10000004632E+02 0.  0.
        -12    1    1    2    0    0 -0.41551307970E+02 -0.36431140183E+01  0.17009702198E+02  0.45045681731E+02  0.00000000000E+00 0.  1.
         11    1    3    3    0    0  0.17046223967E+02 -0.32233568684E+00 -0.68138060979E+01  0.18360435878E+02  0.51100000000E-03 0. -1.
        -11    1    3    3    0    0  0.98451175026E+01  0.40476097498E+01 -0.71087978959E+01  0.12800175433E+02  0.51100000000E-03 0.  1.
        -12    1    3    3    0    0  0.14659966500E+02 -0.82160044657E-01 -0.30870982037E+01  0.14981706958E+02  0.00000000000E+00 0.  1.
</event>
<event>
 7    1  0.1563903E-008  0.4614232E+02  0.7816164E-02  0.1320468E+00
        -11   -1    0    0    0    0  0.00000000000E+00  0.00000000000E+00  0.45593999997E+02  0.45594000000E+02  0.51100000000E-03 0.  1.
         11   -1    0    0    0    0 -0.00000000000E+00 -0.00000000000E+00 -0.45593999997E+02  0.45594000000E+02  0.51100000000E-03 0. -1.
    9900012    2    1    2    0    0  0.43617692718E+01 -0.42858434124E+02 -0.13162188498E+02  0.46142316380E+02  0.99999874057E+01 0.  0.
        -12    1    1    2    0    0 -0.43617692718E+01  0.42858434124E+02  0.13162188498E+02  0.45045683620E+02  0.00000000000E+00 0.  1.
         11    1    3    3    0    0  0.45927724365E+01 -0.18570299604E+02 -0.53048400247E+01  0.19851723200E+02  0.51100000000E-03 0. -1.
        -11    1    3    3    0    0  0.26909293787E+01 -0.63746621154E+01 -0.17089176004E+01  0.71272587741E+01  0.51100000000E-03 0.  1.
         12    1    3    3    0    0 -0.29219325434E+01 -0.17913472404E+02 -0.61484308733E+01  0.19163334406E+02  0.00000000000E+00 0. -1.
</event>
<event>
 7    1  0.1563903E-008  0.4614232E+02  0.7816164E-02  0.1320468E+00
        -11   -1    0    0    0    0  0.00000000000E+00  0.00000000000E+00  0.45593999997E+02  0.45594000000E+02  0.51100000000E-03 0. -1.
         11   -1    0    0    0    0 -0.00000000000E+00 -0.00000000000E+00 -0.45593999997E+02  0.45594000000E+02  0.51100000000E-03 0.  1.
    9900012    2    1    2    0    0  0.17477550513E+02 -0.16639619985E+02  0.38036453372E+02  0.46142317517E+02  0.99999977753E+01 0.  0.
        -12    1    1    2    0    0 -0.17477550513E+02  0.16639619985E+02 -0.38036453372E+02  0.45045682483E+02  0.00000000000E+00 0.  1.
         11    1    3    3    0    0  0.10257068913E+02 -0.89226379037E+01  0.27019944195E+02  0.30247286067E+02  0.51100000000E-03 0. -1.
        -11    1    3    3    0    0  0.53079057222E+01 -0.78961030997E+01  0.95270618391E+01  0.13464294072E+02  0.51100000000E-03 0.  1.
         12    1    3    3    0    0  0.19125758775E+01  0.17912101816E+00  0.14894473381E+01  0.24307373777E+01  0.00000000000E+00 0. -1.
</event>
<event>
 7    1  0.1563903E-008  0.4614232E+02  0.7816164E-02  0.1320468E+00
        -11   -1    0    0    0    0  0.00000000000E+00  0.00000000000E+00  0.45593999997E+02  0.45594000000E+02  0.51100000000E-03 0. -1.
         11   -1    0    0    0    0 -0.00000000000E+00 -0.00000000000E+00 -0.45593999997E+02  0.45594000000E+02  0.51100000000E-03 0.  1.
    9900012    2    1    2    0    0  0.28665360873E+02 -0.30807054286E+02 -0.16072834022E+02  0.46142317619E+02  0.99999987009E+01 0.  0.
        -12    1    1    2    0    0 -0.28665360873E+02  0.30807054286E+02  0.16072834022E+02  0.45045682381E+02  0.00000000000E+00 0.  1.
         11    1    3    3    0    0  0.20975269362E+02 -0.22472817360E+02 -0.68069012087E+01  0.31485287822E+02  0.51100000000E-03 0. -1.
        -11    1    3    3    0    0  0.65203157045E+01 -0.69443842542E+01 -0.75046816688E+01  0.12126798290E+02  0.51100000000E-03 0.  1.
         12    1    3    3    0    0  0.11697758064E+01 -0.13898526712E+01 -0.17612511441E+01  0.25302315067E+01  0.00000000000E+00 0. -1.
</event>
<event>
 7    1  0.1563903E-008  0.4614232E+02  0.7816164E-02  0.1320468E+00
        -11   -1    0    0    0    0  0.00000000000E+00  0.00000000000E+00  0.45593999997E+02  0.45594000000E+02  0.51100000000E-03 0. -1.
         11   -1    0    0    0    0 -0.00000000000E+00 -0.00000000000E+00 -0.45593999997E+02  0.45594000000E+02  0.51100000000E-03 0.  1.
    9900012    2    1    2    0    0 -0.15702174338E+02 -0.37371451412E+02  0.19645097495E+02  0.46142317464E+02  0.99999972872E+01 0.  0.
        -12    1    1    2    0    0  0.15702174338E+02  0.37371451412E+02 -0.19645097495E+02  0.45045682536E+02  0.00000000000E+00 0.  1.
         11    1    3    3    0    0 -0.11856684435E+02 -0.31978902809E+02  0.14133677372E+02  0.36918721903E+02  0.51100000000E-03 0. -1.
        -11    1    3    3    0    0 -0.42066663901E+01 -0.37823537502E+01  0.36325061706E+01  0.67228969463E+01  0.51100000000E-03 0.  1.
        -12    1    3    3    0    0  0.36117648637E+00 -0.16101948525E+01  0.18789139525E+01  0.25006986140E+01  0.00000000000E+00 0.  1.
</event>
<event>
 7    1  0.1563903E-008  0.4614232E+02  0.7816164E-02  0.1320468E+00
        -11   -1    0    0    0    0  0.00000000000E+00  0.00000000000E+00  0.45593999997E+02  0.45594000000E+02  0.51100000000E-03 0. -1.
         11   -1    0    0    0    0 -0.00000000000E+00 -0.00000000000E+00 -0.45593999997E+02  0.45594000000E+02  0.51100000000E-03 0.  1.
    9900012    2    1    2    0    0 -0.41267663540E+02  0.93258478042E+01  0.15463572196E+02  0.46142317006E+02  0.99999931152E+01 0.  0.
        -12    1    1    2    0    0  0.41267663540E+02 -0.93258478042E+01 -0.15463572196E+02  0.45045682994E+02  0.00000000000E+00 0.  1.
         11    1    3    3    0    0 -0.21298006834E+02  0.70749139445E+01  0.67290902033E+01  0.23429471988E+02  0.51100000000E-03 0. -1.
        -11    1    3    3    0    0 -0.19979422751E+02  0.13168428929E+01  0.84815148486E+01  0.21745056980E+02  0.51100000000E-03 0.  1.
         12    1    3    3    0    0  0.97660452470E-02  0.93409096681E+00  0.25296714413E+00  0.96778803770E+00  0.00000000000E+00 0. -1.
</event>
<event>
 7    1  0.1563903E-008  0.4614232E+02  0.7816164E-02  0.1320468E+00
        -11   -1    0    0    0    0  0.00000000000E+00  0.00000000000E+00  0.45593999997E+02  0.45594000000E+02  0.51100000000E-03 0.  1.
         11   -1    0    0    0    0 -0.00000000000E+00 -0.00000000000E+00 -0.45593999997E+02  0.45594000000E+02  0.51100000000E-03 0. -1.
    9900012    2    1    2    0    0  0.24573397122E+02  0.32229508920E+01 -0.37614813074E+02  0.46142318507E+02  0.10000006802E+02 0.  0.
        -12    1    1    2    0    0 -0.24573397122E+02 -0.32229508920E+01  0.37614813074E+02  0.45045681493E+02  0.00000000000E+00 0.  1.
         11    1    3    3    0    0  0.10070312442E+02 -0.30677184716E+01 -0.13517151626E+02  0.17132877097E+02  0.51100000000E-03 0. -1.
        -11    1    3    3    0    0  0.10551600098E+02  0.60137243765E+01 -0.19066730105E+02  0.22606223538E+02  0.51100000000E-03 0.  1.
        -12    1    3    3    0    0  0.39514845827E+01  0.27694498708E+00 -0.50309313434E+01  0.64032178719E+01  0.00000000000E+00 0.  1.
</event>
<event>
 7    1  0.1563903E-008  0.4614232E+02  0.7816164E-02  0.1320468E+00
        -11   -1    0    0    0    0  0.00000000000E+00  0.00000000000E+00  0.45593999997E+02  0.45594000000E+02  0.51100000000E-03 0.  1.
         11   -1    0    0    0    0 -0.00000000000E+00 -0.00000000000E+00 -0.45593999997E+02  0.45594000000E+02  0.51100000000E-03 0. -1.
    9900012    2    1    2    0    0 -0.32733347135E+02 -0.28420921840E+02 -0.12243067453E+02  0.46142317482E+02  0.99999974504E+01 0.  0.
        -12    1    1    2    0    0  0.32733347135E+02  0.28420921840E+02  0.12243067453E+02  0.45045682518E+02  0.00000000000E+00 0.  1.
         11    1    3    3    0    0 -0.19016400975E+02 -0.16055692469E+02 -0.88064748431E+01  0.26400052389E+02  0.51100000000E-03 0. -1.
        -11    1    3    3    0    0 -0.59938790251E+01 -0.21864067995E+01  0.42510616760E+00  0.63943471892E+01  0.51100000000E-03 0.  1.
         12    1    3    3    0    0 -0.77230671345E+01 -0.10178822572E+02 -0.38616987779E+01  0.13347917904E+02  0.00000000000E+00 0. -1.
</event>
<event>
 7    1  0.1563903E-008  0.4614232E+02  0.7816164E-02  0.1320468E+00
        -11   -1    0    0    0    0  0.00000000000E+00  0.00000000000E+00  0.45593999997E+02  0.45594000000E+02  0.51100000000E-03 0.  1.
         11   -1    0    0    0    0 -0.00000000000E+00 -0.00000000000E+00 -0.45593999997E+02  0.45594000000E+02  0.51100000000E-03 0. -1.
    9900012    2    1    2    0    0 -0.44923659801E+02  0.11969652897E+01 -0.30895878975E+01  0.46142317752E+02  0.99999999160E+01 0.  0.
        -12    1    1    2    0    0  0.44923659801E+02 -0.11969652897E+01  0.30895878975E+01  0.45045682248E+02  0.00000000000E+00 0.  1.
         11    1    3    3    0    0 -0.20940759728E+02  0.25034015180E+01  0.12039505863E+01  0.21124202575E+02  0.51100000000E-03 0. -1.
        -11    1    3    3    0    0 -0.90899487903E+01  0.19069125726E+00 -0.42826344690E+01  0.10050099025E+02  0.51100000000E-03 0.  1.
        -12    1    3    3    0    0 -0.14892951283E+02 -0.14971274856E+01 -0.10904014754E-01  0.14968016152E+02  0.00000000000E+00 0.  1.
</event>
<event>
 7    1  0.1563903E-008  0.4614232E+02  0.7816164E-02  0.1320468E+00
        -11   -1    0    0    0    0  0.00000000000E+00  0.00000000000E+00  0.45593999997E+02  0.45594000000E+02  0.51100000000E-03 0.  1.
         11   -1    0    0    0    0 -0.00000000000E+00 -0.00000000000E+00 -0.45593999997E+02  0.45594000000E+02  0.51100000000E-03 0. -1.
    9900012    2    1    2    0    0  0.28727013090E+01  0.24808788946E+02 -0.37488465601E+02  0.46142317911E+02  0.10000001364E+02 0.  0.
        -12    1    1    2    0    0 -0.28727013090E+01 -0.24808788946E+02  0.37488465601E+02  0.45045682089E+02  0.00000000000E+00 0.  1.
         11    1    3    3    0    0 -0.18163304679E+01  0.86821091098E+01 -0.12744753223E+02  0.15527614432E+02  0.51100000000E-03 0. -1.
        -11    1    3    3    0    0  0.51103873265E+01  0.14950066789E+02 -0.24752297642E+02  0.29364890506E+02  0.51100000000E-03 0.  1.
        -12    1    3    3    0    0 -0.42135554965E+00  0.11766130466E+01  0.85852634875E-02  0.12498129730E+01  0.00000000000E+00 0.  1.
</event>
<event>
 7    1  0.1563903E-008  0.4614232E+02  0.7816164E-02  0.1320468E+00
        -11   -1    0    0    0    0  0.00000000000E+00  0.00000000000E+00  0.45593999997E+02  0.45594000000E+02  0.51100000000E-03 0.  1.
         11   -1    0    0    0    0 -0.00000000000E+00 -0.00000000000E+00 -0.45593999997E+02  0.45594000000E+02  0.51100000000E-03 0. -1.
    9900012    2    1    2    0    0  0.35689848276E+02  0.16041342828E+02 -0.22316439357E+02  0.46142318573E+02  0.10000007403E+02 0.  0.
        -12    1    1    2    0    0 -0.35689848276E+02 -0.16041342828E+02  0.22316439357E+02  0.45045681427E+02  0.00000000000E+00 0.  1.
         11    1    3    3    0    0  0.16624072801E+02  0.11781287443E+02 -0.10999563626E+02  0.23154889992E+02  0.51100000000E-03 0. -1.
        -11    1    3    3    0    0  0.13150773008E+02  0.36223237423E+01 -0.56280465643E+01  0.14755980767E+02  0.51100000000E-03 0.  1.
        -12    1    3    3    0    0  0.59150024665E+01  0.63773164204E+00 -0.56888291665E+01  0.82314478138E+01  0.00000000000E+00 0.  1.
</event>
<event>
 7    1  0.1563903E-008  0.4614231E+02  0.7816164E-02  0.1320468E+00
        -11   -1    0    0    0    0  0.00000000000E+00  0.00000000000E+00  0.45593999997E+02  0.45594000000E+02  0.51100000000E-03 0. -1.
         11   -1    0    0    0    0 -0.00000000000E+00 -0.00000000000E+00 -0.45593999997E+02  0.45594000000E+02  0.51100000000E-03 0.  1.
    9900012    2    1    2    0    0 -0.19039412084E+02 -0.22304337846E+01  0.40763215106E+02  0.46142314822E+02  0.99999731997E+01 0.  0.
        -12    1    1    2    0    0  0.19039412084E+02  0.22304337846E+01 -0.40763215106E+02  0.45045685178E+02  0.00000000000E+00 0.  1.
         11    1    3    3    0    0 -0.55339742305E+01 -0.11748681568E+01  0.61391837148E+01  0.83483389315E+01  0.51100000000E-03 0.  1.
        -11    1    3    3    0    0 -0.55638335309E+00 -0.18943410140E+01  0.70156092111E+01  0.72881316657E+01  0.51100000000E-03 0. -1.
         12    1    3    3    0    0 -0.12949054500E+02  0.83877538617E+00  0.27608422180E+02  0.30505844225E+02  0.00000000000E+00 0. -1.
</event>
<event>
 7    1  0.1563903E-008  0.4614232E+02  0.7816164E-02  0.1320468E+00
        -11   -1    0    0    0    0  0.00000000000E+00  0.00000000000E+00  0.45593999997E+02  0.45594000000E+02  0.51100000000E-03 0. -1.
         11   -1    0    0    0    0 -0.00000000000E+00 -0.00000000000E+00 -0.45593999997E+02  0.45594000000E+02  0.51100000000E-03 0.  1.
    9900012    2    1    2    0    0  0.69435737346E+01 -0.33204381497E+02  0.29637294873E+02  0.46142318584E+02  0.10000007508E+02 0.  0.
        -12    1    1    2    0    0 -0.69435737346E+01  0.33204381497E+02 -0.29637294873E+02  0.45045681416E+02  0.00000000000E+00 0.  1.
         11    1    3    3    0    0  0.88197301735E+00 -0.48892290445E+01  0.22843462215E+01  0.54681509648E+01  0.51100000000E-03 0. -1.
        -11    1    3    3    0    0 -0.79262610523E+00 -0.99264047327E+01  0.57943204869E+01  0.11521107465E+02  0.51100000000E-03 0.  1.
        -12    1    3    3    0    0  0.68542268224E+01 -0.18388747720E+02  0.21558628164E+02  0.29153060154E+02  0.00000000000E+00 0.  1.
</event>
<event>
 7    1  0.1563903E-008  0.4614231E+02  0.7816164E-02  0.1320468E+00
        -11   -1    0    0    0    0  0.00000000000E+00  0.00000000000E+00  0.45593999997E+02  0.45594000000E+02  0.51100000000E-03 0. -1.
         11   -1    0    0    0    0 -0.00000000000E+00 -0.00000000000E+00 -0.45593999997E+02  0.45594000000E+02  0.51100000000E-03 0.  1.
    9900012    2    1    2    0    0  0.24967536866E+02  0.30947096160E+02  0.21166332374E+02  0.46142308929E+02  0.99999194628E+01 0.  0.
        -12    1    1    2    0    0 -0.24967536866E+02 -0.30947096160E+02 -0.21166332374E+02  0.45045691071E+02  0.00000000000E+00 0.  1.
         11    1    3    3    0    0  0.61059157944E+01  0.62615136003E+01  0.67811884283E+01  0.11066764523E+02  0.51100000000E-03 0. -1.
        -11    1    3    3    0    0  0.13488973416E+02  0.15128122886E+02  0.56052351744E+01  0.21029293081E+02  0.51100000000E-03 0.  1.
        -12    1    3    3    0    0  0.53726476557E+01  0.95574596739E+01  0.87799087713E+01  0.14046251325E+02  0.00000000000E+00 0.  1.
</event>
<event>
 7    1  0.1563903E-008  0.4614232E+02  0.7816164E-02  0.1320468E+00
        -11   -1    0    0    0    0  0.00000000000E+00  0.00000000000E+00  0.45593999997E+02  0.45594000000E+02  0.51100000000E-03 0. -1.
         11   -1    0    0    0    0 -0.00000000000E+00 -0.00000000000E+00 -0.45593999997E+02  0.45594000000E+02  0.51100000000E-03 0.  1.
    9900012    2    1    2    0    0 -0.54425310906E+01  0.48373780493E+00  0.44713065227E+02  0.46142319309E+02  0.10000014113E+02 0.  0.
        -12    1    1    2    0    0  0.54425310906E+01 -0.48373780493E+00 -0.44713065227E+02  0.45045680691E+02  0.00000000000E+00 0.  1.
         11    1    3    3    0    0 -0.53672388743E+01  0.27177813830E+01  0.22729345694E+02  0.23512055306E+02  0.51100000000E-03 0. -1.
        -11    1    3    3    0    0  0.23081026392E+01 -0.18119709839E+01  0.11174735179E+02  0.11553583133E+02  0.51100000000E-03 0.  1.
         12    1    3    3    0    0 -0.23833948555E+01 -0.42207259417E+00  0.10808984354E+02  0.11076680869E+02  0.00000000000E+00 0. -1.
</event>
<event>
 7    1  0.1563903E-008  0.4614232E+02  0.7816164E-02  0.1320468E+00
        -11   -1    0    0    0    0  0.00000000000E+00  0.00000000000E+00  0.45593999997E+02  0.45594000000E+02  0.51100000000E-03 0.  1.
         11   -1    0    0    0    0 -0.00000000000E+00 -0.00000000000E+00 -0.45593999997E+02  0.45594000000E+02  0.51100000000E-03 0. -1.
    9900012    2    1    2    0    0 -0.24631868953E+02  0.19518090919E+02 -0.32271174291E+02  0.46142317284E+02  0.99999956488E+01 0.  0.
        -12    1    1    2    0    0  0.24631868953E+02 -0.19518090919E+02  0.32271174291E+02  0.45045682716E+02  0.00000000000E+00 0.  1.
         11    1    3    3    0    0  0.53403205708E-01 -0.10015233727E+00 -0.28619776606E+01  0.28642274323E+01  0.51100000000E-03 0.  1.
        -11    1    3    3    0    0 -0.24600996321E+02  0.19747564378E+02 -0.29039075353E+02  0.42877070988E+02  0.51100000000E-03 0. -1.
         12    1    3    3    0    0 -0.84275838157E-01 -0.12932112212E+00 -0.37012127729E+00  0.40101886417E+00  0.00000000000E+00 0. -1.
</event>
<event>
 7    1  0.1563903E-008  0.4614232E+02  0.7816164E-02  0.1320468E+00
        -11   -1    0    0    0    0  0.00000000000E+00  0.00000000000E+00  0.45593999997E+02  0.45594000000E+02  0.51100000000E-03 0.  1.
         11   -1    0    0    0    0 -0.00000000000E+00 -0.00000000000E+00 -0.45593999997E+02  0.45594000000E+02  0.51100000000E-03 0. -1.
    9900012    2    1    2    0    0 -0.21504428808E+02 -0.39243705151E+02 -0.51579651740E+01  0.46142318108E+02  0.10000003163E+02 0.  0.
        -12    1    1    2    0    0  0.21504428808E+02  0.39243705151E+02  0.51579651740E+01  0.45045681892E+02  0.00000000000E+00 0.  1.
         11    1    3    3    0    0 -0.12721361877E+02 -0.14225035559E+02 -0.23232702282E+01  0.19224522608E+02  0.51100000000E-03 0. -1.
        -11    1    3    3    0    0 -0.51436269649E+01 -0.16199119498E+02 -0.35033183783E+01  0.17353432248E+02  0.51100000000E-03 0.  1.
         12    1    3    3    0    0 -0.36394399660E+01 -0.88195500941E+01  0.66862343252E+00  0.95643632523E+01  0.00000000000E+00 0. -1.
</event>
<event>
 7    1  0.1563903E-008  0.4614232E+02  0.7816164E-02  0.1320468E+00
        -11   -1    0    0    0    0  0.00000000000E+00  0.00000000000E+00  0.45593999997E+02  0.45594000000E+02  0.51100000000E-03 0.  1.
         11   -1    0    0    0    0 -0.00000000000E+00 -0.00000000000E+00 -0.45593999997E+02  0.45594000000E+02  0.51100000000E-03 0. -1.
    9900012    2    1    2    0    0 -0.12251878763E+02  0.64943522981E+01 -0.42858235798E+02  0.46142317402E+02  0.99999967278E+01 0.  0.
        -12    1    1    2    0    0  0.12251878763E+02 -0.64943522981E+01  0.42858235798E+02  0.45045682598E+02  0.00000000000E+00 0.  1.
         11    1    3    3    0    0 -0.29855376502E+01 -0.14998236485E+01 -0.14216466431E+02  0.14603794852E+02  0.51100000000E-03 0.  1.
        -11    1    3    3    0    0 -0.46246127349E+01  0.47919525405E+01 -0.21071177734E+02  0.22098515413E+02  0.51100000000E-03 0. -1.
         12    1    3    3    0    0 -0.46417283781E+01  0.32022234061E+01 -0.75705916323E+01  0.94400071367E+01  0.00000000000E+00 0. -1.
</event>
<event>
 7    1  0.1563903E-008  0.4614232E+02  0.7816164E-02  0.1320468E+00
        -11   -1    0    0    0    0  0.00000000000E+00  0.00000000000E+00  0.45593999997E+02  0.45594000000E+02  0.51100000000E-03 0.  1.
         11   -1    0    0    0    0 -0.00000000000E+00 -0.00000000000E+00 -0.45593999997E+02  0.45594000000E+02  0.51100000000E-03 0. -1.
    9900012    2    1    2    0    0  0.41029169280E+02  0.17404709246E+02 -0.65419329068E+01  0.46142317389E+02  0.99999966062E+01 0.  0.
        -12    1    1    2    0    0 -0.41029169280E+02 -0.17404709246E+02  0.65419329068E+01  0.45045682611E+02  0.00000000000E+00 0.  1.
         11    1    3    3    0    0  0.20963396105E+02  0.10125263506E+02 -0.43150841595E+01  0.23677096294E+02  0.51100000000E-03 0. -1.
        -11    1    3    3    0    0  0.45893162113E+01 -0.11074024106E+01  0.83173637198E-02  0.47210414980E+01  0.51100000000E-03 0.  1.
        -12    1    3    3    0    0  0.15476456964E+02  0.83868481498E+01 -0.22351661110E+01  0.17744179597E+02  0.00000000000E+00 0.  1.
</event>
<event>
 7    1  0.1563903E-008  0.4614232E+02  0.7816164E-02  0.1320468E+00
        -11   -1    0    0    0    0  0.00000000000E+00  0.00000000000E+00  0.45593999997E+02  0.45594000000E+02  0.51100000000E-03 0.  1.
         11   -1    0    0    0    0 -0.00000000000E+00 -0.00000000000E+00 -0.45593999997E+02  0.45594000000E+02  0.51100000000E-03 0. -1.
    9900012    2    1    2    0    0 -0.74068328806E+01  0.24690183344E+02 -0.36941130973E+02  0.46142317805E+02  0.10000000398E+02 0.  0.
        -12    1    1    2    0    0  0.74068328806E+01 -0.24690183344E+02  0.36941130973E+02  0.45045682195E+02  0.00000000000E+00 0.  1.
         11    1    3    3    0    0 -0.21855581109E+01  0.97163367812E+01 -0.19001074797E+02  0.21452848492E+02  0.51100000000E-03 0. -1.
        -11    1    3    3    0    0 -0.61809390869E+01  0.14660390907E+02 -0.16411103005E+02  0.22857282683E+02  0.51100000000E-03 0.  1.
         12    1    3    3    0    0  0.95966431722E+00  0.31345565608E+00 -0.15289531700E+01  0.18321866298E+01  0.00000000000E+00 0. -1.
</event>
<event>
 7    1  0.1563903E-008  0.4614232E+02  0.7816164E-02  0.1320468E+00
        -11   -1    0    0    0    0  0.00000000000E+00  0.00000000000E+00  0.45593999997E+02  0.45594000000E+02  0.51100000000E-03 0.  1.
         11   -1    0    0    0    0 -0.00000000000E+00 -0.00000000000E+00 -0.45593999997E+02  0.45594000000E+02  0.51100000000E-03 0. -1.
    9900012    2    1    2    0    0  0.61687574271E+01 -0.10911280231E+02 -0.43266660266E+02  0.46142317687E+02  0.99999993235E+01 0.  0.
        -12    1    1    2    0    0 -0.61687574271E+01  0.10911280231E+02  0.43266660266E+02  0.45045682313E+02  0.00000000000E+00 0.  1.
         11    1    3    3    0    0  0.13500128319E+01 -0.66845164441E+01 -0.13250853938E+02  0.14902698584E+02  0.51100000000E-03 0. -1.
        -11    1    3    3    0    0  0.11118263527E+01  0.12995043675E+01 -0.10039549400E+02  0.10184175070E+02  0.51100000000E-03 0.  1.
        -12    1    3    3    0    0  0.37069182425E+01 -0.55262681542E+01 -0.19976256928E+02  0.21055444033E+02  0.00000000000E+00 0.  1.
</event>
<event>
 7    1  0.1563903E-008  0.4614232E+02  0.7816164E-02  0.1320468E+00
        -11   -1    0    0    0    0  0.00000000000E+00  0.00000000000E+00  0.45593999997E+02  0.45594000000E+02  0.51100000000E-03 0.  1.
         11   -1    0    0    0    0 -0.00000000000E+00 -0.00000000000E+00 -0.45593999997E+02  0.45594000000E+02  0.51100000000E-03 0. -1.
    9900012    2    1    2    0    0 -0.19465485530E+01 -0.43420270681E+02 -0.11832351938E+02  0.46142317525E+02  0.99999978444E+01 0.  0.
        -12    1    1    2    0    0  0.19465485530E+01  0.43420270681E+02  0.11832351938E+02  0.45045682475E+02  0.00000000000E+00 0.  1.
         11    1    3    3    0    0 -0.88359831938E+00 -0.27542147261E+02 -0.75291954933E+01  0.28566403462E+02  0.51100000000E-03 0. -1.
        -11    1    3    3    0    0  0.20510825636E+01 -0.22957920612E+01 -0.11691068850E+01  0.32930854895E+01  0.51100000000E-03 0.  1.
        -12    1    3    3    0    0 -0.31140327972E+01 -0.13582331359E+02 -0.31340495601E+01  0.14282828573E+02  0.00000000000E+00 0.  1.
</event>
<event>
 7    1  0.1563903E-008  0.4614232E+02  0.7816164E-02  0.1320468E+00
        -11   -1    0    0    0    0  0.00000000000E+00  0.00000000000E+00  0.45593999997E+02  0.45594000000E+02  0.51100000000E-03 0.  1.
         11   -1    0    0    0    0 -0.00000000000E+00 -0.00000000000E+00 -0.45593999997E+02  0.45594000000E+02  0.51100000000E-03 0. -1.
    9900012    2    1    2    0    0  0.24084478594E+02 -0.30297142512E+02 -0.23046358426E+02  0.46142316631E+02  0.99999896947E+01 0.  0.
        -12    1    1    2    0    0 -0.24084478594E+02  0.30297142512E+02  0.23046358426E+02  0.45045683369E+02  0.00000000000E+00 0.  1.
         11    1    3    3    0    0  0.21935569730E+02 -0.21877753578E+02 -0.18602952047E+02  0.36136894528E+02  0.51100000000E-03 0. -1.
        -11    1    3    3    0    0  0.21681216629E+01 -0.84133618231E+01 -0.40055842802E+01  0.95671372102E+01  0.51100000000E-03 0.  1.
        -12    1    3    3    0    0 -0.19212799071E-01 -0.60271108995E-02 -0.43782209853E+00  0.43828489328E+00  0.00000000000E+00 0.  1.
</event>
<event>
 7    1  0.1563903E-008  0.4614232E+02  0.7816164E-02  0.1320468E+00
        -11   -1    0    0    0    0  0.00000000000E+00  0.00000000000E+00  0.45593999997E+02  0.45594000000E+02  0.51100000000E-03 0. -1.
         11   -1    0    0    0    0 -0.00000000000E+00 -0.00000000000E+00 -0.45593999997E+02  0.45594000000E+02  0.51100000000E-03 0.  1.
    9900012    2    1    2    0    0  0.71807829728E+01  0.18199596126E+02  0.40574920320E+02  0.46142322048E+02  0.10000039087E+02 0.  0.
        -12    1    1    2    0    0 -0.71807829728E+01 -0.18199596126E+02 -0.40574920320E+02  0.45045677952E+02  0.00000000000E+00 0.  1.
         11    1    3    3    0    0 -0.75160830129E+00  0.57673540431E+01  0.16392280906E+02  0.17393509170E+02  0.51100000000E-03 0. -1.
        -11    1    3    3    0    0  0.40277417353E+00  0.47828876217E+01  0.69326742493E+01  0.84320942562E+01  0.51100000000E-03 0.  1.
         12    1    3    3    0    0  0.75296171006E+01  0.76493544608E+01  0.17249965165E+02  0.20316718621E+02  0.00000000000E+00 0. -1.
</event>
<event>
 7    1  0.1563903E-008  0.4614232E+02  0.7816164E-02  0.1320468E+00
        -11   -1    0    0    0    0  0.00000000000E+00  0.00000000000E+00  0.45593999997E+02  0.45594000000E+02  0.51100000000E-03 0.  1.
         11   -1    0    0    0    0 -0.00000000000E+00 -0.00000000000E+00 -0.45593999997E+02  0.45594000000E+02  0.51100000000E-03 0. -1.
    9900012    2    1    2    0    0 -0.27999751165E+02 -0.35206607601E+02 -0.23711202107E+01  0.46142317686E+02  0.99999993149E+01 0.  0.
        -12    1    1    2    0    0  0.27999751165E+02  0.35206607601E+02  0.23711202107E+01  0.45045682314E+02  0.00000000000E+00 0.  1.
         11    1    3    3    0    0 -0.19932777635E+01 -0.19150429899E+01 -0.10985740367E+01  0.29744597948E+01  0.51100000000E-03 0. -1.
        -11    1    3    3    0    0 -0.83564853841E+01 -0.17752870761E+02 -0.10946095413E+01  0.19651804969E+02  0.51100000000E-03 0.  1.
        -12    1    3    3    0    0 -0.17649988018E+02 -0.15538693850E+02 -0.17793663270E+00  0.23516052922E+02  0.00000000000E+00 0.  1.
</event>
<event>
 7    1  0.1563903E-008  0.4614233E+02  0.7816164E-02  0.1320468E+00
        -11   -1    0    0    0    0  0.00000000000E+00  0.00000000000E+00  0.45593999997E+02  0.45594000000E+02  0.51100000000E-03 0. -1.
         11   -1    0    0    0    0 -0.00000000000E+00 -0.00000000000E+00 -0.45593999997E+02  0.45594000000E+02  0.51100000000E-03 0.  1.
    9900012    2    1    2    0    0  0.14120412251E+01 -0.24229467150E+02  0.37948011434E+02  0.46142328615E+02  0.10000098970E+02 0.  0.
        -12    1    1    2    0    0 -0.14120412251E+01  0.24229467150E+02 -0.37948011434E+02  0.45045671385E+02  0.00000000000E+00 0.  1.
         11    1    3    3    0    0  0.71445258894E+00 -0.46629643189E+01  0.49641035823E+01  0.68480656669E+01  0.51100000000E-03 0. -1.
        -11    1    3    3    0    0  0.36698360854E+01 -0.16258155429E+02  0.23403006827E+02  0.28731446946E+02  0.51100000000E-03 0.  1.
        -12    1    3    3    0    0 -0.29722474492E+01 -0.33083474028E+01  0.95809010244E+01  0.10562816001E+02  0.00000000000E+00 0.  1.
</event>
<event>
 7    1  0.1563903E-008  0.4614232E+02  0.7816164E-02  0.1320468E+00
        -11   -1    0    0    0    0  0.00000000000E+00  0.00000000000E+00  0.45593999997E+02  0.45594000000E+02  0.51100000000E-03 0.  1.
         11   -1    0    0    0    0 -0.00000000000E+00 -0.00000000000E+00 -0.45593999997E+02  0.45594000000E+02  0.51100000000E-03 0. -1.
    9900012    2    1    2    0    0 -0.15085359133E+02  0.31612347517E+02 -0.28323222330E+02  0.46142317645E+02  0.99999989398E+01 0.  0.
        -12    1    1    2    0    0  0.15085359133E+02 -0.31612347517E+02  0.28323222330E+02  0.45045682355E+02  0.00000000000E+00 0.  1.
         11    1    3    3    0    0 -0.37799969791E+01  0.10555402101E+02 -0.92503182157E+01  0.14535242620E+02  0.51100000000E-03 0. -1.
        -11    1    3    3    0    0 -0.11766231698E+02  0.16485833121E+02 -0.17450464244E+02  0.26734726568E+02  0.51100000000E-03 0.  1.
        -12    1    3    3    0    0  0.46086954421E+00  0.45711122953E+01 -0.16224398696E+01  0.48723484567E+01  0.00000000000E+00 0.  1.
</event>
<event>
 7    1  0.1563903E-008  0.4614232E+02  0.7816164E-02  0.1320468E+00
        -11   -1    0    0    0    0  0.00000000000E+00  0.00000000000E+00  0.45593999997E+02  0.45594000000E+02  0.51100000000E-03 0.  1.
         11   -1    0    0    0    0 -0.00000000000E+00 -0.00000000000E+00 -0.45593999997E+02  0.45594000000E+02  0.51100000000E-03 0. -1.
    9900012    2    1    2    0    0  0.66562816529E+01 -0.79859660469E+01 -0.43829575831E+02  0.46142318113E+02  0.10000003208E+02 0.  0.
        -12    1    1    2    0    0 -0.66562816529E+01  0.79859660469E+01  0.43829575831E+02  0.45045681887E+02  0.00000000000E+00 0.  1.
         11    1    3    3    0    0  0.49077166527E+01 -0.25998752166E+01 -0.87873857679E+01  0.10395344284E+02  0.51100000000E-03 0.  1.
        -11    1    3    3    0    0  0.23421773200E+01 -0.41253562258E+01 -0.32530880047E+02  0.32874952707E+02  0.51100000000E-03 0. -1.
         12    1    3    3    0    0 -0.59361231981E+00 -0.12607346044E+01 -0.25113100160E+01  0.28720211221E+01  0.00000000000E+00 0. -1.
</event>
<event>
 7    1  0.1563903E-008  0.4614232E+02  0.7816164E-02  0.1320468E+00
        -11   -1    0    0    0    0  0.00000000000E+00  0.00000000000E+00  0.45593999997E+02  0.45594000000E+02  0.51100000000E-03 0.  1.
         11   -1    0    0    0    0 -0.00000000000E+00 -0.00000000000E+00 -0.45593999997E+02  0.45594000000E+02  0.51100000000E-03 0. -1.
    9900012    2    1    2    0    0 -0.27017472569E+01 -0.25767961178E+02 -0.36848693913E+02  0.46142317581E+02  0.99999983599E+01 0.  0.
        -12    1    1    2    0    0  0.27017472569E+01  0.25767961178E+02  0.36848693913E+02  0.45045682419E+02  0.00000000000E+00 0.  1.
         11    1    3    3    0    0 -0.38999166264E+01 -0.17962494799E+02 -0.22612071499E+02  0.29140458933E+02  0.51100000000E-03 0. -1.
        -11    1    3    3    0    0  0.10539220107E+01 -0.29918633229E+01 -0.10313787694E+02  0.10790561367E+02  0.51100000000E-03 0.  1.
        -12    1    3    3    0    0  0.14424735883E+00 -0.48136030565E+01 -0.39228347196E+01  0.62112972818E+01  0.00000000000E+00 0.  1.
</event>
<event>
 7    1  0.1563903E-008  0.4614232E+02  0.7816164E-02  0.1320468E+00
        -11   -1    0    0    0    0  0.00000000000E+00  0.00000000000E+00  0.45593999997E+02  0.45594000000E+02  0.51100000000E-03 0.  1.
         11   -1    0    0    0    0 -0.00000000000E+00 -0.00000000000E+00 -0.45593999997E+02  0.45594000000E+02  0.51100000000E-03 0. -1.
    9900012    2    1    2    0    0  0.15297943578E+02  0.38164357280E+02 -0.18400222502E+02  0.46142318382E+02  0.10000005660E+02 0.  0.
        -12    1    1    2    0    0 -0.15297943578E+02 -0.38164357280E+02  0.18400222502E+02  0.45045681618E+02  0.00000000000E+00 0.  1.
         11    1    3    3    0    0  0.39621871149E+00  0.67056530716E+00 -0.17339923662E+01  0.19008884464E+01  0.51100000000E-03 0.  1.
        -11    1    3    3    0    0  0.99129888621E+01  0.31975587399E+02 -0.14590297099E+02  0.36518246225E+02  0.51100000000E-03 0. -1.
         12    1    3    3    0    0  0.49887360047E+01  0.55182045738E+01 -0.20759330374E+01  0.77231837100E+01  0.00000000000E+00 0. -1.
</event>
<event>
 7    1  0.1563903E-008  0.4614232E+02  0.7816164E-02  0.1320468E+00
        -11   -1    0    0    0    0  0.00000000000E+00  0.00000000000E+00  0.45593999997E+02  0.45594000000E+02  0.51100000000E-03 0. -1.
         11   -1    0    0    0    0 -0.00000000000E+00 -0.00000000000E+00 -0.45593999997E+02  0.45594000000E+02  0.51100000000E-03 0.  1.
    9900012    2    1    2    0    0  0.96342627461E+01 -0.87203395806E+01  0.43130618892E+02  0.46142316221E+02  0.99999859604E+01 0.  0.
        -12    1    1    2    0    0 -0.96342627461E+01  0.87203395806E+01 -0.43130618892E+02  0.45045683779E+02  0.00000000000E+00 0.  1.
         11    1    3    3    0    0 -0.87625928413E+00 -0.26184790598E+01  0.26321075191E+01  0.38147415604E+01  0.51100000000E-03 0.  1.
        -11    1    3    3    0    0  0.53453971093E+01 -0.40780351447E+01  0.23820388305E+02  0.24751051294E+02  0.51100000000E-03 0. -1.
        -12    1    3    3    0    0  0.51651249209E+01 -0.20238253762E+01  0.16678123068E+02  0.17576523367E+02  0.00000000000E+00 0.  1.
</event>
<event>
 7    1  0.1563903E-008  0.4614232E+02  0.7816164E-02  0.1320468E+00
        -11   -1    0    0    0    0  0.00000000000E+00  0.00000000000E+00  0.45593999997E+02  0.45594000000E+02  0.51100000000E-03 0.  1.
         11   -1    0    0    0    0 -0.00000000000E+00 -0.00000000000E+00 -0.45593999997E+02  0.45594000000E+02  0.51100000000E-03 0. -1.
    9900012    2    1    2    0    0 -0.11137252219E+02  0.32872359182E+02 -0.28713817810E+02  0.46142315208E+02  0.99999767157E+01 0.  0.
        -12    1    1    2    0    0  0.11137252219E+02 -0.32872359182E+02  0.28713817810E+02  0.45045684792E+02  0.00000000000E+00 0.  1.
         11    1    3    3    0    0 -0.11037878287E+02  0.22091657605E+02 -0.19496238192E+02  0.31463938035E+02  0.51100000000E-03 0. -1.
        -11    1    3    3    0    0  0.16576639941E+01  0.39787734407E+01 -0.26397341422E+01  0.50543728208E+01  0.51100000000E-03 0.  1.
        -12    1    3    3    0    0 -0.17570379264E+01  0.68019281363E+01 -0.65778454765E+01  0.96240043516E+01  0.00000000000E+00 0.  1.
</event>
<event>
 7    1  0.1563903E-008  0.4614232E+02  0.7816164E-02  0.1320468E+00
        -11   -1    0    0    0    0  0.00000000000E+00  0.00000000000E+00  0.45593999997E+02  0.45594000000E+02  0.51100000000E-03 0.  1.
         11   -1    0    0    0    0 -0.00000000000E+00 -0.00000000000E+00 -0.45593999997E+02  0.45594000000E+02  0.51100000000E-03 0. -1.
    9900012    2    1    2    0    0  0.27468504922E+02  0.22917577842E+02 -0.27374795081E+02  0.46142317160E+02  0.99999945166E+01 0.  0.
        -12    1    1    2    0    0 -0.27468504922E+02 -0.22917577842E+02  0.27374795081E+02  0.45045682840E+02  0.00000000000E+00 0.  1.
         11    1    3    3    0    0  0.24219628928E+02  0.17662903937E+02 -0.18760011311E+02  0.35362503101E+02  0.51100000000E-03 0. -1.
        -11    1    3    3    0    0  0.35199042062E+01  0.48648376889E+01 -0.79490845630E+01  0.99621441975E+01  0.51100000000E-03 0.  1.
         12    1    3    3    0    0 -0.27102821267E+00  0.38983621599E+00 -0.66569920710E+00  0.81766986106E+00  0.00000000000E+00 0. -1.
</event>
<event>
 7    1  0.1563903E-008  0.4614232E+02  0.7816164E-02  0.1320468E+00
        -11   -1    0    0    0    0  0.00000000000E+00  0.00000000000E+00  0.45593999997E+02  0.45594000000E+02  0.51100000000E-03 0.  1.
         11   -1    0    0    0    0 -0.00000000000E+00 -0.00000000000E+00 -0.45593999997E+02  0.45594000000E+02  0.51100000000E-03 0. -1.
    9900012    2    1    2    0    0 -0.68146609738E+00  0.45277704607E+01 -0.44812368801E+02  0.46142317643E+02  0.99999989269E+01 0.  0.
        -12    1    1    2    0    0  0.68146609738E+00 -0.45277704607E+01  0.44812368801E+02  0.45045682357E+02  0.00000000000E+00 0.  1.
         11    1    3    3    0    0  0.15862357919E+01  0.30113067499E+01 -0.19601717337E+02  0.19895010308E+02  0.51100000000E-03 0. -1.
        -11    1    3    3    0    0 -0.57185424591E+00 -0.13782905287E+01 -0.97942221925E+00  0.17849286274E+01  0.51100000000E-03 0.  1.
        -12    1    3    3    0    0 -0.16958476434E+01  0.28947542395E+01 -0.24231229245E+02  0.24462378708E+02  0.00000000000E+00 0.  1.
</event>
<event>
 7    1  0.1563903E-008  0.4614232E+02  0.7816164E-02  0.1320468E+00
        -11   -1    0    0    0    0  0.00000000000E+00  0.00000000000E+00  0.45593999997E+02  0.45594000000E+02  0.51100000000E-03 0.  1.
         11   -1    0    0    0    0 -0.00000000000E+00 -0.00000000000E+00 -0.45593999997E+02  0.45594000000E+02  0.51100000000E-03 0. -1.
    9900012    2    1    2    0    0 -0.49237185207E+01  0.38937379835E+02 -0.22107709917E+02  0.46142318850E+02  0.10000009930E+02 0.  0.
        -12    1    1    2    0    0  0.49237185207E+01 -0.38937379835E+02  0.22107709917E+02  0.45045681150E+02  0.00000000000E+00 0.  1.
         11    1    3    3    0    0 -0.84347658041E+00  0.24672957688E+02 -0.89872380474E+01  0.26272356990E+02  0.51100000000E-03 0. -1.
        -11    1    3    3    0    0 -0.16275079253E+01  0.34853690825E+01 -0.38556821598E+01  0.54463625354E+01  0.51100000000E-03 0.  1.
         12    1    3    3    0    0 -0.24527340149E+01  0.10779053064E+02 -0.92647897102E+01  0.14423599325E+02  0.00000000000E+00 0. -1.
</event>
<event>
 7    1  0.1563903E-008  0.4614232E+02  0.7816164E-02  0.1320468E+00
        -11   -1    0    0    0    0  0.00000000000E+00  0.00000000000E+00  0.45593999997E+02  0.45594000000E+02  0.51100000000E-03 0.  1.
         11   -1    0    0    0    0 -0.00000000000E+00 -0.00000000000E+00 -0.45593999997E+02  0.45594000000E+02  0.51100000000E-03 0. -1.
    9900012    2    1    2    0    0  0.23164822120E+02  0.22986264233E+01 -0.38564502068E+02  0.46142317776E+02  0.10000000137E+02 0.  0.
        -12    1    1    2    0    0 -0.23164822120E+02 -0.22986264233E+01  0.38564502068E+02  0.45045682224E+02  0.00000000000E+00 0.  1.
         11    1    3    3    0    0  0.80292102419E+01 -0.14993757404E+00 -0.18736601007E+02  0.20385066003E+02  0.51100000000E-03 0. -1.
        -11    1    3    3    0    0  0.23991882345E+01  0.12704850754E+01 -0.75662217880E+01  0.80385290270E+01  0.51100000000E-03 0.  1.
        -12    1    3    3    0    0  0.12736423644E+02  0.11780789220E+01 -0.12261679273E+02  0.17718722747E+02  0.00000000000E+00 0.  1.
</event>
<event>
 7    1  0.1563903E-008  0.4614232E+02  0.7816164E-02  0.1320468E+00
        -11   -1    0    0    0    0  0.00000000000E+00  0.00000000000E+00  0.45593999997E+02  0.45594000000E+02  0.51100000000E-03 0.  1.
         11   -1    0    0    0    0 -0.00000000000E+00 -0.00000000000E+00 -0.45593999997E+02  0.45594000000E+02  0.51100000000E-03 0. -1.
    9900012    2    1    2    0    0  0.27038940814E+02  0.26383584146E+02 -0.24533972207E+02  0.46142316245E+02  0.99999861724E+01 0.  0.
        -12    1    1    2    0    0 -0.27038940814E+02 -0.26383584146E+02  0.24533972207E+02  0.45045683755E+02  0.00000000000E+00 0.  1.
         11    1    3    3    0    0  0.25573004570E+02  0.21752904821E+02 -0.23320808725E+02  0.40878203859E+02  0.51100000000E-03 0. -1.
        -11    1    3    3    0    0  0.34790037904E+00  0.16355065467E+01  0.34540273348E+00  0.17074014313E+01  0.51100000000E-03 0.  1.
         12    1    3    3    0    0  0.11180358654E+01  0.29951727781E+01 -0.15585662149E+01  0.35567109544E+01  0.00000000000E+00 0. -1.
</event>
<event>
 7    1  0.1563903E-008  0.4614232E+02  0.7816164E-02  0.1320468E+00
        -11   -1    0    0    0    0  0.00000000000E+00  0.00000000000E+00  0.45593999997E+02  0.45594000000E+02  0.51100000000E-03 0.  1.
         11   -1    0    0    0    0 -0.00000000000E+00 -0.00000000000E+00 -0.45593999997E+02  0.45594000000E+02  0.51100000000E-03 0. -1.
    9900012    2    1    2    0    0 -0.30076563629E+02  0.19414305182E+02 -0.27342249672E+02  0.46142317160E+02  0.99999945147E+01 0.  0.
        -12    1    1    2    0    0  0.30076563629E+02 -0.19414305182E+02  0.27342249672E+02  0.45045682840E+02  0.00000000000E+00 0.  1.
         11    1    3    3    0    0 -0.19823360181E+02  0.17079232110E+02 -0.19210108360E+02  0.32460653748E+02  0.51100000000E-03 0. -1.
        -11    1    3    3    0    0 -0.63345031779E+01  0.46269208268E-01 -0.57554977392E+01  0.85588448892E+01  0.51100000000E-03 0.  1.
        -12    1    3    3    0    0 -0.39187002700E+01  0.22888038642E+01 -0.23766435731E+01  0.51228185220E+01  0.00000000000E+00 0.  1.
</event>
<event>
 7    1  0.1563903E-008  0.4614232E+02  0.7816164E-02  0.1320468E+00
        -11   -1    0    0    0    0  0.00000000000E+00  0.00000000000E+00  0.45593999997E+02  0.45594000000E+02  0.51100000000E-03 0.  1.
         11   -1    0    0    0    0 -0.00000000000E+00 -0.00000000000E+00 -0.45593999997E+02  0.45594000000E+02  0.51100000000E-03 0. -1.
    9900012    2    1    2    0    0  0.23561995769E+02 -0.36490273457E+02 -0.11933391478E+02  0.46142317258E+02  0.99999954085E+01 0.  0.
        -12    1    1    2    0    0 -0.23561995769E+02  0.36490273457E+02  0.11933391478E+02  0.45045682742E+02  0.00000000000E+00 0.  1.
         11    1    3    3    0    0  0.93924054035E+01 -0.17520820388E+02 -0.38642650252E+01  0.20251641187E+02  0.51100000000E-03 0. -1.
        -11    1    3    3    0    0  0.79176057160E+01 -0.12674874601E+02 -0.81419089016E+01  0.17018566545E+02  0.51100000000E-03 0.  1.
        -12    1    3    3    0    0  0.62519846492E+01 -0.62945784684E+01  0.72782449211E-01  0.88721095255E+01  0.00000000000E+00 0.  1.
</event>
<event>
 7    1  0.1563903E-008  0.4614232E+02  0.7816164E-02  0.1320468E+00
        -11   -1    0    0    0    0  0.00000000000E+00  0.00000000000E+00  0.45593999997E+02  0.45594000000E+02  0.51100000000E-03 0. -1.
         11   -1    0    0    0    0 -0.00000000000E+00 -0.00000000000E+00 -0.45593999997E+02  0.45594000000E+02  0.51100000000E-03 0.  1.
    9900012    2    1    2    0    0  0.25362828914E+02 -0.34945646609E+02 -0.12831297625E+02  0.46142317563E+02  0.99999981939E+01 0.  0.
        -12    1    1    2    0    0 -0.25362828914E+02  0.34945646609E+02  0.12831297625E+02  0.45045682437E+02  0.00000000000E+00 0.  1.
         11    1    3    3    0    0  0.14699051869E+02 -0.19195091197E+02 -0.25671667864E+01  0.24312630410E+02  0.51100000000E-03 0. -1.
        -11    1    3    3    0    0  0.32921277321E+01 -0.73417677884E+01 -0.49696572369E+01  0.94571217913E+01  0.51100000000E-03 0.  1.
         12    1    3    3    0    0  0.73716493131E+01 -0.84087876242E+01 -0.52944736016E+01  0.12372565361E+02  0.00000000000E+00 0. -1.
</event>
<event>
 7    1  0.1563903E-008  0.4614232E+02  0.7816164E-02  0.1320468E+00
        -11   -1    0    0    0    0  0.00000000000E+00  0.00000000000E+00  0.45593999997E+02  0.45594000000E+02  0.51100000000E-03 0.  1.
         11   -1    0    0    0    0 -0.00000000000E+00 -0.00000000000E+00 -0.45593999997E+02  0.45594000000E+02  0.51100000000E-03 0. -1.
    9900012    2    1    2    0    0 -0.29893471100E+02 -0.68225073442E+01 -0.32999201033E+02  0.46142317746E+02  0.99999998633E+01 0.  0.
        -12    1    1    2    0    0  0.29893471100E+02  0.68225073442E+01  0.32999201033E+02  0.45045682254E+02  0.00000000000E+00 0.  1.
         11    1    3    3    0    0 -0.29636889374E+01 -0.36516987025E+01 -0.25447669835E+01  0.53473539992E+01  0.51100000000E-03 0.  1.
        -11    1    3    3    0    0 -0.14572598597E+02 -0.19165327453E+01 -0.17367027267E+02  0.22751865066E+02  0.51100000000E-03 0. -1.
        -12    1    3    3    0    0 -0.12357183566E+02 -0.12542758964E+01 -0.13087406782E+02  0.18043098681E+02  0.00000000000E+00 0.  1.
</event>
<event>
 7    1  0.1563903E-008  0.4614232E+02  0.7816164E-02  0.1320468E+00
        -11   -1    0    0    0    0  0.00000000000E+00  0.00000000000E+00  0.45593999997E+02  0.45594000000E+02  0.51100000000E-03 0. -1.
         11   -1    0    0    0    0 -0.00000000000E+00 -0.00000000000E+00 -0.45593999997E+02  0.45594000000E+02  0.51100000000E-03 0.  1.
    9900012    2    1    2    0    0  0.12716904198E+02 -0.43204819841E+02  0.85880473459E+00  0.46142315907E+02  0.99999830911E+01 0.  0.
        -12    1    1    2    0    0 -0.12716904198E+02  0.43204819841E+02 -0.85880473459E+00  0.45045684093E+02  0.00000000000E+00 0.  1.
         11    1    3    3    0    0  0.37389917945E+01 -0.25205807037E+02  0.13199928510E+01  0.25515782359E+02  0.51100000000E-03 0. -1.
        -11    1    3    3    0    0  0.68900042869E+01 -0.12231250081E+02 -0.22939360896E+01  0.14224548522E+02  0.51100000000E-03 0.  1.
         12    1    3    3    0    0  0.20879081170E+01 -0.57677627229E+01  0.18327479732E+01  0.64019850255E+01  0.00000000000E+00 0. -1.
</event>
<event>
 7    1  0.1563903E-008  0.4614232E+02  0.7816164E-02  0.1320468E+00
        -11   -1    0    0    0    0  0.00000000000E+00  0.00000000000E+00  0.45593999997E+02  0.45594000000E+02  0.51100000000E-03 0.  1.
         11   -1    0    0    0    0 -0.00000000000E+00 -0.00000000000E+00 -0.45593999997E+02  0.45594000000E+02  0.51100000000E-03 0. -1.
    9900012    2    1    2    0    0 -0.43270652518E+02  0.11930189199E+02 -0.37993033304E+01  0.46142317749E+02  0.99999998872E+01 0.  0.
        -12    1    1    2    0    0  0.43270652518E+02 -0.11930189199E+02  0.37993033304E+01  0.45045682251E+02  0.00000000000E+00 0.  1.
         11    1    3    3    0    0 -0.10232356267E+02  0.55123483257E+01 -0.39541860664E+01  0.12276916818E+02  0.51100000000E-03 0. -1.
        -11    1    3    3    0    0 -0.29836009855E+02  0.68736921754E+01 -0.13508424553E+00  0.30617860412E+02  0.51100000000E-03 0.  1.
         12    1    3    3    0    0 -0.32022863958E+01 -0.45585130201E+00  0.28996698156E+00  0.32475405188E+01  0.00000000000E+00 0. -1.
</event>
<event>
 7    1  0.1563903E-008  0.4614232E+02  0.7816164E-02  0.1320468E+00
        -11   -1    0    0    0    0  0.00000000000E+00  0.00000000000E+00  0.45593999997E+02  0.45594000000E+02  0.51100000000E-03 0.  1.
         11   -1    0    0    0    0 -0.00000000000E+00 -0.00000000000E+00 -0.45593999997E+02  0.45594000000E+02  0.51100000000E-03 0. -1.
    9900012    2    1    2    0    0 -0.15126473970E+02  0.81782780102E+01 -0.41634349348E+02  0.46142317725E+02  0.99999996721E+01 0.  0.
        -12    1    1    2    0    0  0.15126473970E+02 -0.81782780102E+01  0.41634349348E+02  0.45045682275E+02  0.00000000000E+00 0.  1.
         11    1    3    3    0    0 -0.13287407986E+02  0.36922824059E+01 -0.35814437341E+02  0.38377885333E+02  0.51100000000E-03 0. -1.
        -11    1    3    3    0    0 -0.18902905742E+00  0.11709287673E+01 -0.51059223530E+00  0.12913213599E+01  0.51100000000E-03 0.  1.
         12    1    3    3    0    0 -0.16500369265E+01  0.33150668371E+01 -0.53093197718E+01  0.64731110320E+01  0.00000000000E+00 0. -1.
</event>
<event>
 7    1  0.1563903E-008  0.4614232E+02  0.7816164E-02  0.1320468E+00
        -11   -1    0    0    0    0  0.00000000000E+00  0.00000000000E+00  0.45593999997E+02  0.45594000000E+02  0.51100000000E-03 0. -1.
         11   -1    0    0    0    0 -0.00000000000E+00 -0.00000000000E+00 -0.45593999997E+02  0.45594000000E+02  0.51100000000E-03 0.  1.
    9900012    2    1    2    0    0 -0.49026388505E+01  0.18832575431E+02  0.40625260040E+02  0.46142317428E+02  0.99999969582E+01 0.  0.
        -12    1    1    2    0    0  0.49026388505E+01 -0.18832575431E+02 -0.40625260040E+02  0.45045682572E+02  0.00000000000E+00 0.  1.
         11    1    3    3    0    0 -0.79775416209E+00  0.11563986242E+02  0.19646330306E+02  0.22810972892E+02  0.51100000000E-03 0. -1.
        -11    1    3    3    0    0 -0.29897590344E+00  0.43360134309E+01  0.15235002688E+02  0.15842844007E+02  0.51100000000E-03 0.  1.
        -12    1    3    3    0    0 -0.38059087850E+01  0.29325757580E+01  0.57439270464E+01  0.74885005289E+01  0.00000000000E+00 0.  1.
</event>
<event>
 7    1  0.1563903E-008  0.4614232E+02  0.7816164E-02  0.1320468E+00
        -11   -1    0    0    0    0  0.00000000000E+00  0.00000000000E+00  0.45593999997E+02  0.45594000000E+02  0.51100000000E-03 0.  1.
         11   -1    0    0    0    0 -0.00000000000E+00 -0.00000000000E+00 -0.45593999997E+02  0.45594000000E+02  0.51100000000E-03 0. -1.
    9900012    2    1    2    0    0  0.44492281069E+02  0.43899792784E+01  0.55025837124E+01  0.46142318516E+02  0.10000006888E+02 0.  0.
        -12    1    1    2    0    0 -0.44492281069E+02 -0.43899792784E+01 -0.55025837124E+01  0.45045681484E+02  0.00000000000E+00 0.  1.
         11    1    3    3    0    0  0.28269608950E+02  0.18965639994E+01  0.62341405743E+01  0.29010898886E+02  0.51100000000E-03 0. -1.
        -11    1    3    3    0    0  0.66879554198E+01  0.22954891446E+01 -0.23646288944E+01  0.74558358472E+01  0.51100000000E-03 0.  1.
        -12    1    3    3    0    0  0.95347166994E+01  0.19792613431E+00  0.16330720326E+01  0.96755837837E+01  0.00000000000E+00 0.  1.
</event>
<event>
 7    1  0.1563903E-008  0.4614231E+02  0.7816164E-02  0.1320468E+00
        -11   -1    0    0    0    0  0.00000000000E+00  0.00000000000E+00  0.45593999997E+02  0.45594000000E+02  0.51100000000E-03 0.  1.
         11   -1    0    0    0    0 -0.00000000000E+00 -0.00000000000E+00 -0.45593999997E+02  0.45594000000E+02  0.51100000000E-03 0. -1.
    9900012    2    1    2    0    0 -0.24976952991E+02 -0.17585329455E+02 -0.33106227079E+02  0.46142309150E+02  0.99999214745E+01 0.  0.
        -12    1    1    2    0    0  0.24976952991E+02  0.17585329455E+02  0.33106227079E+02  0.45045690850E+02  0.00000000000E+00 0.  1.
         11    1    3    3    0    0 -0.23153502004E+02 -0.18627466524E+02 -0.29661981644E+02  0.41986906524E+02  0.51100000000E-03 0. -1.
        -11    1    3    3    0    0 -0.18488067964E+01  0.11529033900E+01 -0.30721842757E+01  0.37663761472E+01  0.51100000000E-03 0.  1.
         12    1    3    3    0    0  0.25355808798E-01 -0.11076632157E+00 -0.37206115910E+00  0.38902647872E+00  0.00000000000E+00 0. -1.
</event>
<event>
 7    1  0.1563903E-008  0.4614232E+02  0.7816164E-02  0.1320468E+00
        -11   -1    0    0    0    0  0.00000000000E+00  0.00000000000E+00  0.45593999997E+02  0.45594000000E+02  0.51100000000E-03 0. -1.
         11   -1    0    0    0    0 -0.00000000000E+00 -0.00000000000E+00 -0.45593999997E+02  0.45594000000E+02  0.51100000000E-03 0.  1.
    9900012    2    1    2    0    0 -0.80895577636E+01 -0.41107098200E+02  0.16549296119E+02  0.46142315754E+02  0.99999816936E+01 0.  0.
        -12    1    1    2    0    0  0.80895577636E+01  0.41107098200E+02 -0.16549296119E+02  0.45045684246E+02  0.00000000000E+00 0.  1.
         11    1    3    3    0    0 -0.87352765709E+01 -0.28648410732E+02  0.12192075444E+02  0.32337025190E+02  0.51100000000E-03 0. -1.
        -11    1    3    3    0    0  0.22355569839E+01 -0.89862124281E+01  0.34324731457E+01  0.98758088777E+01  0.51100000000E-03 0.  1.
        -12    1    3    3    0    0 -0.15898381766E+01 -0.34724750399E+01  0.92474752906E+00  0.39294816863E+01  0.00000000000E+00 0.  1.
</event>
<event>
 7    1  0.1563903E-008  0.4614232E+02  0.7816164E-02  0.1320468E+00
        -11   -1    0    0    0    0  0.00000000000E+00  0.00000000000E+00  0.45593999997E+02  0.45594000000E+02  0.51100000000E-03 0. -1.
         11   -1    0    0    0    0 -0.00000000000E+00 -0.00000000000E+00 -0.45593999997E+02  0.45594000000E+02  0.51100000000E-03 0.  1.
    9900012    2    1    2    0    0  0.39771467160E+02 -0.16776999834E+02 -0.12879291001E+02  0.46142318074E+02  0.10000002851E+02 0.  0.
        -12    1    1    2    0    0 -0.39771467160E+02  0.16776999834E+02  0.12879291001E+02  0.45045681926E+02  0.00000000000E+00 0.  1.
         11    1    3    3    0    0  0.14472734988E+02 -0.11169587510E+02 -0.57311702995E+01  0.19158968042E+02  0.51100000000E-03 0. -1.
        -11    1    3    3    0    0  0.67147925897E+01 -0.69471331264E+00 -0.25706582870E+01  0.72235275592E+01  0.51100000000E-03 0.  1.
         12    1    3    3    0    0  0.18583939583E+02 -0.49126990111E+01 -0.45774624148E+01  0.19759822472E+02  0.00000000000E+00 0. -1.
</event>
<event>
 7    1  0.1563903E-008  0.4614232E+02  0.7816164E-02  0.1320468E+00
        -11   -1    0    0    0    0  0.00000000000E+00  0.00000000000E+00  0.45593999997E+02  0.45594000000E+02  0.51100000000E-03 0.  1.
         11   -1    0    0    0    0 -0.00000000000E+00 -0.00000000000E+00 -0.45593999997E+02  0.45594000000E+02  0.51100000000E-03 0. -1.
    9900012    2    1    2    0    0 -0.28124270492E+02  0.23607783998E+02 -0.26092362365E+02  0.46142318411E+02  0.10000005927E+02 0.  0.
        -12    1    1    2    0    0  0.28124270492E+02 -0.23607783998E+02  0.26092362365E+02  0.45045681589E+02  0.00000000000E+00 0.  1.
         11    1    3    3    0    0 -0.15021674326E+02  0.16673694025E+02 -0.15891482406E+02  0.27499126991E+02  0.51100000000E-03 0. -1.
        -11    1    3    3    0    0 -0.61826931994E+01  0.19629065671E+01 -0.19280661319E+01  0.67672842898E+01  0.51100000000E-03 0.  1.
        -12    1    3    3    0    0 -0.69199029674E+01  0.49711834058E+01 -0.82728138275E+01  0.11875907130E+02  0.00000000000E+00 0.  1.
</event>
<event>
 7    1  0.1563903E-008  0.4614232E+02  0.7816164E-02  0.1320468E+00
        -11   -1    0    0    0    0  0.00000000000E+00  0.00000000000E+00  0.45593999997E+02  0.45594000000E+02  0.51100000000E-03 0.  1.
         11   -1    0    0    0    0 -0.00000000000E+00 -0.00000000000E+00 -0.45593999997E+02  0.45594000000E+02  0.51100000000E-03 0. -1.
    9900012    2    1    2    0    0 -0.27217820441E+02  0.35065918228E+02 -0.76606278232E+01  0.46142316640E+02  0.99999897742E+01 0.  0.
        -12    1    1    2    0    0  0.27217820441E+02 -0.35065918228E+02  0.76606278232E+01  0.45045683360E+02  0.00000000000E+00 0.  1.
         11    1    3    3    0    0 -0.63737727839E+01  0.69081659078E+01 -0.28170164183E+01  0.98124063039E+01  0.51100000000E-03 0. -1.
        -11    1    3    3    0    0 -0.17114966637E+02  0.16529217988E+02 -0.32435921872E+01  0.24013704854E+02  0.51100000000E-03 0.  1.
        -12    1    3    3    0    0 -0.37290810205E+01  0.11628534332E+02 -0.16000192176E+01  0.12316205482E+02  0.00000000000E+00 0.  1.
</event>
<event>
 7    1  0.1563903E-008  0.4614232E+02  0.7816164E-02  0.1320468E+00
        -11   -1    0    0    0    0  0.00000000000E+00  0.00000000000E+00  0.45593999997E+02  0.45594000000E+02  0.51100000000E-03 0.  1.
         11   -1    0    0    0    0 -0.00000000000E+00 -0.00000000000E+00 -0.45593999997E+02  0.45594000000E+02  0.51100000000E-03 0. -1.
    9900012    2    1    2    0    0 -0.19935899773E+02 -0.25253755525E+02 -0.31526516539E+02  0.46142317489E+02  0.99999975158E+01 0.  0.
        -12    1    1    2    0    0  0.19935899773E+02  0.25253755525E+02  0.31526516539E+02  0.45045682511E+02  0.00000000000E+00 0.  1.
         11    1    3    3    0    0 -0.11351779417E+02 -0.79317770800E+01 -0.14983399682E+02  0.20402898075E+02  0.51100000000E-03 0. -1.
        -11    1    3    3    0    0 -0.47707802303E+00 -0.86242652026E+00  0.69799584513E-01  0.98805626663E+00  0.51100000000E-03 0.  1.
         12    1    3    3    0    0 -0.81070423324E+01 -0.16459551925E+02 -0.16612916441E+02  0.24751363147E+02  0.00000000000E+00 0. -1.
</event>
<event>
 7    1  0.1563903E-008  0.4614232E+02  0.7816164E-02  0.1320468E+00
        -11   -1    0    0    0    0  0.00000000000E+00  0.00000000000E+00  0.45593999997E+02  0.45594000000E+02  0.51100000000E-03 0.  1.
         11   -1    0    0    0    0 -0.00000000000E+00 -0.00000000000E+00 -0.45593999997E+02  0.45594000000E+02  0.51100000000E-03 0. -1.
    9900012    2    1    2    0    0 -0.42353602332E+02  0.11857596492E+02 -0.97305064095E+01  0.46142323403E+02  0.10000051448E+02 0.  0.
        -12    1    1    2    0    0  0.42353602332E+02 -0.11857596492E+02  0.97305064095E+01  0.45045676597E+02  0.00000000000E+00 0.  1.
         11    1    3    3    0    0 -0.24912913564E+02  0.98278589816E+01 -0.69721058503E+01  0.27674001060E+02  0.51100000000E-03 0. -1.
        -11    1    3    3    0    0  0.35096077831E+00  0.15360201944E-01  0.30507822216E-02  0.35131036437E+00  0.51100000000E-03 0.  1.
         12    1    3    3    0    0 -0.17791649547E+02  0.20143773084E+01 -0.27614513414E+01  0.18117011979E+02  0.00000000000E+00 0. -1.
</event>
<event>
 7    1  0.1563903E-008  0.4614232E+02  0.7816164E-02  0.1320468E+00
        -11   -1    0    0    0    0  0.00000000000E+00  0.00000000000E+00  0.45593999997E+02  0.45594000000E+02  0.51100000000E-03 0.  1.
         11   -1    0    0    0    0 -0.00000000000E+00 -0.00000000000E+00 -0.45593999997E+02  0.45594000000E+02  0.51100000000E-03 0. -1.
    9900012    2    1    2    0    0 -0.61898788359E+01 -0.39145100243E+02 -0.21411677649E+02  0.46142318600E+02  0.10000007649E+02 0.  0.
        -12    1    1    2    0    0  0.61898788359E+01  0.39145100243E+02  0.21411677649E+02  0.45045681400E+02  0.00000000000E+00 0.  1.
         11    1    3    3    0    0 -0.14410406848E+01 -0.15924120644E+02 -0.10713596804E+02  0.19246697724E+02  0.51100000000E-03 0. -1.
        -11    1    3    3    0    0  0.13497594297E+01 -0.10300986625E+02 -0.45746705461E+01  0.11351642473E+02  0.51100000000E-03 0.  1.
        -12    1    3    3    0    0 -0.60985975807E+01 -0.12919992974E+02 -0.61234102985E+01  0.15543978403E+02  0.00000000000E+00 0.  1.
</event>
<event>
 7    1  0.1563903E-008  0.4614232E+02  0.7816164E-02  0.1320468E+00
        -11   -1    0    0    0    0  0.00000000000E+00  0.00000000000E+00  0.45593999997E+02  0.45594000000E+02  0.51100000000E-03 0. -1.
         11   -1    0    0    0    0 -0.00000000000E+00 -0.00000000000E+00 -0.45593999997E+02  0.45594000000E+02  0.51100000000E-03 0.  1.
    9900012    2    1    2    0    0  0.35955488251E+02 -0.18111704088E+02  0.20206003118E+02  0.46142317384E+02  0.99999965618E+01 0.  0.
        -12    1    1    2    0    0 -0.35955488251E+02  0.18111704088E+02 -0.20206003118E+02  0.45045682616E+02  0.00000000000E+00 0.  1.
         11    1    3    3    0    0  0.20230739271E+02 -0.11346526531E+02  0.10263306219E+02  0.25364580237E+02  0.51100000000E-03 0. -1.
        -11    1    3    3    0    0  0.77653653807E+00  0.10667442486E+01  0.34534910139E+00  0.13638982916E+01  0.51100000000E-03 0.  1.
        -12    1    3    3    0    0  0.14948212441E+02 -0.78319218049E+01  0.95973477984E+01  0.19413838856E+02  0.00000000000E+00 0.  1.
</event>
<event>
 7    1  0.1563903E-008  0.4614232E+02  0.7816164E-02  0.1320468E+00
        -11   -1    0    0    0    0  0.00000000000E+00  0.00000000000E+00  0.45593999997E+02  0.45594000000E+02  0.51100000000E-03 0.  1.
         11   -1    0    0    0    0 -0.00000000000E+00 -0.00000000000E+00 -0.45593999997E+02  0.45594000000E+02  0.51100000000E-03 0. -1.
    9900012    2    1    2    0    0 -0.60356701750E+01  0.13129871175E+02 -0.42664864795E+02  0.46142317416E+02  0.99999968497E+01 0.  0.
        -12    1    1    2    0    0  0.60356701750E+01 -0.13129871175E+02  0.42664864795E+02  0.45045682584E+02  0.00000000000E+00 0.  1.
         11    1    3    3    0    0  0.10210072116E+01  0.97075641640E+00 -0.10372199542E+02  0.10467442254E+02  0.51100000000E-03 0. -1.
        -11    1    3    3    0    0 -0.33308321423E+01  0.59847470573E+01 -0.91167999313E+01  0.11402968094E+02  0.51100000000E-03 0.  1.
         12    1    3    3    0    0 -0.37258452444E+01  0.61743677008E+01 -0.23175865322E+02  0.24271907068E+02  0.00000000000E+00 0. -1.
</event>
<event>
 7    1  0.1563903E-008  0.4614232E+02  0.7816164E-02  0.1320468E+00
        -11   -1    0    0    0    0  0.00000000000E+00  0.00000000000E+00  0.45593999997E+02  0.45594000000E+02  0.51100000000E-03 0.  1.
         11   -1    0    0    0    0 -0.00000000000E+00 -0.00000000000E+00 -0.45593999997E+02  0.45594000000E+02  0.51100000000E-03 0. -1.
    9900012    2    1    2    0    0 -0.22147483754E+02  0.29348744657E+02 -0.26024093615E+02  0.46142319874E+02  0.10000019264E+02 0.  0.
        -12    1    1    2    0    0  0.22147483754E+02 -0.29348744657E+02  0.26024093615E+02  0.45045680126E+02  0.00000000000E+00 0.  1.
         11    1    3    3    0    0 -0.37259219772E+01  0.57129841389E+01 -0.15001570358E+01  0.69836347087E+01  0.51100000000E-03 0. -1.
        -11    1    3    3    0    0 -0.12628948771E+02  0.19986211777E+02 -0.19836020070E+02  0.30861087160E+02  0.51100000000E-03 0.  1.
        -12    1    3    3    0    0 -0.57926130058E+01  0.36495487418E+01 -0.46879165092E+01  0.82975980049E+01  0.00000000000E+00 0.  1.
</event>
<event>
 7    1  0.1563903E-008  0.4614232E+02  0.7816164E-02  0.1320468E+00
        -11   -1    0    0    0    0  0.00000000000E+00  0.00000000000E+00  0.45593999997E+02  0.45594000000E+02  0.51100000000E-03 0.  1.
         11   -1    0    0    0    0 -0.00000000000E+00 -0.00000000000E+00 -0.45593999997E+02  0.45594000000E+02  0.51100000000E-03 0. -1.
    9900012    2    1    2    0    0 -0.95928922733E+01  0.22471953069E+02 -0.37843115044E+02  0.46142316376E+02  0.99999873675E+01 0.  0.
        -12    1    1    2    0    0  0.95928922733E+01 -0.22471953069E+02  0.37843115044E+02  0.45045683624E+02  0.00000000000E+00 0.  1.
         11    1    3    3    0    0 -0.35631942246E+01  0.35750582168E+01 -0.36002765706E+01  0.61999504822E+01  0.51100000000E-03 0. -1.
        -11    1    3    3    0    0 -0.24736746977E+01  0.13940161751E+02 -0.20581943825E+02  0.24981264740E+02  0.51100000000E-03 0.  1.
        -12    1    3    3    0    0 -0.35560233510E+01  0.49567331014E+01 -0.13660894649E+02  0.14961101153E+02  0.00000000000E+00 0.  1.
</event>
<event>
 7    1  0.1563903E-008  0.4614232E+02  0.7816164E-02  0.1320468E+00
        -11   -1    0    0    0    0  0.00000000000E+00  0.00000000000E+00  0.45593999997E+02  0.45594000000E+02  0.51100000000E-03 0. -1.
         11   -1    0    0    0    0 -0.00000000000E+00 -0.00000000000E+00 -0.45593999997E+02  0.45594000000E+02  0.51100000000E-03 0.  1.
    9900012    2    1    2    0    0  0.41397884375E+02 -0.25623199516E+01  0.17571658386E+02  0.46142317713E+02  0.99999995621E+01 0.  0.
        -12    1    1    2    0    0 -0.41397884375E+02  0.25623199516E+01 -0.17571658386E+02  0.45045682287E+02  0.00000000000E+00 0.  1.
         11    1    3    3    0    0  0.19050920474E+02  0.21800366379E+01  0.97554358591E+01  0.21514150221E+02  0.51100000000E-03 0. -1.
        -11    1    3    3    0    0  0.62854360636E+01 -0.21747555704E+01  0.16519024735E+00  0.66530862297E+01  0.51100000000E-03 0.  1.
         12    1    3    3    0    0  0.16061527837E+02 -0.25676010190E+01  0.76510322796E+01  0.17975081263E+02  0.00000000000E+00 0. -1.
</event>
<event>
 7    1  0.1563903E-008  0.4614232E+02  0.7816164E-02  0.1320468E+00
        -11   -1    0    0    0    0  0.00000000000E+00  0.00000000000E+00  0.45593999997E+02  0.45594000000E+02  0.51100000000E-03 0.  1.
         11   -1    0    0    0    0 -0.00000000000E+00 -0.00000000000E+00 -0.45593999997E+02  0.45594000000E+02  0.51100000000E-03 0. -1.
    9900012    2    1    2    0    0  0.32001979539E+02  0.16265704072E+02  0.27210544232E+02  0.46142317179E+02  0.99999946961E+01 0.  0.
        -12    1    1    2    0    0 -0.32001979539E+02 -0.16265704072E+02 -0.27210544232E+02  0.45045682821E+02  0.00000000000E+00 0.  1.
         11    1    3    3    0    0  0.26990920254E+02  0.14313542502E+02  0.24024315686E+02  0.38865859306E+02  0.51100000000E-03 0. -1.
        -11    1    3    3    0    0  0.79040529210E+00  0.50045801862E+00  0.26142782398E+01  0.27766256014E+01  0.51100000000E-03 0.  1.
         12    1    3    3    0    0  0.42206539925E+01  0.14517035513E+01  0.57195030602E+00  0.44998322721E+01  0.00000000000E+00 0. -1.
</event>
<event>
 7    1  0.1563903E-008  0.4614233E+02  0.7816164E-02  0.1320468E+00
        -11   -1    0    0    0    0  0.00000000000E+00  0.00000000000E+00  0.45593999997E+02  0.45594000000E+02  0.51100000000E-03 0. -1.
         11   -1    0    0    0    0 -0.00000000000E+00 -0.00000000000E+00 -0.45593999997E+02  0.45594000000E+02  0.51100000000E-03 0.  1.
    9900012    2    1    2    0    0 -0.53980400423E+01 -0.20276698663E+02  0.39860122528E+02  0.46142326369E+02  0.10000078489E+02 0.  0.
        -12    1    1    2    0    0  0.53980400423E+01  0.20276698663E+02 -0.39860122528E+02  0.45045673631E+02  0.00000000000E+00 0.  1.
         11    1    3    3    0    0 -0.23251291344E+01 -0.45406837888E+01  0.15176885329E+02  0.16011304860E+02  0.51100000000E-03 0. -1.
        -11    1    3    3    0    0 -0.24911910546E+01 -0.16859184670E+01  0.27417237825E+01  0.40700618556E+01  0.51100000000E-03 0.  1.
        -12    1    3    3    0    0 -0.58171985340E+00 -0.14050096407E+02  0.21941513417E+02  0.26060959653E+02  0.00000000000E+00 0.  1.
</event>
<event>
 7    1  0.1563903E-008  0.4614231E+02  0.7816164E-02  0.1320468E+00
        -11   -1    0    0    0    0  0.00000000000E+00  0.00000000000E+00  0.45593999997E+02  0.45594000000E+02  0.51100000000E-03 0.  1.
         11   -1    0    0    0    0 -0.00000000000E+00 -0.00000000000E+00 -0.45593999997E+02  0.45594000000E+02  0.51100000000E-03 0. -1.
    9900012    2    1    2    0    0  0.86199400204E+01 -0.87834466252E+01 -0.43331995423E+02  0.46142310663E+02  0.99999352703E+01 0.  0.
        -12    1    1    2    0    0 -0.86199400204E+01  0.87834466252E+01  0.43331995423E+02  0.45045689337E+02  0.00000000000E+00 0.  1.
         11    1    3    3    0    0 -0.63185049976E+00  0.49210306488E+00 -0.48451548294E+00  0.93603204798E+00  0.51100000000E-03 0.  1.
        -11    1    3    3    0    0  0.62994723448E+01 -0.34304204930E+01 -0.29213647033E+02  0.30081361502E+02  0.51100000000E-03 0. -1.
        -12    1    3    3    0    0  0.29523181754E+01 -0.58451291971E+01 -0.13633832906E+02  0.15124917112E+02  0.00000000000E+00 0.  1.
</event>
<event>
 7    1  0.1563903E-008  0.4614232E+02  0.7816164E-02  0.1320468E+00
        -11   -1    0    0    0    0  0.00000000000E+00  0.00000000000E+00  0.45593999997E+02  0.45594000000E+02  0.51100000000E-03 0.  1.
         11   -1    0    0    0    0 -0.00000000000E+00 -0.00000000000E+00 -0.45593999997E+02  0.45594000000E+02  0.51100000000E-03 0. -1.
    9900012    2    1    2    0    0  0.21483110433E+02 -0.23404616423E+02 -0.31934516179E+02  0.46142318438E+02  0.10000006172E+02 0.  0.
        -12    1    1    2    0    0 -0.21483110433E+02  0.23404616423E+02  0.31934516179E+02  0.45045681562E+02  0.00000000000E+00 0.  1.
         11    1    3    3    0    0  0.16136446072E+02 -0.19718074890E+02 -0.23171062978E+02  0.34439592463E+02  0.51100000000E-03 0. -1.
        -11    1    3    3    0    0  0.28704070566E+01  0.64843768214E-02 -0.16411748061E+01  0.33064684670E+01  0.51100000000E-03 0.  1.
        -12    1    3    3    0    0  0.24762573040E+01 -0.36930259102E+01 -0.71222783951E+01  0.83962575083E+01  0.00000000000E+00 0.  1.
</event>
<event>
 7    1  0.1563903E-008  0.4614232E+02  0.7816164E-02  0.1320468E+00
        -11   -1    0    0    0    0  0.00000000000E+00  0.00000000000E+00  0.45593999997E+02  0.45594000000E+02  0.51100000000E-03 0.  1.
         11   -1    0    0    0    0 -0.00000000000E+00 -0.00000000000E+00 -0.45593999997E+02  0.45594000000E+02  0.51100000000E-03 0. -1.
    9900012    2    1    2    0    0  0.40497216928E+02  0.79595636769E+01 -0.18048109778E+02  0.46142317638E+02  0.99999988785E+01 0.  0.
        -12    1    1    2    0    0 -0.40497216928E+02 -0.79595636769E+01  0.18048109778E+02  0.45045682362E+02  0.00000000000E+00 0.  1.
         11    1    3    3    0    0  0.37895740363E+02  0.68718834962E+01 -0.18020241131E+02  0.42521041981E+02  0.51100000000E-03 0. -1.
        -11    1    3    3    0    0  0.26684489748E+01  0.10908846886E+01  0.63755881917E+00  0.29524787627E+01  0.51100000000E-03 0.  1.
         12    1    3    3    0    0 -0.66972409682E-01 -0.32045078580E-02 -0.66542746693E+00  0.66879689464E+00  0.00000000000E+00 0. -1.
</event>
<event>
 7    1  0.1563903E-008  0.4614232E+02  0.7816164E-02  0.1320468E+00
        -11   -1    0    0    0    0  0.00000000000E+00  0.00000000000E+00  0.45593999997E+02  0.45594000000E+02  0.51100000000E-03 0.  1.
         11   -1    0    0    0    0 -0.00000000000E+00 -0.00000000000E+00 -0.45593999997E+02  0.45594000000E+02  0.51100000000E-03 0. -1.
    9900012    2    1    2    0    0 -0.84816529626E+01  0.41861046714E+02 -0.14311807331E+02  0.46142317653E+02  0.99999990173E+01 0.  0.
        -12    1    1    2    0    0  0.84816529626E+01 -0.41861046714E+02  0.14311807331E+02  0.45045682347E+02  0.00000000000E+00 0.  1.
         11    1    3    3    0    0 -0.58517689042E+01  0.37773497275E+02 -0.10579450334E+02  0.39661127888E+02  0.51100000000E-03 0. -1.
        -11    1    3    3    0    0 -0.26249219699E+01  0.24878320059E+01 -0.30916763476E+01  0.47579392952E+01  0.51100000000E-03 0.  1.
        -12    1    3    3    0    0 -0.49620884507E-02  0.15997174333E+01 -0.64068064952E+00  0.17232504703E+01  0.00000000000E+00 0.  1.
</event>
<event>
 7    1  0.1563903E-008  0.4614232E+02  0.7816164E-02  0.1320468E+00
        -11   -1    0    0    0    0  0.00000000000E+00  0.00000000000E+00  0.45593999997E+02  0.45594000000E+02  0.51100000000E-03 0.  1.
         11   -1    0    0    0    0 -0.00000000000E+00 -0.00000000000E+00 -0.45593999997E+02  0.45594000000E+02  0.51100000000E-03 0. -1.
    9900012    2    1    2    0    0 -0.44064634488E+02  0.92607873792E+01  0.12881479155E+01  0.46142317404E+02  0.99999967477E+01 0.  0.
        -12    1    1    2    0    0  0.44064634488E+02 -0.92607873792E+01 -0.12881479155E+01  0.45045682596E+02  0.00000000000E+00 0.  1.
         11    1    3    3    0    0 -0.24872809587E+02  0.44709798918E+01 -0.40398753147E+01  0.25592321324E+02  0.51100000000E-03 0. -1.
        -11    1    3    3    0    0 -0.15433701256E+02  0.40646118461E+01  0.49187226872E+01  0.16700719657E+02  0.51100000000E-03 0.  1.
         12    1    3    3    0    0 -0.37581236446E+01  0.72519564132E+00  0.40930054297E+00  0.38492764230E+01  0.00000000000E+00 0. -1.
</event>
<event>
 7    1  0.1563903E-008  0.4614232E+02  0.7816164E-02  0.1320468E+00
        -11   -1    0    0    0    0  0.00000000000E+00  0.00000000000E+00  0.45593999997E+02  0.45594000000E+02  0.51100000000E-03 0. -1.
         11   -1    0    0    0    0 -0.00000000000E+00 -0.00000000000E+00 -0.45593999997E+02  0.45594000000E+02  0.51100000000E-03 0.  1.
    9900012    2    1    2    0    0 -0.26635555204E+02 -0.23673604481E+02  0.27553968169E+02  0.46142317499E+02  0.99999976085E+01 0.  0.
        -12    1    1    2    0    0  0.26635555204E+02  0.23673604481E+02 -0.27553968169E+02  0.45045682501E+02  0.00000000000E+00 0.  1.
         11    1    3    3    0    0  0.55124970565E-01 -0.15422289855E+00 -0.38653017393E+00  0.41979673807E+00  0.51100000000E-03 0.  1.
        -11    1    3    3    0    0 -0.12051606578E+02 -0.64090082929E+01  0.11361226905E+02  0.17759337979E+02  0.51100000000E-03 0. -1.
        -12    1    3    3    0    0 -0.14639073596E+02 -0.17110373290E+02  0.16579271438E+02  0.27963182782E+02  0.00000000000E+00 0.  1.
</event>
<event>
 7    1  0.1563903E-008  0.4614232E+02  0.7816164E-02  0.1320468E+00
        -11   -1    0    0    0    0  0.00000000000E+00  0.00000000000E+00  0.45593999997E+02  0.45594000000E+02  0.51100000000E-03 0.  1.
         11   -1    0    0    0    0 -0.00000000000E+00 -0.00000000000E+00 -0.45593999997E+02  0.45594000000E+02  0.51100000000E-03 0. -1.
    9900012    2    1    2    0    0  0.40874415340E+02 -0.60293585663E+01  0.17945543938E+02  0.46142317173E+02  0.99999946368E+01 0.  0.
        -12    1    1    2    0    0 -0.40874415340E+02  0.60293585663E+01 -0.17945543938E+02  0.45045682827E+02  0.00000000000E+00 0.  1.
         11    1    3    3    0    0  0.57280201455E+01 -0.11599446955E+01  0.49130117384E+01  0.76350095669E+01  0.51100000000E-03 0. -1.
        -11    1    3    3    0    0  0.86923636248E+01 -0.44269191301E+01  0.41151286672E+01  0.10587213164E+02  0.51100000000E-03 0.  1.
         12    1    3    3    0    0  0.26454031570E+02 -0.44249474068E+00  0.89174035322E+01  0.27920094442E+02  0.00000000000E+00 0. -1.
</event>
<event>
 7    1  0.1563903E-008  0.4614232E+02  0.7816164E-02  0.1320468E+00
        -11   -1    0    0    0    0  0.00000000000E+00  0.00000000000E+00  0.45593999997E+02  0.45594000000E+02  0.51100000000E-03 0.  1.
         11   -1    0    0    0    0 -0.00000000000E+00 -0.00000000000E+00 -0.45593999997E+02  0.45594000000E+02  0.51100000000E-03 0. -1.
    9900012    2    1    2    0    0  0.79541757133E+01 -0.36289744261E+02 -0.25473497046E+02  0.46142317615E+02  0.99999986649E+01 0.  0.
        -12    1    1    2    0    0 -0.79541757133E+01  0.36289744261E+02  0.25473497046E+02  0.45045682385E+02  0.00000000000E+00 0.  1.
         11    1    3    3    0    0  0.52042453242E+01 -0.70390182377E+01 -0.57065213325E+01  0.10449704930E+02  0.51100000000E-03 0. -1.
        -11    1    3    3    0    0 -0.71637823940E+00 -0.13323018254E+01 -0.16110454476E+01  0.22099080595E+01  0.51100000000E-03 0.  1.
         12    1    3    3    0    0  0.34663086286E+01 -0.27918424198E+02 -0.18155930265E+02  0.33482704625E+02  0.00000000000E+00 0. -1.
</event>
<event>
 7    1  0.1563903E-008  0.4614232E+02  0.7816164E-02  0.1320468E+00
        -11   -1    0    0    0    0  0.00000000000E+00  0.00000000000E+00  0.45593999997E+02  0.45594000000E+02  0.51100000000E-03 0. -1.
         11   -1    0    0    0    0 -0.00000000000E+00 -0.00000000000E+00 -0.45593999997E+02  0.45594000000E+02  0.51100000000E-03 0.  1.
    9900012    2    1    2    0    0 -0.14513586012E+01 -0.43306607779E+02 -0.12310352087E+02  0.46142317769E+02  0.10000000072E+02 0.  0.
        -12    1    1    2    0    0  0.14513586012E+01  0.43306607779E+02  0.12310352087E+02  0.45045682231E+02  0.00000000000E+00 0.  1.
         11    1    3    3    0    0  0.31153455468E+01 -0.12461217450E+02 -0.43529533496E+01  0.13562283043E+02  0.51100000000E-03 0.  1.
        -11    1    3    3    0    0 -0.11861252195E+01 -0.23111492072E+02 -0.62091177890E+01  0.23960406984E+02  0.51100000000E-03 0. -1.
         12    1    3    3    0    0 -0.33805789285E+01 -0.77338982568E+01 -0.17482809485E+01  0.86196277421E+01  0.00000000000E+00 0. -1.
</event>
<event>
 7    1  0.1563903E-008  0.4614232E+02  0.7816164E-02  0.1320468E+00
        -11   -1    0    0    0    0  0.00000000000E+00  0.00000000000E+00  0.45593999997E+02  0.45594000000E+02  0.51100000000E-03 0. -1.
         11   -1    0    0    0    0 -0.00000000000E+00 -0.00000000000E+00 -0.45593999997E+02  0.45594000000E+02  0.51100000000E-03 0.  1.
    9900012    2    1    2    0    0  0.23653781569E+02  0.14965096061E+02  0.35293879629E+02  0.46142318498E+02  0.10000006724E+02 0.  0.
        -12    1    1    2    0    0 -0.23653781569E+02 -0.14965096061E+02 -0.35293879629E+02  0.45045681502E+02  0.00000000000E+00 0.  1.
         11    1    3    3    0    0  0.70461201925E+01  0.57299981673E+01  0.17362750703E+02  0.19594534978E+02  0.51100000000E-03 0. -1.
        -11    1    3    3    0    0  0.10621427775E+02  0.81348546804E+01  0.10971603460E+02  0.17302215794E+02  0.51100000000E-03 0.  1.
        -12    1    3    3    0    0  0.59862336013E+01  0.11002432137E+01  0.69595254668E+01  0.92455677263E+01  0.00000000000E+00 0.  1.
</event>
<event>
 7    1  0.1563903E-008  0.4614232E+02  0.7816164E-02  0.1320468E+00
        -11   -1    0    0    0    0  0.00000000000E+00  0.00000000000E+00  0.45593999997E+02  0.45594000000E+02  0.51100000000E-03 0. -1.
         11   -1    0    0    0    0 -0.00000000000E+00 -0.00000000000E+00 -0.45593999997E+02  0.45594000000E+02  0.51100000000E-03 0.  1.
    9900012    2    1    2    0    0 -0.21483964649E+02 -0.38981247298E+02 -0.69292958216E+01  0.46142317426E+02  0.99999969480E+01 0.  0.
        -12    1    1    2    0    0  0.21483964649E+02  0.38981247298E+02  0.69292958216E+01  0.45045682574E+02  0.00000000000E+00 0.  1.
         11    1    3    3    0    0 -0.35803291483E+01 -0.81166910616E+01 -0.20712866389E+01  0.91098660364E+01  0.51100000000E-03 0. -1.
        -11    1    3    3    0    0 -0.31266838347E+01 -0.12015837693E+02  0.73406731571E+00  0.12437659038E+02  0.51100000000E-03 0.  1.
        -12    1    3    3    0    0 -0.14776951666E+02 -0.18848718543E+02 -0.55920764983E+01  0.24594792352E+02  0.00000000000E+00 0.  1.
</event>
<event>
 7    1  0.1563903E-008  0.4614232E+02  0.7816164E-02  0.1320468E+00
        -11   -1    0    0    0    0  0.00000000000E+00  0.00000000000E+00  0.45593999997E+02  0.45594000000E+02  0.51100000000E-03 0.  1.
         11   -1    0    0    0    0 -0.00000000000E+00 -0.00000000000E+00 -0.45593999997E+02  0.45594000000E+02  0.51100000000E-03 0. -1.
    9900012    2    1    2    0    0  0.28740538740E+02  0.26192781727E+02 -0.22738361818E+02  0.46142317856E+02  0.10000000864E+02 0.  0.
        -12    1    1    2    0    0 -0.28740538740E+02 -0.26192781727E+02  0.22738361818E+02  0.45045682144E+02  0.00000000000E+00 0.  1.
         11    1    3    3    0    0  0.19766860505E+02  0.13028863098E+02 -0.11874714886E+02  0.26485635763E+02  0.51100000000E-03 0. -1.
        -11    1    3    3    0    0  0.54300530573E+00  0.11083590381E+01  0.19917519695E+00  0.12501942008E+01  0.51100000000E-03 0.  1.
         12    1    3    3    0    0  0.84306729291E+01  0.12055559590E+02 -0.11062822129E+02  0.18406487892E+02  0.00000000000E+00 0. -1.
</event>
<event>
 7    1  0.1563903E-008  0.4614232E+02  0.7816164E-02  0.1320468E+00
        -11   -1    0    0    0    0  0.00000000000E+00  0.00000000000E+00  0.45593999997E+02  0.45594000000E+02  0.51100000000E-03 0.  1.
         11   -1    0    0    0    0 -0.00000000000E+00 -0.00000000000E+00 -0.45593999997E+02  0.45594000000E+02  0.51100000000E-03 0. -1.
    9900012    2    1    2    0    0 -0.60742248130E+01 -0.68613170133E+01 -0.44103735354E+02  0.46142319292E+02  0.10000013963E+02 0.  0.
        -12    1    1    2    0    0  0.60742248130E+01  0.68613170133E+01  0.44103735354E+02  0.45045680708E+02  0.00000000000E+00 0.  1.
         11    1    3    3    0    0 -0.57651734910E+01 -0.79206391990E+01 -0.42943270646E+02  0.44046546343E+02  0.51100000000E-03 0. -1.
        -11    1    3    3    0    0 -0.52500500793E+00  0.24473144297E+00  0.91673570007E-01  0.58645378512E+00  0.51100000000E-03 0.  1.
         12    1    3    3    0    0  0.21595368588E+00  0.81459074265E+00 -0.12521382780E+01  0.15093191643E+01  0.00000000000E+00 0. -1.
</event>
<event>
 7    1  0.1563903E-008  0.4614232E+02  0.7816164E-02  0.1320468E+00
        -11   -1    0    0    0    0  0.00000000000E+00  0.00000000000E+00  0.45593999997E+02  0.45594000000E+02  0.51100000000E-03 0. -1.
         11   -1    0    0    0    0 -0.00000000000E+00 -0.00000000000E+00 -0.45593999997E+02  0.45594000000E+02  0.51100000000E-03 0.  1.
    9900012    2    1    2    0    0  0.33841806583E+02  0.98602096135E+01 -0.28046779130E+02  0.46142318453E+02  0.10000006314E+02 0.  0.
        -12    1    1    2    0    0 -0.33841806583E+02 -0.98602096135E+01  0.28046779130E+02  0.45045681547E+02  0.00000000000E+00 0.  1.
         11    1    3    3    0    0  0.76738764749E+01  0.26986860399E+01 -0.99499319224E+01  0.12851942733E+02  0.51100000000E-03 0. -1.
        -11    1    3    3    0    0  0.80166026903E+00  0.10043860100E+01  0.34440204047E+00  0.13304373231E+01  0.51100000000E-03 0.  1.
         12    1    3    3    0    0  0.25366269839E+02  0.61571375636E+01 -0.18441249248E+02  0.31959938397E+02  0.00000000000E+00 0. -1.
</event>
<event>
 7    1  0.1563903E-008  0.4614232E+02  0.7816164E-02  0.1320468E+00
        -11   -1    0    0    0    0  0.00000000000E+00  0.00000000000E+00  0.45593999997E+02  0.45594000000E+02  0.51100000000E-03 0. -1.
         11   -1    0    0    0    0 -0.00000000000E+00 -0.00000000000E+00 -0.45593999997E+02  0.45594000000E+02  0.51100000000E-03 0.  1.
    9900012    2    1    2    0    0 -0.15832872649E+02  0.39213775338E+02  0.15514941140E+02  0.46142318397E+02  0.10000005795E+02 0.  0.
        -12    1    1    2    0    0  0.15832872649E+02 -0.39213775338E+02 -0.15514941140E+02  0.45045681603E+02  0.00000000000E+00 0.  1.
         11    1    3    3    0    0 -0.39998913777E+01  0.10523871885E+02  0.33689447139E+01  0.11751629642E+02  0.51100000000E-03 0. -1.
        -11    1    3    3    0    0 -0.26740000861E+01  0.12270206278E+02  0.11521716092E+01  0.12610937247E+02  0.51100000000E-03 0.  1.
        -12    1    3    3    0    0 -0.91589811847E+01  0.16419697174E+02  0.10993824817E+02  0.21779751508E+02  0.00000000000E+00 0.  1.
</event>
<event>
 7    1  0.1563903E-008  0.4614232E+02  0.7816164E-02  0.1320468E+00
        -11   -1    0    0    0    0  0.00000000000E+00  0.00000000000E+00  0.45593999997E+02  0.45594000000E+02  0.51100000000E-03 0.  1.
         11   -1    0    0    0    0 -0.00000000000E+00 -0.00000000000E+00 -0.45593999997E+02  0.45594000000E+02  0.51100000000E-03 0. -1.
    9900012    2    1    2    0    0  0.26106828445E+01 -0.89229711773E+01 -0.44075823908E+02  0.46142319489E+02  0.10000015756E+02 0.  0.
        -12    1    1    2    0    0 -0.26106828445E+01  0.89229711773E+01  0.44075823908E+02  0.45045680511E+02  0.00000000000E+00 0.  1.
         11    1    3    3    0    0  0.39003819526E+01 -0.48895424710E+01 -0.15649544110E+02  0.16853155077E+02  0.51100000000E-03 0. -1.
        -11    1    3    3    0    0 -0.20666897618E+01 -0.48437630148E+01 -0.26803218952E+02  0.27315669371E+02  0.51100000000E-03 0.  1.
         12    1    3    3    0    0  0.77699065359E+00  0.81033430853E+00 -0.16230608459E+01  0.19734950410E+01  0.00000000000E+00 0. -1.
</event>
<event>
 7    1  0.1563903E-008  0.4614232E+02  0.7816164E-02  0.1320468E+00
        -11   -1    0    0    0    0  0.00000000000E+00  0.00000000000E+00  0.45593999997E+02  0.45594000000E+02  0.51100000000E-03 0.  1.
         11   -1    0    0    0    0 -0.00000000000E+00 -0.00000000000E+00 -0.45593999997E+02  0.45594000000E+02  0.51100000000E-03 0. -1.
    9900012    2    1    2    0    0  0.43665331504E+02  0.73052287104E+01 -0.83117953842E+01  0.46142317805E+02  0.10000000401E+02 0.  0.
        -12    1    1    2    0    0 -0.43665331504E+02 -0.73052287104E+01  0.83117953842E+01  0.45045682195E+02  0.00000000000E+00 0.  1.
         11    1    3    3    0    0  0.25974802965E+02  0.46665470690E+01 -0.29459263040E+01  0.26554576492E+02  0.51100000000E-03 0. -1.
        -11    1    3    3    0    0  0.13816465813E+00  0.12211425925E+01 -0.35139252279E+00  0.12781845211E+01  0.51100000000E-03 0.  1.
        -12    1    3    3    0    0  0.17552363881E+02  0.14175390490E+01 -0.50144765574E+01  0.18309556792E+02  0.00000000000E+00 0.  1.
</event>
<event>
 7    1  0.1563903E-008  0.4614232E+02  0.7816164E-02  0.1320468E+00
        -11   -1    0    0    0    0  0.00000000000E+00  0.00000000000E+00  0.45593999997E+02  0.45594000000E+02  0.51100000000E-03 0.  1.
         11   -1    0    0    0    0 -0.00000000000E+00 -0.00000000000E+00 -0.45593999997E+02  0.45594000000E+02  0.51100000000E-03 0. -1.
    9900012    2    1    2    0    0  0.92570435201E+01  0.31246911522E+02 -0.31097446220E+02  0.46142317679E+02  0.99999992479E+01 0.  0.
        -12    1    1    2    0    0 -0.92570435201E+01 -0.31246911522E+02  0.31097446220E+02  0.45045682321E+02  0.00000000000E+00 0.  1.
         11    1    3    3    0    0  0.48040730606E+01  0.94362271823E+01 -0.88437393364E+01  0.13796130875E+02  0.51100000000E-03 0. -1.
        -11    1    3    3    0    0  0.18745812750E+01  0.50248124174E+01 -0.15790587711E+01  0.55907263974E+01  0.51100000000E-03 0.  1.
        -12    1    3    3    0    0  0.25783891845E+01  0.16785871922E+02 -0.20674648113E+02  0.26755460406E+02  0.00000000000E+00 0.  1.
</event>
<event>
 7    1  0.1563903E-008  0.4614232E+02  0.7816164E-02  0.1320468E+00
        -11   -1    0    0    0    0  0.00000000000E+00  0.00000000000E+00  0.45593999997E+02  0.45594000000E+02  0.51100000000E-03 0.  1.
         11   -1    0    0    0    0 -0.00000000000E+00 -0.00000000000E+00 -0.45593999997E+02  0.45594000000E+02  0.51100000000E-03 0. -1.
    9900012    2    1    2    0    0 -0.15492381444E+01  0.38403719398E+02 -0.23491868031E+02  0.46142315789E+02  0.99999820178E+01 0.  0.
        -12    1    1    2    0    0  0.15492381444E+01 -0.38403719398E+02  0.23491868031E+02  0.45045684211E+02  0.00000000000E+00 0.  1.
         11    1    3    3    0    0 -0.43385385080E+01  0.85907917457E+01 -0.61327965792E+01  0.11412090665E+02  0.51100000000E-03 0. -1.
        -11    1    3    3    0    0  0.16964163285E+01  0.67961827530E+01 -0.47487529426E+01  0.84626581606E+01  0.51100000000E-03 0.  1.
         12    1    3    3    0    0  0.10928840351E+01  0.23016744899E+02 -0.12610318509E+02  0.26267566964E+02  0.00000000000E+00 0. -1.
</event>
<event>
 7    1  0.1563903E-008  0.4614232E+02  0.7816164E-02  0.1320468E+00
        -11   -1    0    0    0    0  0.00000000000E+00  0.00000000000E+00  0.45593999997E+02  0.45594000000E+02  0.51100000000E-03 0.  1.
         11   -1    0    0    0    0 -0.00000000000E+00 -0.00000000000E+00 -0.45593999997E+02  0.45594000000E+02  0.51100000000E-03 0. -1.
    9900012    2    1    2    0    0  0.74387415501E+01  0.43240986780E+02 -0.10197827303E+02  0.46142317684E+02  0.99999993013E+01 0.  0.
        -12    1    1    2    0    0 -0.74387415501E+01 -0.43240986780E+02  0.10197827303E+02  0.45045682316E+02  0.00000000000E+00 0.  1.
         11    1    3    3    0    0 -0.65611052779E+00  0.43341922609E+00 -0.14512963977E+01  0.16506346493E+01  0.51100000000E-03 0. -1.
        -11    1    3    3    0    0  0.56832375254E+01  0.24756998400E+02 -0.45884234096E+01  0.25812047346E+02  0.51100000000E-03 0.  1.
         12    1    3    3    0    0  0.24116145525E+01  0.18050569153E+02 -0.41581074961E+01  0.18679635689E+02  0.00000000000E+00 0. -1.
</event>
<event>
 7    1  0.1563903E-008  0.4614232E+02  0.7816164E-02  0.1320468E+00
        -11   -1    0    0    0    0  0.00000000000E+00  0.00000000000E+00  0.45593999997E+02  0.45594000000E+02  0.51100000000E-03 0.  1.
         11   -1    0    0    0    0 -0.00000000000E+00 -0.00000000000E+00 -0.45593999997E+02  0.45594000000E+02  0.51100000000E-03 0. -1.
    9900012    2    1    2    0    0  0.77499223834E+01  0.19679850554E+02 -0.39771291619E+02  0.46142318167E+02  0.10000003698E+02 0.  0.
        -12    1    1    2    0    0 -0.77499223834E+01 -0.19679850554E+02  0.39771291619E+02  0.45045681833E+02  0.00000000000E+00 0.  1.
         11    1    3    3    0    0  0.24177784094E+01  0.47986568791E+01 -0.11877016176E+02  0.13035960792E+02  0.51100000000E-03 0. -1.
        -11    1    3    3    0    0  0.16196943736E+01  0.89144874429E+01 -0.22473543211E+02  0.24231212123E+02  0.51100000000E-03 0.  1.
        -12    1    3    3    0    0  0.37124496004E+01  0.59667062317E+01 -0.54207322322E+01  0.88751452509E+01  0.00000000000E+00 0.  1.
</event>
<event>
 7    1  0.1563903E-008  0.4614232E+02  0.7816164E-02  0.1320468E+00
        -11   -1    0    0    0    0  0.00000000000E+00  0.00000000000E+00  0.45593999997E+02  0.45594000000E+02  0.51100000000E-03 0.  1.
         11   -1    0    0    0    0 -0.00000000000E+00 -0.00000000000E+00 -0.45593999997E+02  0.45594000000E+02  0.51100000000E-03 0. -1.
    9900012    2    1    2    0    0 -0.11521086153E+02 -0.69791979673E+01 -0.42984517639E+02  0.46142318885E+02  0.10000010251E+02 0.  0.
        -12    1    1    2    0    0  0.11521086153E+02  0.69791979673E+01  0.42984517639E+02  0.45045681115E+02  0.00000000000E+00 0.  1.
         11    1    3    3    0    0 -0.56449538718E+01 -0.84260330341E+01 -0.30709139182E+02  0.32340605536E+02  0.51100000000E-03 0. -1.
        -11    1    3    3    0    0 -0.16108100630E+01  0.12264100355E+01 -0.43761217646E+01  0.48217458036E+01  0.51100000000E-03 0.  1.
         12    1    3    3    0    0 -0.42653222178E+01  0.22042503122E+00 -0.78992566931E+01  0.89799675455E+01  0.00000000000E+00 0. -1.
</event>
<event>
 7    1  0.1563903E-008  0.4614232E+02  0.7816164E-02  0.1320468E+00
        -11   -1    0    0    0    0  0.00000000000E+00  0.00000000000E+00  0.45593999997E+02  0.45594000000E+02  0.51100000000E-03 0.  1.
         11   -1    0    0    0    0 -0.00000000000E+00 -0.00000000000E+00 -0.45593999997E+02  0.45594000000E+02  0.51100000000E-03 0. -1.
    9900012    2    1    2    0    0  0.33203393171E+02 -0.14141463984E+02 -0.26956764543E+02  0.46142317895E+02  0.10000001218E+02 0.  0.
        -12    1    1    2    0    0 -0.33203393171E+02  0.14141463984E+02  0.26956764543E+02  0.45045682105E+02  0.00000000000E+00 0.  1.
         11    1    3    3    0    0  0.19818273808E+02 -0.69951699860E+01 -0.12682664626E+02  0.24546819797E+02  0.51100000000E-03 0. -1.
        -11    1    3    3    0    0  0.10588339109E+02 -0.65340911316E+01 -0.13983913824E+02  0.18717828883E+02  0.51100000000E-03 0.  1.
         12    1    3    3    0    0  0.27967802547E+01 -0.61220286650E+00 -0.29018609319E+00  0.28776692151E+01  0.00000000000E+00 0. -1.
</event>
<event>
 7    1  0.1563903E-008  0.4614232E+02  0.7816164E-02  0.1320468E+00
        -11   -1    0    0    0    0  0.00000000000E+00  0.00000000000E+00  0.45593999997E+02  0.45594000000E+02  0.51100000000E-03 0.  1.
         11   -1    0    0    0    0 -0.00000000000E+00 -0.00000000000E+00 -0.45593999997E+02  0.45594000000E+02  0.51100000000E-03 0. -1.
    9900012    2    1    2    0    0 -0.55338441573E+01  0.41679369926E+01 -0.44509755181E+02  0.46142318340E+02  0.10000005281E+02 0.  0.
        -12    1    1    2    0    0  0.55338441573E+01 -0.41679369926E+01  0.44509755181E+02  0.45045681660E+02  0.00000000000E+00 0.  1.
         11    1    3    3    0    0  0.10502066294E+01 -0.27849479464E-01 -0.12670605454E+02  0.12714084804E+02  0.51100000000E-03 0. -1.
        -11    1    3    3    0    0 -0.78655307308E+01  0.36012977204E+01 -0.25295653377E+02  0.26733985841E+02  0.51100000000E-03 0.  1.
        -12    1    3    3    0    0  0.12814799441E+01  0.59448875167E+00 -0.65434963496E+01  0.66942476948E+01  0.00000000000E+00 0.  1.
</event>
<event>
 7    1  0.1563903E-008  0.4614232E+02  0.7816164E-02  0.1320468E+00
        -11   -1    0    0    0    0  0.00000000000E+00  0.00000000000E+00  0.45593999997E+02  0.45594000000E+02  0.51100000000E-03 0.  1.
         11   -1    0    0    0    0 -0.00000000000E+00 -0.00000000000E+00 -0.45593999997E+02  0.45594000000E+02  0.51100000000E-03 0. -1.
    9900012    2    1    2    0    0  0.30212720543E+01 -0.60723885174E+01 -0.44532139245E+02  0.46142318599E+02  0.10000007640E+02 0.  0.
        -12    1    1    2    0    0 -0.30212720543E+01  0.60723885174E+01  0.44532139245E+02  0.45045681401E+02  0.00000000000E+00 0.  1.
         11    1    3    3    0    0  0.31946810664E+01 -0.18470558218E+01 -0.38983443678E+02  0.39157712952E+02  0.51100000000E-03 0. -1.
        -11    1    3    3    0    0 -0.16951256738E+00 -0.27477826528E+01 -0.33590806012E+01  0.43430941463E+01  0.51100000000E-03 0.  1.
         12    1    3    3    0    0 -0.38964446756E-02 -0.14775500428E+01 -0.21896149659E+01  0.26415115010E+01  0.00000000000E+00 0. -1.
</event>
<event>
 7    1  0.1563903E-008  0.4614232E+02  0.7816164E-02  0.1320468E+00
        -11   -1    0    0    0    0  0.00000000000E+00  0.00000000000E+00  0.45593999997E+02  0.45594000000E+02  0.51100000000E-03 0. -1.
         11   -1    0    0    0    0 -0.00000000000E+00 -0.00000000000E+00 -0.45593999997E+02  0.45594000000E+02  0.51100000000E-03 0.  1.
    9900012    2    1    2    0    0 -0.41136182422E+02  0.14619266074E+02 -0.11099776147E+02  0.46142317906E+02  0.10000001325E+02 0.  0.
        -12    1    1    2    0    0  0.41136182422E+02 -0.14619266074E+02  0.11099776147E+02  0.45045682094E+02  0.00000000000E+00 0.  1.
         11    1    3    3    0    0 -0.15706057791E+02  0.49414641879E+01 -0.18436745555E+01  0.16567964744E+02  0.51100000000E-03 0. -1.
        -11    1    3    3    0    0 -0.17715543041E+02  0.79337058843E+01 -0.96051035069E+01  0.21657381373E+02  0.51100000000E-03 0.  1.
        -12    1    3    3    0    0 -0.77145815899E+01  0.17440960019E+01  0.34900191531E+00  0.79169717891E+01  0.00000000000E+00 0.  1.
</event>
<event>
 7    1  0.1563903E-008  0.4614232E+02  0.7816164E-02  0.1320468E+00
        -11   -1    0    0    0    0  0.00000000000E+00  0.00000000000E+00  0.45593999997E+02  0.45594000000E+02  0.51100000000E-03 0.  1.
         11   -1    0    0    0    0 -0.00000000000E+00 -0.00000000000E+00 -0.45593999997E+02  0.45594000000E+02  0.51100000000E-03 0. -1.
    9900012    2    1    2    0    0  0.14051841080E+02 -0.12886946556E+02 -0.40811589580E+02  0.46142317928E+02  0.10000001525E+02 0.  0.
        -12    1    1    2    0    0 -0.14051841080E+02  0.12886946556E+02  0.40811589580E+02  0.45045682072E+02  0.00000000000E+00 0.  1.
         11    1    3    3    0    0  0.74545631745E+01 -0.32558926874E+01 -0.21517080351E+02  0.23003393150E+02  0.51100000000E-03 0. -1.
        -11    1    3    3    0    0  0.16196969129E+01 -0.35594909321E+01 -0.26162015101E+01  0.47050934516E+01  0.51100000000E-03 0.  1.
        -12    1    3    3    0    0  0.49775809924E+01 -0.60715629368E+01 -0.16678307719E+02  0.18433831327E+02  0.00000000000E+00 0.  1.
</event>
<event>
 7    1  0.1563903E-008  0.4614231E+02  0.7816164E-02  0.1320468E+00
        -11   -1    0    0    0    0  0.00000000000E+00  0.00000000000E+00  0.45593999997E+02  0.45594000000E+02  0.51100000000E-03 0. -1.
         11   -1    0    0    0    0 -0.00000000000E+00 -0.00000000000E+00 -0.45593999997E+02  0.45594000000E+02  0.51100000000E-03 0.  1.
    9900012    2    1    2    0    0 -0.38628376082E+02 -0.18526160978E+02  0.13919203691E+02  0.46142308633E+02  0.99999167668E+01 0.  0.
        -12    1    1    2    0    0  0.38628376082E+02  0.18526160978E+02 -0.13919203691E+02  0.45045691367E+02  0.00000000000E+00 0.  1.
         11    1    3    3    0    0 -0.30953012844E+02 -0.13390572096E+02  0.12196721752E+02  0.35863023393E+02  0.51100000000E-03 0. -1.
        -11    1    3    3    0    0 -0.18203891503E+01  0.27530982430E+00 -0.66436320338E+00  0.19572917220E+01  0.51100000000E-03 0.  1.
         12    1    3    3    0    0 -0.58549740872E+01 -0.54108987069E+01  0.23868451429E+01  0.83219935180E+01  0.00000000000E+00 0. -1.
</event>
<event>
 7    1  0.1563903E-008  0.4614232E+02  0.7816164E-02  0.1320468E+00
        -11   -1    0    0    0    0  0.00000000000E+00  0.00000000000E+00  0.45593999997E+02  0.45594000000E+02  0.51100000000E-03 0.  1.
         11   -1    0    0    0    0 -0.00000000000E+00 -0.00000000000E+00 -0.45593999997E+02  0.45594000000E+02  0.51100000000E-03 0. -1.
    9900012    2    1    2    0    0 -0.20426996257E+02  0.19192563484E+02 -0.35263250177E+02  0.46142317830E+02  0.10000000625E+02 0.  0.
        -12    1    1    2    0    0  0.20426996257E+02 -0.19192563484E+02  0.35263250177E+02  0.45045682170E+02  0.00000000000E+00 0.  1.
         11    1    3    3    0    0 -0.10187657685E+02  0.94348859886E+01 -0.21996779679E+02  0.26012761469E+02  0.51100000000E-03 0. -1.
        -11    1    3    3    0    0 -0.65822593285E+01  0.41727303405E+01 -0.41480219820E+01  0.88285844271E+01  0.51100000000E-03 0.  1.
        -12    1    3    3    0    0 -0.36570792436E+01  0.55849471545E+01 -0.91184485152E+01  0.11300971933E+02  0.00000000000E+00 0.  1.
</event>
<event>
 7    1  0.1563903E-008  0.4614232E+02  0.7816164E-02  0.1320468E+00
        -11   -1    0    0    0    0  0.00000000000E+00  0.00000000000E+00  0.45593999997E+02  0.45594000000E+02  0.51100000000E-03 0.  1.
         11   -1    0    0    0    0 -0.00000000000E+00 -0.00000000000E+00 -0.45593999997E+02  0.45594000000E+02  0.51100000000E-03 0. -1.
    9900012    2    1    2    0    0  0.11479544660E+02  0.33847771822E+02 -0.27416453254E+02  0.46142317499E+02  0.99999976130E+01 0.  0.
        -12    1    1    2    0    0 -0.11479544660E+02 -0.33847771822E+02  0.27416453254E+02  0.45045682501E+02  0.00000000000E+00 0.  1.
         11    1    3    3    0    0  0.25622390727E+01  0.14358093659E+02 -0.16399063690E+02  0.21946507985E+02  0.51100000000E-03 0. -1.
        -11    1    3    3    0    0  0.38468291482E+01  0.79539920770E+01 -0.33721397167E+01  0.94570297127E+01  0.51100000000E-03 0.  1.
         12    1    3    3    0    0  0.50704764396E+01  0.11535686087E+02 -0.76452498470E+01  0.14738779802E+02  0.00000000000E+00 0. -1.
</event>
<event>
 7    1  0.1563903E-008  0.4614232E+02  0.7816164E-02  0.1320468E+00
        -11   -1    0    0    0    0  0.00000000000E+00  0.00000000000E+00  0.45593999997E+02  0.45594000000E+02  0.51100000000E-03 0.  1.
         11   -1    0    0    0    0 -0.00000000000E+00 -0.00000000000E+00 -0.45593999997E+02  0.45594000000E+02  0.51100000000E-03 0. -1.
    9900012    2    1    2    0    0  0.31333444990E+00 -0.62342764159E+01 -0.44611087144E+02  0.46142317886E+02  0.10000001142E+02 0.  0.
        -12    1    1    2    0    0 -0.31333444990E+00  0.62342764159E+01  0.44611087144E+02  0.45045682114E+02  0.00000000000E+00 0.  1.
         11    1    3    3    0    0 -0.20054005661E+01 -0.24266317014E+01 -0.16489256623E+02  0.16787071129E+02  0.51100000000E-03 0. -1.
        -11    1    3    3    0    0 -0.15614456160E+01  0.12590908713E+01 -0.56863939227E+01  0.60298008540E+01  0.51100000000E-03 0.  1.
        -12    1    3    3    0    0  0.38801806320E+01 -0.50667355858E+01 -0.22435436598E+02  0.23325445903E+02  0.00000000000E+00 0.  1.
</event>
<event>
 7    1  0.1563903E-008  0.4614232E+02  0.7816164E-02  0.1320468E+00
        -11   -1    0    0    0    0  0.00000000000E+00  0.00000000000E+00  0.45593999997E+02  0.45594000000E+02  0.51100000000E-03 0.  1.
         11   -1    0    0    0    0 -0.00000000000E+00 -0.00000000000E+00 -0.45593999997E+02  0.45594000000E+02  0.51100000000E-03 0. -1.
    9900012    2    1    2    0    0  0.35829045583E+02 -0.24903639598E+02 -0.11189349995E+02  0.46142319564E+02  0.10000016436E+02 0.  0.
        -12    1    1    2    0    0 -0.35829045583E+02  0.24903639598E+02  0.11189349995E+02  0.45045680436E+02  0.00000000000E+00 0.  1.
         11    1    3    3    0    0  0.12352000270E+02 -0.13163993515E+02 -0.32112987756E+01  0.18335077748E+02  0.51100000000E-03 0. -1.
        -11    1    3    3    0    0  0.13474514581E+02 -0.54738010794E+01 -0.23554270263E+01  0.14733400090E+02  0.51100000000E-03 0.  1.
        -12    1    3    3    0    0  0.10002530732E+02 -0.62658450037E+01 -0.56226241933E+01  0.13073841726E+02  0.00000000000E+00 0.  1.
</event>
<event>
 7    1  0.1563903E-008  0.4614232E+02  0.7816164E-02  0.1320468E+00
        -11   -1    0    0    0    0  0.00000000000E+00  0.00000000000E+00  0.45593999997E+02  0.45594000000E+02  0.51100000000E-03 0.  1.
         11   -1    0    0    0    0 -0.00000000000E+00 -0.00000000000E+00 -0.45593999997E+02  0.45594000000E+02  0.51100000000E-03 0. -1.
    9900012    2    1    2    0    0  0.23485102496E+02  0.27226063468E+02 -0.27134937023E+02  0.46142318981E+02  0.10000011125E+02 0.  0.
        -12    1    1    2    0    0 -0.23485102496E+02 -0.27226063468E+02  0.27134937023E+02  0.45045681019E+02  0.00000000000E+00 0.  1.
         11    1    3    3    0    0  0.65353795013E+01  0.78635834982E+01 -0.47881237715E+01  0.11290405669E+02  0.51100000000E-03 0. -1.
        -11    1    3    3    0    0 -0.63820074367E+00  0.21324669952E+00 -0.10283264123E+01  0.12289140798E+01  0.51100000000E-03 0.  1.
         12    1    3    3    0    0  0.17587923738E+02  0.19149233270E+02 -0.21318486839E+02  0.33622999232E+02  0.00000000000E+00 0. -1.
</event>
<event>
 7    1  0.1563903E-008  0.4614232E+02  0.7816164E-02  0.1320468E+00
        -11   -1    0    0    0    0  0.00000000000E+00  0.00000000000E+00  0.45593999997E+02  0.45594000000E+02  0.51100000000E-03 0.  1.
         11   -1    0    0    0    0 -0.00000000000E+00 -0.00000000000E+00 -0.45593999997E+02  0.45594000000E+02  0.51100000000E-03 0. -1.
    9900012    2    1    2    0    0 -0.70663945716E+01  0.27811662597E+02 -0.34723058037E+02  0.46142320206E+02  0.10000022298E+02 0.  0.
        -12    1    1    2    0    0  0.70663945716E+01 -0.27811662597E+02  0.34723058037E+02  0.45045679794E+02  0.00000000000E+00 0.  1.
         11    1    3    3    0    0 -0.95663208429E+00  0.27744396010E+01 -0.94855464112E+00  0.30842205194E+01  0.51100000000E-03 0.  1.
        -11    1    3    3    0    0 -0.50790686395E+01  0.14853388522E+02 -0.25276641130E+02  0.29754473209E+02  0.51100000000E-03 0. -1.
         12    1    3    3    0    0 -0.10306938477E+01  0.10183834473E+02 -0.84978622660E+01  0.13303626478E+02  0.00000000000E+00 0. -1.
</event>
<event>
 7    1  0.1563903E-008  0.4614232E+02  0.7816164E-02  0.1320468E+00
        -11   -1    0    0    0    0  0.00000000000E+00  0.00000000000E+00  0.45593999997E+02  0.45594000000E+02  0.51100000000E-03 0. -1.
         11   -1    0    0    0    0 -0.00000000000E+00 -0.00000000000E+00 -0.45593999997E+02  0.45594000000E+02  0.51100000000E-03 0.  1.
    9900012    2    1    2    0    0  0.25354959294E+02  0.26040204154E+02  0.26611032450E+02  0.46142320504E+02  0.10000025014E+02 0.  0.
        -12    1    1    2    0    0 -0.25354959294E+02 -0.26040204154E+02 -0.26611032450E+02  0.45045679496E+02  0.00000000000E+00 0.  1.
         11    1    3    3    0    0  0.20392639360E+02  0.16215259978E+02  0.21113447838E+02  0.33534639943E+02  0.51100000000E-03 0. -1.
        -11    1    3    3    0    0  0.28439269410E+01  0.77659098140E+01  0.32101655890E+01  0.88714395142E+01  0.51100000000E-03 0.  1.
        -12    1    3    3    0    0  0.21183929927E+01  0.20590343627E+01  0.22874190224E+01  0.37362410471E+01  0.00000000000E+00 0.  1.
</event>
<event>
 7    1  0.1563903E-008  0.4614232E+02  0.7816164E-02  0.1320468E+00
        -11   -1    0    0    0    0  0.00000000000E+00  0.00000000000E+00  0.45593999997E+02  0.45594000000E+02  0.51100000000E-03 0.  1.
         11   -1    0    0    0    0 -0.00000000000E+00 -0.00000000000E+00 -0.45593999997E+02  0.45594000000E+02  0.51100000000E-03 0. -1.
    9900012    2    1    2    0    0  0.21238618760E+02 -0.24815469116E+02 -0.31019784420E+02  0.46142318078E+02  0.10000002894E+02 0.  0.
        -12    1    1    2    0    0 -0.21238618760E+02  0.24815469116E+02  0.31019784420E+02  0.45045681922E+02  0.00000000000E+00 0.  1.
         11    1    3    3    0    0  0.21821875590E+02 -0.23407702529E+02 -0.30316246915E+02  0.44081624508E+02  0.51100000000E-03 0. -1.
        -11    1    3    3    0    0 -0.89304099841E-02 -0.12869184612E+01 -0.23169558769E+00  0.13076398527E+01  0.51100000000E-03 0.  1.
         12    1    3    3    0    0 -0.57432642050E+00 -0.12084812581E+00 -0.47184191777E+00  0.75305371798E+00  0.00000000000E+00 0. -1.
</event>
<event>
 7    1  0.1563903E-008  0.4614232E+02  0.7816164E-02  0.1320468E+00
        -11   -1    0    0    0    0  0.00000000000E+00  0.00000000000E+00  0.45593999997E+02  0.45594000000E+02  0.51100000000E-03 0. -1.
         11   -1    0    0    0    0 -0.00000000000E+00 -0.00000000000E+00 -0.45593999997E+02  0.45594000000E+02  0.51100000000E-03 0.  1.
    9900012    2    1    2    0    0  0.88402888743E+01 -0.26224866769E+02  0.35541795367E+02  0.46142316940E+02  0.99999925114E+01 0.  0.
        -12    1    1    2    0    0 -0.88402888743E+01  0.26224866769E+02 -0.35541795367E+02  0.45045683060E+02  0.00000000000E+00 0.  1.
         11    1    3    3    0    0  0.30094850200E+01 -0.13082813629E+02  0.10862829902E+02  0.17268992045E+02  0.51100000000E-03 0. -1.
        -11    1    3    3    0    0  0.28609327280E+01 -0.96083400066E+01  0.19566712976E+02  0.21985481362E+02  0.51100000000E-03 0.  1.
        -12    1    3    3    0    0  0.29698711264E+01 -0.35337131336E+01  0.51122524892E+01  0.68878435327E+01  0.00000000000E+00 0.  1.
</event>
<event>
 7    1  0.1563903E-008  0.4614232E+02  0.7816164E-02  0.1320468E+00
        -11   -1    0    0    0    0  0.00000000000E+00  0.00000000000E+00  0.45593999997E+02  0.45594000000E+02  0.51100000000E-03 0.  1.
         11   -1    0    0    0    0 -0.00000000000E+00 -0.00000000000E+00 -0.45593999997E+02  0.45594000000E+02  0.51100000000E-03 0. -1.
    9900012    2    1    2    0    0  0.18889073980E+01 -0.17504103897E+02 -0.41462655744E+02  0.46142318235E+02  0.10000004318E+02 0.  0.
        -12    1    1    2    0    0 -0.18889073980E+01  0.17504103897E+02  0.41462655744E+02  0.45045681765E+02  0.00000000000E+00 0.  1.
         11    1    3    3    0    0 -0.26947077966E+01 -0.77617945858E+01 -0.12650351873E+02  0.15084372975E+02  0.51100000000E-03 0. -1.
        -11    1    3    3    0    0  0.34758876713E+01 -0.86161984980E+01 -0.27423572446E+02  0.28954671430E+02  0.51100000000E-03 0.  1.
         12    1    3    3    0    0  0.11077275233E+01 -0.11261108132E+01 -0.13887314252E+01  0.21032738293E+01  0.00000000000E+00 0. -1.
</event>
<event>
 7    1  0.1563903E-008  0.4614232E+02  0.7816164E-02  0.1320468E+00
        -11   -1    0    0    0    0  0.00000000000E+00  0.00000000000E+00  0.45593999997E+02  0.45594000000E+02  0.51100000000E-03 0.  1.
         11   -1    0    0    0    0 -0.00000000000E+00 -0.00000000000E+00 -0.45593999997E+02  0.45594000000E+02  0.51100000000E-03 0. -1.
    9900012    2    1    2    0    0 -0.31117323670E+02 -0.31418060130E+02 -0.85866876851E+01  0.46142317187E+02  0.99999947628E+01 0.  0.
        -12    1    1    2    0    0  0.31117323670E+02  0.31418060130E+02  0.85866876851E+01  0.45045682813E+02  0.00000000000E+00 0.  1.
         11    1    3    3    0    0 -0.21325879863E+02 -0.19831334365E+02 -0.55013078788E+01  0.29636790705E+02  0.51100000000E-03 0. -1.
        -11    1    3    3    0    0 -0.26872927105E+01 -0.61827911570E+01  0.76453429235E+00  0.67847595056E+01  0.51100000000E-03 0.  1.
        -12    1    3    3    0    0 -0.71041510962E+01 -0.54039346081E+01 -0.38499140987E+01  0.97207669766E+01  0.00000000000E+00 0.  1.
</event>
<event>
 7    1  0.1563903E-008  0.4614232E+02  0.7816164E-02  0.1320468E+00
        -11   -1    0    0    0    0  0.00000000000E+00  0.00000000000E+00  0.45593999997E+02  0.45594000000E+02  0.51100000000E-03 0.  1.
         11   -1    0    0    0    0 -0.00000000000E+00 -0.00000000000E+00 -0.45593999997E+02  0.45594000000E+02  0.51100000000E-03 0. -1.
    9900012    2    1    2    0    0  0.51844098061E+00  0.46168697234E+00 -0.45040332791E+02  0.46142317479E+02  0.99999974241E+01 0.  0.
        -12    1    1    2    0    0 -0.51844098061E+00 -0.46168697234E+00  0.45040332791E+02  0.45045682521E+02  0.00000000000E+00 0.  1.
         11    1    3    3    0    0 -0.29259598341E+01  0.15861368756E+01 -0.13308722786E+02  0.13718570391E+02  0.51100000000E-03 0. -1.
        -11    1    3    3    0    0  0.24126931029E+01 -0.32981398355E+01 -0.16231283776E+02  0.16737783236E+02  0.51100000000E-03 0.  1.
         12    1    3    3    0    0  0.10317077119E+01  0.21736899323E+01 -0.15500326230E+02  0.15685963851E+02  0.00000000000E+00 0. -1.
</event>
<event>
 7    1  0.1563903E-008  0.4614232E+02  0.7816164E-02  0.1320468E+00
        -11   -1    0    0    0    0  0.00000000000E+00  0.00000000000E+00  0.45593999997E+02  0.45594000000E+02  0.51100000000E-03 0.  1.
         11   -1    0    0    0    0 -0.00000000000E+00 -0.00000000000E+00 -0.45593999997E+02  0.45594000000E+02  0.51100000000E-03 0. -1.
    9900012    2    1    2    0    0 -0.22290190290E+02  0.20022649852E+02 -0.33635613861E+02  0.46142316411E+02  0.99999876860E+01 0.  0.
        -12    1    1    2    0    0  0.22290190290E+02 -0.20022649852E+02  0.33635613861E+02  0.45045683589E+02  0.00000000000E+00 0.  1.
         11    1    3    3    0    0 -0.13673512114E+02  0.10503707108E+02 -0.14249274364E+02  0.22368160781E+02  0.51100000000E-03 0. -1.
        -11    1    3    3    0    0 -0.16250412314E+01  0.49454188460E+01 -0.94797003685E+01  0.10814926995E+02  0.51100000000E-03 0.  1.
        -12    1    3    3    0    0 -0.69916369443E+01  0.45735238978E+01 -0.99066391282E+01  0.12959228635E+02  0.00000000000E+00 0.  1.
</event>
<event>
 7    1  0.1563903E-008  0.4614232E+02  0.7816164E-02  0.1320468E+00
        -11   -1    0    0    0    0  0.00000000000E+00  0.00000000000E+00  0.45593999997E+02  0.45594000000E+02  0.51100000000E-03 0.  1.
         11   -1    0    0    0    0 -0.00000000000E+00 -0.00000000000E+00 -0.45593999997E+02  0.45594000000E+02  0.51100000000E-03 0. -1.
    9900012    2    1    2    0    0  0.19135370913E+02 -0.31261241404E+02 -0.26185605063E+02  0.46142317115E+02  0.99999941076E+01 0.  0.
        -12    1    1    2    0    0 -0.19135370913E+02  0.31261241404E+02  0.26185605063E+02  0.45045682885E+02  0.00000000000E+00 0.  1.
         11    1    3    3    0    0  0.11293272466E+02 -0.17707009704E+02 -0.12344527730E+02  0.24361107544E+02  0.51100000000E-03 0. -1.
        -11    1    3    3    0    0  0.54423483000E+00 -0.11137351498E+01 -0.43313099096E+01  0.45052018077E+01  0.51100000000E-03 0.  1.
        -12    1    3    3    0    0  0.72978636174E+01 -0.12440496550E+02 -0.95097674231E+01  0.17276007763E+02  0.00000000000E+00 0.  1.
</event>
<event>
 7    1  0.1563903E-008  0.4614232E+02  0.7816164E-02  0.1320468E+00
        -11   -1    0    0    0    0  0.00000000000E+00  0.00000000000E+00  0.45593999997E+02  0.45594000000E+02  0.51100000000E-03 0. -1.
         11   -1    0    0    0    0 -0.00000000000E+00 -0.00000000000E+00 -0.45593999997E+02  0.45594000000E+02  0.51100000000E-03 0.  1.
    9900012    2    1    2    0    0  0.28479234644E+02  0.32008847927E+02 -0.13909713934E+02  0.46142319927E+02  0.10000019747E+02 0.  0.
        -12    1    1    2    0    0 -0.28479234644E+02 -0.32008847927E+02  0.13909713934E+02  0.45045680073E+02  0.00000000000E+00 0.  1.
         11    1    3    3    0    0  0.30125035254E+01  0.83557467057E+01 -0.21067605425E+01  0.91286428754E+01  0.51100000000E-03 0. -1.
        -11    1    3    3    0    0  0.48637693923E+01  0.50711877189E+01 -0.44282035664E+01  0.83055514367E+01  0.51100000000E-03 0.  1.
         12    1    3    3    0    0  0.20602961726E+02  0.18581913503E+02 -0.73747498254E+01  0.28708125615E+02  0.00000000000E+00 0. -1.
</event>
<event>
 7    1  0.1563903E-008  0.4614232E+02  0.7816164E-02  0.1320468E+00
        -11   -1    0    0    0    0  0.00000000000E+00  0.00000000000E+00  0.45593999997E+02  0.45594000000E+02  0.51100000000E-03 0.  1.
         11   -1    0    0    0    0 -0.00000000000E+00 -0.00000000000E+00 -0.45593999997E+02  0.45594000000E+02  0.51100000000E-03 0. -1.
    9900012    2    1    2    0    0 -0.32106488170E+02 -0.14303686440E+02 -0.28172530100E+02  0.46142317847E+02  0.10000000784E+02 0.  0.
        -12    1    1    2    0    0  0.32106488170E+02  0.14303686440E+02  0.28172530100E+02  0.45045682153E+02  0.00000000000E+00 0.  1.
         11    1    3    3    0    0 -0.50889083645E+01  0.12255675497E+01 -0.41138765127E+01  0.66575509299E+01  0.51100000000E-03 0. -1.
        -11    1    3    3    0    0 -0.16152477419E+01 -0.64939412600E+00 -0.59882803328E+00  0.18410141969E+01  0.51100000000E-03 0.  1.
         12    1    3    3    0    0 -0.25402332064E+02 -0.14879859864E+02 -0.23459825554E+02  0.37643752720E+02  0.00000000000E+00 0. -1.
</event>
<event>
 7    1  0.1563903E-008  0.4614232E+02  0.7816164E-02  0.1320468E+00
        -11   -1    0    0    0    0  0.00000000000E+00  0.00000000000E+00  0.45593999997E+02  0.45594000000E+02  0.51100000000E-03 0.  1.
         11   -1    0    0    0    0 -0.00000000000E+00 -0.00000000000E+00 -0.45593999997E+02  0.45594000000E+02  0.51100000000E-03 0. -1.
    9900012    2    1    2    0    0  0.27338521716E+02 -0.17281452073E+02 -0.31353947591E+02  0.46142318910E+02  0.10000010473E+02 0.  0.
        -12    1    1    2    0    0 -0.27338521716E+02  0.17281452073E+02  0.31353947591E+02  0.45045681090E+02  0.00000000000E+00 0.  1.
         11    1    3    3    0    0  0.92848335266E+01 -0.60324932418E+01 -0.13884968977E+02  0.17759264401E+02  0.51100000000E-03 0. -1.
        -11    1    3    3    0    0 -0.27154381015E+00 -0.99842611009E+00  0.51713499974E-01  0.10359851762E+01  0.51100000000E-03 0.  1.
         12    1    3    3    0    0  0.18325232000E+02 -0.10250532721E+02 -0.17520692114E+02  0.27347069332E+02  0.00000000000E+00 0. -1.
</event>
<event>
 7    1  0.1563903E-008  0.4614232E+02  0.7816164E-02  0.1320468E+00
        -11   -1    0    0    0    0  0.00000000000E+00  0.00000000000E+00  0.45593999997E+02  0.45594000000E+02  0.51100000000E-03 0. -1.
         11   -1    0    0    0    0 -0.00000000000E+00 -0.00000000000E+00 -0.45593999997E+02  0.45594000000E+02  0.51100000000E-03 0.  1.
    9900012    2    1    2    0    0  0.23055094796E+02  0.10969248993E+02  0.37111340242E+02  0.46142318808E+02  0.10000009546E+02 0.  0.
        -12    1    1    2    0    0 -0.23055094796E+02 -0.10969248993E+02 -0.37111340242E+02  0.45045681192E+02  0.00000000000E+00 0.  1.
         11    1    3    3    0    0  0.14032852360E+02  0.47375882832E+01  0.26368349357E+02  0.30243272578E+02  0.51100000000E-03 0. -1.
        -11    1    3    3    0    0 -0.39011467785E+00  0.50594893601E-01  0.73625110613E+00  0.83475460917E+00  0.51100000000E-03 0.  1.
         12    1    3    3    0    0  0.94123571136E+01  0.61810658165E+01  0.10006739778E+02  0.15064291621E+02  0.00000000000E+00 0. -1.
</event>
<event>
 7    1  0.1563903E-008  0.4614232E+02  0.7816164E-02  0.1320468E+00
        -11   -1    0    0    0    0  0.00000000000E+00  0.00000000000E+00  0.45593999997E+02  0.45594000000E+02  0.51100000000E-03 0. -1.
         11   -1    0    0    0    0 -0.00000000000E+00 -0.00000000000E+00 -0.45593999997E+02  0.45594000000E+02  0.51100000000E-03 0.  1.
    9900012    2    1    2    0    0 -0.21034525864E+02  0.31622651492E+02  0.24221274393E+02  0.46142317644E+02  0.99999989307E+01 0.  0.
        -12    1    1    2    0    0  0.21034525864E+02 -0.31622651492E+02 -0.24221274393E+02  0.45045682356E+02  0.00000000000E+00 0.  1.
         11    1    3    3    0    0 -0.12963485724E+02  0.18441971082E+02  0.15641625154E+02  0.27437541749E+02  0.51100000000E-03 0. -1.
        -11    1    3    3    0    0 -0.21078380644E+01  0.23993861817E+01  0.48955386772E+01  0.58451975635E+01  0.51100000000E-03 0.  1.
        -12    1    3    3    0    0 -0.59632020762E+01  0.10781294228E+02  0.36841105618E+01  0.12859578331E+02  0.00000000000E+00 0.  1.
</event>
<event>
 7    1  0.1563903E-008  0.4614232E+02  0.7816164E-02  0.1320468E+00
        -11   -1    0    0    0    0  0.00000000000E+00  0.00000000000E+00  0.45593999997E+02  0.45594000000E+02  0.51100000000E-03 0.  1.
         11   -1    0    0    0    0 -0.00000000000E+00 -0.00000000000E+00 -0.45593999997E+02  0.45594000000E+02  0.51100000000E-03 0. -1.
    9900012    2    1    2    0    0  0.96142783838E+01 -0.29780523892E+02 -0.32400609649E+02  0.46142318101E+02  0.10000003101E+02 0.  0.
        -12    1    1    2    0    0 -0.96142783838E+01  0.29780523892E+02  0.32400609649E+02  0.45045681899E+02  0.00000000000E+00 0.  1.
         11    1    3    3    0    0  0.61377092645E+01 -0.98206298018E+01 -0.12395795056E+02  0.16963843316E+02  0.51100000000E-03 0. -1.
        -11    1    3    3    0    0 -0.22499621564E+00 -0.40480839236E+01 -0.11162580370E+01  0.42051919119E+01  0.51100000000E-03 0.  1.
        -12    1    3    3    0    0  0.37015653349E+01 -0.15911810167E+02 -0.18888556556E+02  0.24973282874E+02  0.00000000000E+00 0.  1.
</event>
<event>
 7    1  0.1563903E-008  0.4614232E+02  0.7816164E-02  0.1320468E+00
        -11   -1    0    0    0    0  0.00000000000E+00  0.00000000000E+00  0.45593999997E+02  0.45594000000E+02  0.51100000000E-03 0.  1.
         11   -1    0    0    0    0 -0.00000000000E+00 -0.00000000000E+00 -0.45593999997E+02  0.45594000000E+02  0.51100000000E-03 0. -1.
    9900012    2    1    2    0    0  0.32237666100E+02 -0.18304865027E+02 -0.25588634384E+02  0.46142318643E+02  0.10000008046E+02 0.  0.
        -12    1    1    2    0    0 -0.32237666100E+02  0.18304865027E+02  0.25588634384E+02  0.45045681357E+02  0.00000000000E+00 0.  1.
         11    1    3    3    0    0  0.20924342772E+02 -0.13170215191E+02 -0.21840881742E+02  0.32989495360E+02  0.51100000000E-03 0. -1.
        -11    1    3    3    0    0  0.37141999666E+01 -0.28138153492E+01 -0.12655410021E+01  0.48285020970E+01  0.51100000000E-03 0.  1.
         12    1    3    3    0    0  0.75991233621E+01 -0.23208344861E+01 -0.24822116401E+01  0.83243211861E+01  0.00000000000E+00 0. -1.
</event>
<event>
 7    1  0.1563903E-008  0.4614232E+02  0.7816164E-02  0.1320468E+00
        -11   -1    0    0    0    0  0.00000000000E+00  0.00000000000E+00  0.45593999997E+02  0.45594000000E+02  0.51100000000E-03 0.  1.
         11   -1    0    0    0    0 -0.00000000000E+00 -0.00000000000E+00 -0.45593999997E+02  0.45594000000E+02  0.51100000000E-03 0. -1.
    9900012    2    1    2    0    0 -0.22558368328E+02  0.37376947986E+02  0.11099427168E+02  0.46142317567E+02  0.99999982318E+01 0.  0.
        -12    1    1    2    0    0  0.22558368328E+02 -0.37376947986E+02 -0.11099427168E+02  0.45045682433E+02  0.00000000000E+00 0.  1.
         11    1    3    3    0    0 -0.13742540675E+02  0.29332860958E+02  0.94960236150E+01  0.33755719825E+02  0.51100000000E-03 0. -1.
        -11    1    3    3    0    0 -0.17434411711E+01  0.18004510072E+01 -0.83645834180E+00  0.26421343200E+01  0.51100000000E-03 0.  1.
         12    1    3    3    0    0 -0.70723864817E+01  0.62436360212E+01  0.24398618950E+01  0.97444634217E+01  0.00000000000E+00 0. -1.
</event>
<event>
 7    1  0.1563903E-008  0.4614232E+02  0.7816164E-02  0.1320468E+00
        -11   -1    0    0    0    0  0.00000000000E+00  0.00000000000E+00  0.45593999997E+02  0.45594000000E+02  0.51100000000E-03 0. -1.
         11   -1    0    0    0    0 -0.00000000000E+00 -0.00000000000E+00 -0.45593999997E+02  0.45594000000E+02  0.51100000000E-03 0.  1.
    9900012    2    1    2    0    0 -0.41839876439E+02 -0.11338671086E+02  0.12246340133E+02  0.46142316865E+02  0.99999918285E+01 0.  0.
        -12    1    1    2    0    0  0.41839876439E+02  0.11338671086E+02 -0.12246340133E+02  0.45045683135E+02  0.00000000000E+00 0.  1.
         11    1    3    3    0    0 -0.37755462156E+02 -0.98028068209E+01  0.10155012982E+02  0.40307495991E+02  0.51100000000E-03 0. -1.
        -11    1    3    3    0    0 -0.30041234816E+00 -0.15791234877E+01  0.25139694815E+00  0.16269847126E+01  0.51100000000E-03 0.  1.
         12    1    3    3    0    0 -0.37840019355E+01  0.43259223074E-01  0.18399302024E+01  0.42078361610E+01  0.00000000000E+00 0. -1.
</event>
<event>
 7    1  0.1563903E-008  0.4614232E+02  0.7816164E-02  0.1320468E+00
        -11   -1    0    0    0    0  0.00000000000E+00  0.00000000000E+00  0.45593999997E+02  0.45594000000E+02  0.51100000000E-03 0.  1.
         11   -1    0    0    0    0 -0.00000000000E+00 -0.00000000000E+00 -0.45593999997E+02  0.45594000000E+02  0.51100000000E-03 0. -1.
    9900012    2    1    2    0    0  0.11083784583E+02  0.28572508074E+02 -0.33013255501E+02  0.46142317220E+02  0.99999950631E+01 0.  0.
        -12    1    1    2    0    0 -0.11083784583E+02 -0.28572508074E+02  0.33013255501E+02  0.45045682780E+02  0.00000000000E+00 0.  1.
         11    1    3    3    0    0  0.39588130118E+01  0.56211710166E+01 -0.41524869017E+01  0.80319930148E+01  0.51100000000E-03 0. -1.
        -11    1    3    3    0    0  0.50639669089E+01  0.70756820663E+01 -0.12403520553E+02  0.15151117448E+02  0.51100000000E-03 0.  1.
         12    1    3    3    0    0  0.20610046622E+01  0.15875654992E+02 -0.16457248046E+02  0.22959206757E+02  0.00000000000E+00 0. -1.
</event>
<event>
 7    1  0.1563903E-008  0.4614232E+02  0.7816164E-02  0.1320468E+00
        -11   -1    0    0    0    0  0.00000000000E+00  0.00000000000E+00  0.45593999997E+02  0.45594000000E+02  0.51100000000E-03 0.  1.
         11   -1    0    0    0    0 -0.00000000000E+00 -0.00000000000E+00 -0.45593999997E+02  0.45594000000E+02  0.51100000000E-03 0. -1.
    9900012    2    1    2    0    0 -0.33594580817E+02 -0.22091837260E+02 -0.20309317075E+02  0.46142317700E+02  0.99999994470E+01 0.  0.
        -12    1    1    2    0    0  0.33594580817E+02  0.22091837260E+02  0.20309317075E+02  0.45045682300E+02  0.00000000000E+00 0.  1.
         11    1    3    3    0    0 -0.16453344785E+02 -0.13358296072E+02 -0.14955389449E+02  0.25938779894E+02  0.51100000000E-03 0. -1.
        -11    1    3    3    0    0 -0.47175051202E+01 -0.93272093633E+00 -0.11786188845E+01  0.49511580100E+01  0.51100000000E-03 0.  1.
         12    1    3    3    0    0 -0.12423730911E+02 -0.78008202522E+01 -0.41753087410E+01  0.15252379796E+02  0.00000000000E+00 0. -1.
</event>
<event>
 7    1  0.1563903E-008  0.4614232E+02  0.7816164E-02  0.1320468E+00
        -11   -1    0    0    0    0  0.00000000000E+00  0.00000000000E+00  0.45593999997E+02  0.45594000000E+02  0.51100000000E-03 0. -1.
         11   -1    0    0    0    0 -0.00000000000E+00 -0.00000000000E+00 -0.45593999997E+02  0.45594000000E+02  0.51100000000E-03 0.  1.
    9900012    2    1    2    0    0 -0.11855150131E+02  0.36017751913E+02  0.24316465485E+02  0.46142317286E+02  0.99999956672E+01 0.  0.
        -12    1    1    2    0    0  0.11855150131E+02 -0.36017751913E+02 -0.24316465485E+02  0.45045682714E+02  0.00000000000E+00 0.  1.
         11    1    3    3    0    0 -0.92717767302E+01  0.31352669945E+02  0.19970033418E+02  0.38311329805E+02  0.51100000000E-03 0. -1.
        -11    1    3    3    0    0 -0.19010080342E+01  0.17255657936E+01  0.40547995016E+01  0.47992507867E+01  0.51100000000E-03 0.  1.
         12    1    3    3    0    0 -0.68236536680E+00  0.29395161743E+01  0.29163256522E+00  0.30317366947E+01  0.00000000000E+00 0. -1.
</event>
<event>
 7    1  0.1671064E-008  0.4614232E+02  0.7816164E-02  0.1320468E+00
        -11   -1    0    0    0    0  0.00000000000E+00  0.00000000000E+00  0.45593999997E+02  0.45594000000E+02  0.51100000000E-03 0. -1.
         11   -1    0    0    0    0 -0.00000000000E+00 -0.00000000000E+00 -0.45593999997E+02  0.45594000000E+02  0.51100000000E-03 0.  1.
    9900012    2    1    2    0    0 -0.27394713468E+02 -0.34287473471E+02  0.10149481770E+02  0.46142321592E+02  0.10000034935E+02 0.  0.
        -12    1    1    2    0    0  0.27394713468E+02  0.34287473471E+02 -0.10149481770E+02  0.45045678408E+02  0.00000000000E+00 0.  1.
         11    1    3    3    0    0 -0.17826762458E+02 -0.23381034787E+02  0.99312401419E+01  0.31033784469E+02  0.51100000000E-03 0. -1.
        -11    1    3    3    0    0 -0.25872858863E+01 -0.99132628731E+00 -0.94375188230E+00  0.29270196346E+01  0.51100000000E-03 0.  1.
         12    1    3    3    0    0 -0.69806651235E+01 -0.99151123971E+01  0.11619935106E+01  0.12181517489E+02  0.00000000000E+00 0. -1.
</event>
<event>
 7    1  0.1563903E-008  0.4614232E+02  0.7816164E-02  0.1320468E+00
        -11   -1    0    0    0    0  0.00000000000E+00  0.00000000000E+00  0.45593999997E+02  0.45594000000E+02  0.51100000000E-03 0.  1.
         11   -1    0    0    0    0 -0.00000000000E+00 -0.00000000000E+00 -0.45593999997E+02  0.45594000000E+02  0.51100000000E-03 0. -1.
    9900012    2    1    2    0    0  0.35222668846E+02  0.20381277635E+02 -0.19315290223E+02  0.46142319685E+02  0.10000017543E+02 0.  0.
        -12    1    1    2    0    0 -0.35222668846E+02 -0.20381277635E+02  0.19315290223E+02  0.45045680315E+02  0.00000000000E+00 0.  1.
         11    1    3    3    0    0  0.36360932751E+01  0.16743821925E+01 -0.20544280981E+01  0.44994894269E+01  0.51100000000E-03 0. -1.
        -11    1    3    3    0    0  0.10797341069E+02  0.20068146850E+01 -0.72498156164E+01  0.13159396113E+02  0.51100000000E-03 0.  1.
        -12    1    3    3    0    0  0.20789234502E+02  0.16700080757E+02 -0.10011046508E+02  0.28483434145E+02  0.00000000000E+00 0.  1.
</event>
<event>
 7    1  0.1563903E-008  0.4614232E+02  0.7816164E-02  0.1320468E+00
        -11   -1    0    0    0    0  0.00000000000E+00  0.00000000000E+00  0.45593999997E+02  0.45594000000E+02  0.51100000000E-03 0. -1.
         11   -1    0    0    0    0 -0.00000000000E+00 -0.00000000000E+00 -0.45593999997E+02  0.45594000000E+02  0.51100000000E-03 0.  1.
    9900012    2    1    2    0    0 -0.39589683733E+02  0.19758747010E+02 -0.84476235939E+01  0.46142317789E+02  0.10000000253E+02 0.  0.
        -12    1    1    2    0    0  0.39589683733E+02 -0.19758747010E+02  0.84476235939E+01  0.45045682211E+02  0.00000000000E+00 0.  1.
         11    1    3    3    0    0 -0.22203662662E+02  0.87186971117E+01 -0.26906337284E+01  0.24005370755E+02  0.51100000000E-03 0. -1.
        -11    1    3    3    0    0 -0.98703235220E+01  0.94206608666E+01 -0.43496452477E+01  0.14321017828E+02  0.51100000000E-03 0.  1.
        -12    1    3    3    0    0 -0.75156975487E+01  0.16193890317E+01 -0.14073446178E+01  0.78159292060E+01  0.00000000000E+00 0.  1.
</event>
<event>
 7    1  0.1563903E-008  0.4614233E+02  0.7816164E-02  0.1320468E+00
        -11   -1    0    0    0    0  0.00000000000E+00  0.00000000000E+00  0.45593999997E+02  0.45594000000E+02  0.51100000000E-03 0.  1.
         11   -1    0    0    0    0 -0.00000000000E+00 -0.00000000000E+00 -0.45593999997E+02  0.45594000000E+02  0.51100000000E-03 0. -1.
    9900012    2    1    2    0    0  0.18180964653E+02  0.15015791609E+02 -0.38380871079E+02  0.46142326088E+02  0.10000075934E+02 0.  0.
        -12    1    1    2    0    0 -0.18180964653E+02 -0.15015791609E+02  0.38380871079E+02  0.45045673912E+02  0.00000000000E+00 0.  1.
         11    1    3    3    0    0  0.17511859989E+02  0.95730451801E+01 -0.31754825237E+02  0.37505697706E+02  0.51100000000E-03 0. -1.
        -11    1    3    3    0    0  0.22713291725E-01  0.27874555356E+01 -0.29865291248E+01  0.40853128070E+01  0.51100000000E-03 0.  1.
         12    1    3    3    0    0  0.64639137253E+00  0.26552908930E+01 -0.36395167169E+01  0.45513155753E+01  0.00000000000E+00 0. -1.
</event>
<event>
 7    1  0.1563903E-008  0.4614232E+02  0.7816164E-02  0.1320468E+00
        -11   -1    0    0    0    0  0.00000000000E+00  0.00000000000E+00  0.45593999997E+02  0.45594000000E+02  0.51100000000E-03 0.  1.
         11   -1    0    0    0    0 -0.00000000000E+00 -0.00000000000E+00 -0.45593999997E+02  0.45594000000E+02  0.51100000000E-03 0. -1.
    9900012    2    1    2    0    0 -0.29824265090E+01  0.47716017982E+00 -0.44944308888E+02  0.46142318174E+02  0.10000003767E+02 0.  0.
        -12    1    1    2    0    0  0.29824265090E+01 -0.47716017982E+00  0.44944308888E+02  0.45045681826E+02  0.00000000000E+00 0.  1.
         11    1    3    3    0    0 -0.59828737871E+01 -0.12874263966E+01 -0.33459242650E+02  0.34014308231E+02  0.51100000000E-03 0. -1.
        -11    1    3    3    0    0  0.33524209041E+00  0.75503772707E+00 -0.12107561840E+01  0.14657421419E+01  0.51100000000E-03 0.  1.
         12    1    3    3    0    0  0.26652051877E+01  0.10095488494E+01 -0.10274310054E+02  0.10662267801E+02  0.00000000000E+00 0. -1.
</event>
<event>
 7    1  0.1563903E-008  0.4614232E+02  0.7816164E-02  0.1320468E+00
        -11   -1    0    0    0    0  0.00000000000E+00  0.00000000000E+00  0.45593999997E+02  0.45594000000E+02  0.51100000000E-03 0.  1.
         11   -1    0    0    0    0 -0.00000000000E+00 -0.00000000000E+00 -0.45593999997E+02  0.45594000000E+02  0.51100000000E-03 0. -1.
    9900012    2    1    2    0    0 -0.93824079157E+01  0.40553976555E+02 -0.17217979959E+02  0.46142318447E+02  0.10000006256E+02 0.  0.
        -12    1    1    2    0    0  0.93824079157E+01 -0.40553976555E+02  0.17217979959E+02  0.45045681553E+02  0.00000000000E+00 0.  1.
         11    1    3    3    0    0  0.18001335597E+01  0.56644307560E+01 -0.33459195542E+01  0.68206623246E+01  0.51100000000E-03 0.  1.
        -11    1    3    3    0    0 -0.35637391237E+01  0.16641131056E+02 -0.64300552383E+01  0.18192665830E+02  0.51100000000E-03 0. -1.
         12    1    3    3    0    0 -0.76188023516E+01  0.18248414743E+02 -0.74420051663E+01  0.21128990293E+02  0.00000000000E+00 0. -1.
</event>
<event>
 7    1  0.1563903E-008  0.4614232E+02  0.7816164E-02  0.1320468E+00
        -11   -1    0    0    0    0  0.00000000000E+00  0.00000000000E+00  0.45593999997E+02  0.45594000000E+02  0.51100000000E-03 0.  1.
         11   -1    0    0    0    0 -0.00000000000E+00 -0.00000000000E+00 -0.45593999997E+02  0.45594000000E+02  0.51100000000E-03 0. -1.
    9900012    2    1    2    0    0  0.11149217257E+02 -0.43512252237E+02  0.33900514219E+01  0.46142316646E+02  0.99999898306E+01 0.  0.
        -12    1    1    2    0    0 -0.11149217257E+02  0.43512252237E+02 -0.33900514219E+01  0.45045683354E+02  0.00000000000E+00 0.  1.
         11    1    3    3    0    0  0.37467303924E+01 -0.19523672976E+02  0.12852269905E+00  0.19880349933E+02  0.51100000000E-03 0. -1.
        -11    1    3    3    0    0  0.78031699558E+01 -0.20778002998E+02  0.47547816385E+01  0.22698520186E+02  0.51100000000E-03 0.  1.
        -12    1    3    3    0    0 -0.40068309100E+00 -0.32105762625E+01 -0.14932529156E+01  0.35634465265E+01  0.00000000000E+00 0.  1.
</event>
<event>
 7    1  0.1563903E-008  0.4614232E+02  0.7816164E-02  0.1320468E+00
        -11   -1    0    0    0    0  0.00000000000E+00  0.00000000000E+00  0.45593999997E+02  0.45594000000E+02  0.51100000000E-03 0.  1.
         11   -1    0    0    0    0 -0.00000000000E+00 -0.00000000000E+00 -0.45593999997E+02  0.45594000000E+02  0.51100000000E-03 0. -1.
    9900012    2    1    2    0    0  0.24854720604E+02  0.28478219130E+01 -0.37459930007E+02  0.46142316721E+02  0.99999905120E+01 0.  0.
        -12    1    1    2    0    0 -0.24854720604E+02 -0.28478219130E+01  0.37459930007E+02  0.45045683279E+02  0.00000000000E+00 0.  1.
         11    1    3    3    0    0  0.10061762614E+02  0.11527148148E+01 -0.23404095910E+02  0.25501363178E+02  0.51100000000E-03 0. -1.
        -11    1    3    3    0    0  0.93365222186E+01  0.18844587524E+01 -0.75951323169E+01  0.12182276762E+02  0.51100000000E-03 0.  1.
        -12    1    3    3    0    0  0.54564357715E+01 -0.18935165419E+00 -0.64607017808E+01  0.84586767806E+01  0.00000000000E+00 0.  1.
</event>
<event>
 7    1  0.1563903E-008  0.4614232E+02  0.7816164E-02  0.1320468E+00
        -11   -1    0    0    0    0  0.00000000000E+00  0.00000000000E+00  0.45593999997E+02  0.45594000000E+02  0.51100000000E-03 0.  1.
         11   -1    0    0    0    0 -0.00000000000E+00 -0.00000000000E+00 -0.45593999997E+02  0.45594000000E+02  0.51100000000E-03 0. -1.
    9900012    2    1    2    0    0 -0.52635605862E+01 -0.75104461569E+01 -0.44102172724E+02  0.46142317515E+02  0.99999977589E+01 0.  0.
        -12    1    1    2    0    0  0.52635605862E+01  0.75104461569E+01  0.44102172724E+02  0.45045682485E+02  0.00000000000E+00 0.  1.
         11    1    3    3    0    0 -0.66090030331E+01 -0.39838238509E+01 -0.21064392108E+02  0.22433421244E+02  0.51100000000E-03 0. -1.
        -11    1    3    3    0    0  0.12811919564E+01 -0.82101804136E+00 -0.17279058980E+02  0.17345933326E+02  0.51100000000E-03 0.  1.
         12    1    3    3    0    0  0.64250490591E-01 -0.27056042647E+01 -0.57587216362E+01  0.63629629455E+01  0.00000000000E+00 0. -1.
</event>
<event>
 7    1  0.1563903E-008  0.4614232E+02  0.7816164E-02  0.1320468E+00
        -11   -1    0    0    0    0  0.00000000000E+00  0.00000000000E+00  0.45593999997E+02  0.45594000000E+02  0.51100000000E-03 0.  1.
         11   -1    0    0    0    0 -0.00000000000E+00 -0.00000000000E+00 -0.45593999997E+02  0.45594000000E+02  0.51100000000E-03 0. -1.
    9900012    2    1    2    0    0  0.33014678579E+02  0.27086407910E+02 -0.14334256813E+02  0.46142318592E+02  0.10000007578E+02 0.  0.
        -12    1    1    2    0    0 -0.33014678579E+02 -0.27086407910E+02  0.14334256813E+02  0.45045681408E+02  0.00000000000E+00 0.  1.
         11    1    3    3    0    0  0.69572632543E+01  0.39405090684E+01 -0.41381581223E+01  0.90030815066E+01  0.51100000000E-03 0. -1.
        -11    1    3    3    0    0  0.31790637025E+01  0.25394877735E+01 -0.40511816965E+01  0.57417347183E+01  0.51100000000E-03 0.  1.
         12    1    3    3    0    0  0.22878351622E+02  0.20606411068E+02 -0.61449169940E+01  0.31397502367E+02  0.00000000000E+00 0. -1.
</event>
<event>
 7    1  0.1563903E-008  0.4614232E+02  0.7816164E-02  0.1320468E+00
        -11   -1    0    0    0    0  0.00000000000E+00  0.00000000000E+00  0.45593999997E+02  0.45594000000E+02  0.51100000000E-03 0. -1.
         11   -1    0    0    0    0 -0.00000000000E+00 -0.00000000000E+00 -0.45593999997E+02  0.45594000000E+02  0.51100000000E-03 0.  1.
    9900012    2    1    2    0    0  0.96556079990E+01 -0.32811364025E+02  0.29313770897E+02  0.46142317197E+02  0.99999948578E+01 0.  0.
        -12    1    1    2    0    0 -0.96556079990E+01  0.32811364025E+02 -0.29313770897E+02  0.45045682803E+02  0.00000000000E+00 0.  1.
         11    1    3    3    0    0  0.23858751847E+01 -0.92448743811E+01  0.11752422677E+02  0.15141979453E+02  0.51100000000E-03 0. -1.
        -11    1    3    3    0    0  0.30883809406E+01 -0.24040370036E+01  0.19517519026E+01  0.43734227442E+01  0.51100000000E-03 0.  1.
        -12    1    3    3    0    0  0.41813518737E+01 -0.21162452640E+02  0.15609596317E+02  0.26626915000E+02  0.00000000000E+00 0.  1.
</event>
<event>
 7    1  0.1563903E-008  0.4614232E+02  0.7816164E-02  0.1320468E+00
        -11   -1    0    0    0    0  0.00000000000E+00  0.00000000000E+00  0.45593999997E+02  0.45594000000E+02  0.51100000000E-03 0.  1.
         11   -1    0    0    0    0 -0.00000000000E+00 -0.00000000000E+00 -0.45593999997E+02  0.45594000000E+02  0.51100000000E-03 0. -1.
    9900012    2    1    2    0    0  0.40195264162E+02 -0.83885163324E+01 -0.18522611382E+02  0.46142316525E+02  0.99999887278E+01 0.  0.
        -12    1    1    2    0    0 -0.40195264162E+02  0.83885163324E+01  0.18522611382E+02  0.45045683475E+02  0.00000000000E+00 0.  1.
         11    1    3    3    0    0  0.12920663164E+01 -0.11256601192E+01  0.53160991446E+00  0.17942004994E+01  0.51100000000E-03 0. -1.
        -11    1    3    3    0    0  0.52976206160E+01 -0.23151407370E+01 -0.95678963825E+00  0.58600433016E+01  0.51100000000E-03 0.  1.
         12    1    3    3    0    0  0.33605577230E+02 -0.49477154762E+01 -0.18097431658E+02  0.38488072724E+02  0.00000000000E+00 0. -1.
</event>
<event>
 7    1  0.1563903E-008  0.4614233E+02  0.7816164E-02  0.1320468E+00
        -11   -1    0    0    0    0  0.00000000000E+00  0.00000000000E+00  0.45593999997E+02  0.45594000000E+02  0.51100000000E-03 0.  1.
         11   -1    0    0    0    0 -0.00000000000E+00 -0.00000000000E+00 -0.45593999997E+02  0.45594000000E+02  0.51100000000E-03 0. -1.
    9900012    2    1    2    0    0 -0.34242327018E+02  0.11929813904E+02 -0.26725551892E+02  0.46142328251E+02  0.10000095655E+02 0.  0.
        -12    1    1    2    0    0  0.34242327018E+02 -0.11929813904E+02  0.26725551892E+02  0.45045671749E+02  0.00000000000E+00 0.  1.
         11    1    3    3    0    0 -0.13415434472E+02  0.23038684830E+01 -0.90596883279E+01  0.16351135890E+02  0.51100000000E-03 0. -1.
        -11    1    3    3    0    0 -0.31876801268E-01 -0.10950691976E+00 -0.19809043281E+01  0.19841850000E+01  0.51100000000E-03 0.  1.
         12    1    3    3    0    0 -0.20795015745E+02  0.97354523406E+01 -0.15684959236E+02  0.27807007361E+02  0.00000000000E+00 0. -1.
</event>
<event>
 7    1  0.1563903E-008  0.4614232E+02  0.7816164E-02  0.1320468E+00
        -11   -1    0    0    0    0  0.00000000000E+00  0.00000000000E+00  0.45593999997E+02  0.45594000000E+02  0.51100000000E-03 0.  1.
         11   -1    0    0    0    0 -0.00000000000E+00 -0.00000000000E+00 -0.45593999997E+02  0.45594000000E+02  0.51100000000E-03 0. -1.
    9900012    2    1    2    0    0 -0.33912046528E+00  0.44756001055E+02 -0.50890898739E+01  0.46142317977E+02  0.10000001973E+02 0.  0.
        -12    1    1    2    0    0  0.33912046528E+00 -0.44756001055E+02  0.50890898739E+01  0.45045682023E+02  0.00000000000E+00 0.  1.
         11    1    3    3    0    0 -0.30725116035E+01  0.28268427889E+02 -0.56292379041E+01  0.28986767024E+02  0.51100000000E-03 0. -1.
        -11    1    3    3    0    0  0.10005822173E+00  0.37776194499E+01  0.16599544968E+01  0.41274531552E+01  0.51100000000E-03 0.  1.
        -12    1    3    3    0    0  0.26333329165E+01  0.12709953716E+02 -0.11198064665E+01  0.13028097798E+02  0.00000000000E+00 0.  1.
</event>
<event>
 7    1  0.1563903E-008  0.4614232E+02  0.7816164E-02  0.1320468E+00
        -11   -1    0    0    0    0  0.00000000000E+00  0.00000000000E+00  0.45593999997E+02  0.45594000000E+02  0.51100000000E-03 0. -1.
         11   -1    0    0    0    0 -0.00000000000E+00 -0.00000000000E+00 -0.45593999997E+02  0.45594000000E+02  0.51100000000E-03 0.  1.
    9900012    2    1    2    0    0 -0.31405129429E+02  0.12244496816E+02  0.29881493827E+02  0.46142317299E+02  0.99999957818E+01 0.  0.
        -12    1    1    2    0    0  0.31405129429E+02 -0.12244496816E+02 -0.29881493827E+02  0.45045682701E+02  0.00000000000E+00 0.  1.
         11    1    3    3    0    0 -0.52867816160E+01  0.19324398714E+01  0.23633696494E+01  0.61049078676E+01  0.51100000000E-03 0. -1.
        -11    1    3    3    0    0 -0.41346672941E+01 -0.11403244820E+01  0.38040476683E+01  0.57329392532E+01  0.51100000000E-03 0.  1.
        -12    1    3    3    0    0 -0.21983680519E+02  0.11452381427E+02  0.23714076509E+02  0.34304470178E+02  0.00000000000E+00 0.  1.
</event>
<event>
 7    1  0.1563903E-008  0.4614232E+02  0.7816164E-02  0.1320468E+00
        -11   -1    0    0    0    0  0.00000000000E+00  0.00000000000E+00  0.45593999997E+02  0.45594000000E+02  0.51100000000E-03 0.  1.
         11   -1    0    0    0    0 -0.00000000000E+00 -0.00000000000E+00 -0.45593999997E+02  0.45594000000E+02  0.51100000000E-03 0. -1.
    9900012    2    1    2    0    0  0.26497233725E+02  0.15134804626E+02 -0.33135295450E+02  0.46142317514E+02  0.99999977436E+01 0.  0.
        -12    1    1    2    0    0 -0.26497233725E+02 -0.15134804626E+02  0.33135295450E+02  0.45045682486E+02  0.00000000000E+00 0.  1.
         11    1    3    3    0    0  0.15557212493E+02  0.12440477683E+02 -0.21234453004E+02  0.29115190883E+02  0.51100000000E-03 0. -1.
        -11    1    3    3    0    0  0.13004305945E+01 -0.10629163662E+01 -0.27107811248E+01  0.31889254460E+01  0.51100000000E-03 0.  1.
         12    1    3    3    0    0  0.96395906372E+01  0.37572433092E+01 -0.91900613209E+01  0.13838201184E+02  0.00000000000E+00 0. -1.
</event>
<event>
 7    1  0.1563903E-008  0.4614232E+02  0.7816164E-02  0.1320468E+00
        -11   -1    0    0    0    0  0.00000000000E+00  0.00000000000E+00  0.45593999997E+02  0.45594000000E+02  0.51100000000E-03 0. -1.
         11   -1    0    0    0    0 -0.00000000000E+00 -0.00000000000E+00 -0.45593999997E+02  0.45594000000E+02  0.51100000000E-03 0.  1.
    9900012    2    1    2    0    0  0.33461117523E+02 -0.28714534875E+02 -0.92164186546E+01  0.46142320165E+02  0.10000021924E+02 0.  0.
        -12    1    1    2    0    0 -0.33461117523E+02  0.28714534875E+02  0.92164186546E+01  0.45045679835E+02  0.00000000000E+00 0.  1.
         11    1    3    3    0    0  0.18203989621E+02 -0.15792956767E+02 -0.47427267281E+01  0.24562088239E+02  0.51100000000E-03 0. -1.
        -11    1    3    3    0    0  0.18260283029E+01 -0.23178145484E+00  0.12631955231E+01  0.22324348135E+01  0.51100000000E-03 0.  1.
        -12    1    3    3    0    0  0.13431099599E+02 -0.12689796652E+02 -0.57368874497E+01  0.19347797113E+02  0.00000000000E+00 0.  1.
</event>
<event>
 7    1  0.1563903E-008  0.4614232E+02  0.7816164E-02  0.1320468E+00
        -11   -1    0    0    0    0  0.00000000000E+00  0.00000000000E+00  0.45593999997E+02  0.45594000000E+02  0.51100000000E-03 0.  1.
         11   -1    0    0    0    0 -0.00000000000E+00 -0.00000000000E+00 -0.45593999997E+02  0.45594000000E+02  0.51100000000E-03 0. -1.
    9900012    2    1    2    0    0  0.58335776456E+01 -0.32009892657E+02 -0.31152037047E+02  0.46142320204E+02  0.10000022281E+02 0.  0.
        -12    1    1    2    0    0 -0.58335776456E+01  0.32009892657E+02  0.31152037047E+02  0.45045679796E+02  0.00000000000E+00 0.  1.
         11    1    3    3    0    0  0.38304206577E+01 -0.13310251162E+02 -0.16870670396E+02  0.21827836088E+02  0.51100000000E-03 0. -1.
        -11    1    3    3    0    0 -0.13505229808E+01 -0.11107897676E+02 -0.65161215646E+01  0.12948712044E+02  0.51100000000E-03 0.  1.
         12    1    3    3    0    0  0.33536799687E+01 -0.75917438187E+01 -0.77652450867E+01  0.11365772072E+02  0.00000000000E+00 0. -1.
</event>
<event>
 7    1  0.1563903E-008  0.4614232E+02  0.7816164E-02  0.1320468E+00
        -11   -1    0    0    0    0  0.00000000000E+00  0.00000000000E+00  0.45593999997E+02  0.45594000000E+02  0.51100000000E-03 0.  1.
         11   -1    0    0    0    0 -0.00000000000E+00 -0.00000000000E+00 -0.45593999997E+02  0.45594000000E+02  0.51100000000E-03 0. -1.
    9900012    2    1    2    0    0  0.29259357462E+02  0.34046736407E+01 -0.34079490891E+02  0.46142317620E+02  0.99999987132E+01 0.  0.
        -12    1    1    2    0    0 -0.29259357462E+02 -0.34046736407E+01  0.34079490891E+02  0.45045682380E+02  0.00000000000E+00 0.  1.
         11    1    3    3    0    0  0.61480827141E+01 -0.31419636724E+01 -0.62199087454E+01  0.92929070715E+01  0.51100000000E-03 0. -1.
        -11    1    3    3    0    0  0.33147191875E+01  0.26664489702E+00 -0.32897216177E+01  0.46776844032E+01  0.51100000000E-03 0.  1.
         12    1    3    3    0    0  0.19796555560E+02  0.62799924161E+01 -0.24569860528E+02  0.32171726145E+02  0.00000000000E+00 0. -1.
</event>
<event>
 7    1  0.1563903E-008  0.4614232E+02  0.7816164E-02  0.1320468E+00
        -11   -1    0    0    0    0  0.00000000000E+00  0.00000000000E+00  0.45593999997E+02  0.45594000000E+02  0.51100000000E-03 0. -1.
         11   -1    0    0    0    0 -0.00000000000E+00 -0.00000000000E+00 -0.45593999997E+02  0.45594000000E+02  0.51100000000E-03 0.  1.
    9900012    2    1    2    0    0  0.41660827681E+02  0.70042248208E+01  0.15634250196E+02  0.46142317548E+02  0.99999980535E+01 0.  0.
        -12    1    1    2    0    0 -0.41660827681E+02 -0.70042248208E+01 -0.15634250196E+02  0.45045682452E+02  0.00000000000E+00 0.  1.
         11    1    3    3    0    0  0.10643137271E+02  0.56160973251E+01  0.68032673783E+01  0.13823941819E+02  0.51100000000E-03 0. -1.
        -11    1    3    3    0    0  0.27380783474E+02  0.11024335057E+01  0.82962430488E+01  0.28631282057E+02  0.51100000000E-03 0.  1.
         12    1    3    3    0    0  0.36369069363E+01  0.28569399003E+00  0.53473976887E+00  0.36870936711E+01  0.00000000000E+00 0. -1.
</event>
<event>
 7    1  0.1563903E-008  0.4614231E+02  0.7816164E-02  0.1320468E+00
        -11   -1    0    0    0    0  0.00000000000E+00  0.00000000000E+00  0.45593999997E+02  0.45594000000E+02  0.51100000000E-03 0.  1.
         11   -1    0    0    0    0 -0.00000000000E+00 -0.00000000000E+00 -0.45593999997E+02  0.45594000000E+02  0.51100000000E-03 0. -1.
    9900012    2    1    2    0    0  0.37085120532E+02 -0.23120973085E+02  0.10919191367E+02  0.46142308737E+02  0.99999177148E+01 0.  0.
        -12    1    1    2    0    0 -0.37085120532E+02  0.23120973085E+02 -0.10919191367E+02  0.45045691263E+02  0.00000000000E+00 0.  1.
         11    1    3    3    0    0  0.24488432934E+02 -0.14022831937E+02  0.10696985339E+02  0.30178612604E+02  0.51100000000E-03 0. -1.
        -11    1    3    3    0    0  0.73212760359E+01 -0.31218044095E+01 -0.38996874840E+00  0.79686147762E+01  0.51100000000E-03 0.  1.
         12    1    3    3    0    0  0.52754115618E+01 -0.59763367384E+01  0.61217477582E+00  0.79950813575E+01  0.00000000000E+00 0. -1.
</event>
<event>
 7    1  0.1563903E-008  0.4614233E+02  0.7816164E-02  0.1320468E+00
        -11   -1    0    0    0    0  0.00000000000E+00  0.00000000000E+00  0.45593999997E+02  0.45594000000E+02  0.51100000000E-03 0.  1.
         11   -1    0    0    0    0 -0.00000000000E+00 -0.00000000000E+00 -0.45593999997E+02  0.45594000000E+02  0.51100000000E-03 0. -1.
    9900012    2    1    2    0    0 -0.31823973758E+01  0.64255395653E+01 -0.44471310098E+02  0.46142327249E+02  0.10000086521E+02 0.  0.
        -12    1    1    2    0    0  0.31823973758E+01 -0.64255395653E+01  0.44471310098E+02  0.45045672751E+02  0.00000000000E+00 0.  1.
         11    1    3    3    0    0 -0.19184167870E+01  0.63680438609E+01 -0.32776834350E+02  0.33444778006E+02  0.51100000000E-03 0. -1.
        -11    1    3    3    0    0 -0.13239412169E+01 -0.22627405727E+01 -0.59540907797E+01  0.65056907796E+01  0.51100000000E-03 0.  1.
         12    1    3    3    0    0  0.59960628052E-01  0.23202362772E+01 -0.57403849675E+01  0.61918584637E+01  0.00000000000E+00 0. -1.
</event>
<event>
 7    1  0.1563903E-008  0.4614232E+02  0.7816164E-02  0.1320468E+00
        -11   -1    0    0    0    0  0.00000000000E+00  0.00000000000E+00  0.45593999997E+02  0.45594000000E+02  0.51100000000E-03 0.  1.
         11   -1    0    0    0    0 -0.00000000000E+00 -0.00000000000E+00 -0.45593999997E+02  0.45594000000E+02  0.51100000000E-03 0. -1.
    9900012    2    1    2    0    0 -0.22293151536E+02  0.35353925349E+02 -0.16799665171E+02  0.46142318821E+02  0.10000009668E+02 0.  0.
        -12    1    1    2    0    0  0.22293151536E+02 -0.35353925349E+02  0.16799665171E+02  0.45045681179E+02  0.00000000000E+00 0.  1.
         11    1    3    3    0    0 -0.11299436365E+02  0.20635773976E+02 -0.53453921919E+01  0.24126451204E+02  0.51100000000E-03 0.  1.
        -11    1    3    3    0    0 -0.11143548345E+02  0.13711244186E+02 -0.11332699058E+02  0.20990639700E+02  0.51100000000E-03 0. -1.
         12    1    3    3    0    0  0.14983317399E+00  0.10069071871E+01 -0.12157392200E+00  0.10252279171E+01  0.00000000000E+00 0. -1.
</event>
<event>
 7    1  0.1563903E-008  0.4614232E+02  0.7816164E-02  0.1320468E+00
        -11   -1    0    0    0    0  0.00000000000E+00  0.00000000000E+00  0.45593999997E+02  0.45594000000E+02  0.51100000000E-03 0.  1.
         11   -1    0    0    0    0 -0.00000000000E+00 -0.00000000000E+00 -0.45593999997E+02  0.45594000000E+02  0.51100000000E-03 0. -1.
    9900012    2    1    2    0    0  0.27567936036E+02 -0.26404280324E+02 -0.23915190286E+02  0.46142318263E+02  0.10000004580E+02 0.  0.
        -12    1    1    2    0    0 -0.27567936036E+02  0.26404280324E+02  0.23915190286E+02  0.45045681737E+02  0.00000000000E+00 0.  1.
         11    1    3    3    0    0  0.14723789824E+02 -0.91666110962E+01 -0.13354216094E+02  0.21889537079E+02  0.51100000000E-03 0. -1.
        -11    1    3    3    0    0  0.10686461713E+02 -0.11799335312E+02 -0.68947266678E+01  0.17348257372E+02  0.51100000000E-03 0.  1.
         12    1    3    3    0    0  0.21576844987E+01 -0.54383339155E+01 -0.36662475237E+01  0.69045238125E+01  0.00000000000E+00 0. -1.
</event>
<event>
 7    1  0.1563903E-008  0.4614232E+02  0.7816164E-02  0.1320468E+00
        -11   -1    0    0    0    0  0.00000000000E+00  0.00000000000E+00  0.45593999997E+02  0.45594000000E+02  0.51100000000E-03 0.  1.
         11   -1    0    0    0    0 -0.00000000000E+00 -0.00000000000E+00 -0.45593999997E+02  0.45594000000E+02  0.51100000000E-03 0. -1.
    9900012    2    1    2    0    0 -0.71880277096E+01 -0.27531823646E+02 -0.34920544152E+02  0.46142318081E+02  0.10000002921E+02 0.  0.
        -12    1    1    2    0    0  0.71880277096E+01  0.27531823646E+02  0.34920544152E+02  0.45045681919E+02  0.00000000000E+00 0.  1.
         11    1    3    3    0    0 -0.67124825201E+01 -0.21859157761E+02 -0.22620625320E+02  0.32164777160E+02  0.51100000000E-03 0. -1.
        -11    1    3    3    0    0 -0.17859163963E+01 -0.46126899784E+01 -0.94616077142E+01  0.10676536283E+02  0.51100000000E-03 0.  1.
         12    1    3    3    0    0  0.13103712068E+01 -0.10599759072E+01 -0.28383111176E+01  0.33010046385E+01  0.00000000000E+00 0. -1.
</event>
<event>
 7    1  0.1563903E-008  0.4614232E+02  0.7816164E-02  0.1320468E+00
        -11   -1    0    0    0    0  0.00000000000E+00  0.00000000000E+00  0.45593999997E+02  0.45594000000E+02  0.51100000000E-03 0.  1.
         11   -1    0    0    0    0 -0.00000000000E+00 -0.00000000000E+00 -0.45593999997E+02  0.45594000000E+02  0.51100000000E-03 0. -1.
    9900012    2    1    2    0    0 -0.66308771600E+01  0.23391955270E+02 -0.37920461692E+02  0.46142317429E+02  0.99999969752E+01 0.  0.
        -12    1    1    2    0    0  0.66308771600E+01 -0.23391955270E+02  0.37920461692E+02  0.45045682571E+02  0.00000000000E+00 0.  1.
         11    1    3    3    0    0  0.16488563258E+01  0.51797228794E+01 -0.68560265051E+01  0.87494774695E+01  0.51100000000E-03 0. -1.
        -11    1    3    3    0    0 -0.70611692791E+01  0.10638114391E+02 -0.22689279314E+02  0.26035225857E+02  0.51100000000E-03 0.  1.
        -12    1    3    3    0    0 -0.12185642068E+01  0.75741179997E+01 -0.83751558732E+01  0.11357614102E+02  0.00000000000E+00 0.  1.
</event>
<event>
 7    1  0.1563903E-008  0.4614233E+02  0.7816164E-02  0.1320468E+00
        -11   -1    0    0    0    0  0.00000000000E+00  0.00000000000E+00  0.45593999997E+02  0.45594000000E+02  0.51100000000E-03 0. -1.
         11   -1    0    0    0    0 -0.00000000000E+00 -0.00000000000E+00 -0.45593999997E+02  0.45594000000E+02  0.51100000000E-03 0.  1.
    9900012    2    1    2    0    0  0.13192852353E+02 -0.34103142011E+02  0.26306599387E+02  0.46142325185E+02  0.10000067696E+02 0.  0.
        -12    1    1    2    0    0 -0.13192852353E+02  0.34103142011E+02 -0.26306599387E+02  0.45045674815E+02  0.00000000000E+00 0.  1.
         11    1    3    3    0    0  0.24773081361E+01 -0.12500086542E+02  0.12763935018E+02  0.18036276128E+02  0.51100000000E-03 0. -1.
        -11    1    3    3    0    0  0.10456508357E+02 -0.21841733088E+02  0.13073503064E+02  0.27519381423E+02  0.51100000000E-03 0.  1.
         12    1    3    3    0    0  0.25903585955E+00  0.23867761861E+00  0.46916130511E+00  0.58666763365E+00  0.00000000000E+00 0. -1.
</event>
<event>
 7    1  0.1563903E-008  0.4614232E+02  0.7816164E-02  0.1320468E+00
        -11   -1    0    0    0    0  0.00000000000E+00  0.00000000000E+00  0.45593999997E+02  0.45594000000E+02  0.51100000000E-03 0.  1.
         11   -1    0    0    0    0 -0.00000000000E+00 -0.00000000000E+00 -0.45593999997E+02  0.45594000000E+02  0.51100000000E-03 0. -1.
    9900012    2    1    2    0    0  0.18723204937E+02 -0.35117220357E+02 -0.21102984033E+02  0.46142317590E+02  0.99999984358E+01 0.  0.
        -12    1    1    2    0    0 -0.18723204937E+02  0.35117220357E+02  0.21102984033E+02  0.45045682410E+02  0.00000000000E+00 0.  1.
         11    1    3    3    0    0  0.15965483932E+02 -0.30597154226E+02 -0.20519964174E+02  0.40151605869E+02  0.51100000000E-03 0. -1.
        -11    1    3    3    0    0  0.12275681792E-01 -0.26277413673E+01 -0.27267869049E+00  0.26418798828E+01  0.51100000000E-03 0.  1.
         12    1    3    3    0    0  0.27454453231E+01 -0.18923247641E+01 -0.31034116786E+00  0.33488318374E+01  0.00000000000E+00 0. -1.
</event>
<event>
 7    1  0.1563903E-008  0.4614232E+02  0.7816164E-02  0.1320468E+00
        -11   -1    0    0    0    0  0.00000000000E+00  0.00000000000E+00  0.45593999997E+02  0.45594000000E+02  0.51100000000E-03 0.  1.
         11   -1    0    0    0    0 -0.00000000000E+00 -0.00000000000E+00 -0.45593999997E+02  0.45594000000E+02  0.51100000000E-03 0. -1.
    9900012    2    1    2    0    0  0.16819656438E+02 -0.22729015280E+02 -0.35065716884E+02  0.46142317866E+02  0.10000000958E+02 0.  0.
        -12    1    1    2    0    0 -0.16819656438E+02  0.22729015280E+02  0.35065716884E+02  0.45045682134E+02  0.00000000000E+00 0.  1.
         11    1    3    3    0    0  0.63614779784E+01 -0.25648564507E+01 -0.82712061286E+01  0.10745219484E+02  0.51100000000E-03 0.  1.
        -11    1    3    3    0    0  0.86756399611E+01 -0.19272599217E+02 -0.24355872184E+02  0.32247609515E+02  0.51100000000E-03 0. -1.
         12    1    3    3    0    0  0.17825384985E+01 -0.89155961231E+00 -0.24386385719E+01  0.31494888673E+01  0.00000000000E+00 0. -1.
</event>
<event>
 7    1  0.1563903E-008  0.4614232E+02  0.7816164E-02  0.1320468E+00
        -11   -1    0    0    0    0  0.00000000000E+00  0.00000000000E+00  0.45593999997E+02  0.45594000000E+02  0.51100000000E-03 0. -1.
         11   -1    0    0    0    0 -0.00000000000E+00 -0.00000000000E+00 -0.45593999997E+02  0.45594000000E+02  0.51100000000E-03 0.  1.
    9900012    2    1    2    0    0  0.29131037603E+02  0.25591752961E+02  0.22925059086E+02  0.46142317570E+02  0.99999982615E+01 0.  0.
        -12    1    1    2    0    0 -0.29131037603E+02 -0.25591752961E+02 -0.22925059086E+02  0.45045682430E+02  0.00000000000E+00 0.  1.
         11    1    3    3    0    0  0.20548781199E+02  0.19562135263E+02  0.13395425936E+02  0.31374623202E+02  0.51100000000E-03 0. -1.
        -11    1    3    3    0    0 -0.22680051167E+00  0.64510764104E+00 -0.47279276056E-01  0.68544724939E+00  0.51100000000E-03 0.  1.
         12    1    3    3    0    0  0.88090569156E+01  0.53845100565E+01  0.95769124262E+01  0.14082247119E+02  0.00000000000E+00 0. -1.
</event>
<event>
 7    1  0.1563903E-008  0.4614232E+02  0.7816164E-02  0.1320468E+00
        -11   -1    0    0    0    0  0.00000000000E+00  0.00000000000E+00  0.45593999997E+02  0.45594000000E+02  0.51100000000E-03 0.  1.
         11   -1    0    0    0    0 -0.00000000000E+00 -0.00000000000E+00 -0.45593999997E+02  0.45594000000E+02  0.51100000000E-03 0. -1.
    9900012    2    1    2    0    0  0.74329460894E+01 -0.42046227836E+02 -0.14351986380E+02  0.46142317900E+02  0.10000001269E+02 0.  0.
        -12    1    1    2    0    0 -0.74329460894E+01  0.42046227836E+02  0.14351986380E+02  0.45045682100E+02  0.00000000000E+00 0.  1.
         11    1    3    3    0    0  0.17160860451E+01 -0.31565325161E+01 -0.26657828958E+01  0.44738180057E+01  0.51100000000E-03 0.  1.
        -11    1    3    3    0    0  0.16961413859E+01 -0.11792106831E+02 -0.71694495802E+01  0.13904376529E+02  0.51100000000E-03 0. -1.
         12    1    3    3    0    0  0.40207186584E+01 -0.27097588489E+02 -0.45167539035E+01  0.27764123366E+02  0.00000000000E+00 0. -1.
</event>
<event>
 7    1  0.1563903E-008  0.4614232E+02  0.7816164E-02  0.1320468E+00
        -11   -1    0    0    0    0  0.00000000000E+00  0.00000000000E+00  0.45593999997E+02  0.45594000000E+02  0.51100000000E-03 0.  1.
         11   -1    0    0    0    0 -0.00000000000E+00 -0.00000000000E+00 -0.45593999997E+02  0.45594000000E+02  0.51100000000E-03 0. -1.
    9900012    2    1    2    0    0  0.12469134606E+02  0.51286102864E+01 -0.42980593900E+02  0.46142318594E+02  0.10000007596E+02 0.  0.
        -12    1    1    2    0    0 -0.12469134606E+02 -0.51286102864E+01  0.42980593900E+02  0.45045681406E+02  0.00000000000E+00 0.  1.
         11    1    3    3    0    0  0.26267515163E+01 -0.13190906918E+00 -0.16138933112E+01  0.30857536214E+01  0.51100000000E-03 0. -1.
        -11    1    3    3    0    0  0.67194714977E+01  0.52428717053E+01 -0.25535194975E+02  0.26919977407E+02  0.51100000000E-03 0.  1.
         12    1    3    3    0    0  0.31229115922E+01  0.17647650325E-01 -0.15831505614E+02  0.16136587566E+02  0.00000000000E+00 0. -1.
</event>
<event>
 7    1  0.1563903E-008  0.4614232E+02  0.7816164E-02  0.1320468E+00
        -11   -1    0    0    0    0  0.00000000000E+00  0.00000000000E+00  0.45593999997E+02  0.45594000000E+02  0.51100000000E-03 0.  1.
         11   -1    0    0    0    0 -0.00000000000E+00 -0.00000000000E+00 -0.45593999997E+02  0.45594000000E+02  0.51100000000E-03 0. -1.
    9900012    2    1    2    0    0  0.19042398315E+02 -0.21731980350E+02 -0.34557511404E+02  0.46142317655E+02  0.99999990281E+01 0.  0.
        -12    1    1    2    0    0 -0.19042398315E+02  0.21731980350E+02  0.34557511404E+02  0.45045682345E+02  0.00000000000E+00 0.  1.
         11    1    3    3    0    0  0.15014897227E+02 -0.15805434771E+02 -0.26017154367E+02  0.33943353232E+02  0.51100000000E-03 0. -1.
        -11    1    3    3    0    0  0.17385796832E+01  0.63114798712E-01 -0.31240667968E+00  0.17675522587E+01  0.51100000000E-03 0.  1.
         12    1    3    3    0    0  0.22889214046E+01 -0.59896603782E+01 -0.82279503580E+01  0.10431412164E+02  0.00000000000E+00 0. -1.
</event>
<event>
 7    1  0.1563903E-008  0.4614232E+02  0.7816164E-02  0.1320468E+00
        -11   -1    0    0    0    0  0.00000000000E+00  0.00000000000E+00  0.45593999997E+02  0.45594000000E+02  0.51100000000E-03 0.  1.
         11   -1    0    0    0    0 -0.00000000000E+00 -0.00000000000E+00 -0.45593999997E+02  0.45594000000E+02  0.51100000000E-03 0. -1.
    9900012    2    1    2    0    0  0.36565708259E+01  0.42444519314E+02  0.14635767816E+02  0.46142318414E+02  0.10000005952E+02 0.  0.
        -12    1    1    2    0    0 -0.36565708259E+01 -0.42444519314E+02 -0.14635767816E+02  0.45045681586E+02  0.00000000000E+00 0.  1.
         11    1    3    3    0    0  0.24571252551E+01  0.36910872686E+02  0.15639320122E+02  0.40162648333E+02  0.51100000000E-03 0. -1.
        -11    1    3    3    0    0 -0.40841496777E+00  0.85985472304E+00 -0.18469017499E+00  0.96967193034E+00  0.51100000000E-03 0.  1.
         12    1    3    3    0    0  0.16078605385E+01  0.46737919047E+01 -0.81886213060E+00  0.50099981506E+01  0.00000000000E+00 0. -1.
</event>
<event>
 7    1  0.1563903E-008  0.4614232E+02  0.7816164E-02  0.1320468E+00
        -11   -1    0    0    0    0  0.00000000000E+00  0.00000000000E+00  0.45593999997E+02  0.45594000000E+02  0.51100000000E-03 0.  1.
         11   -1    0    0    0    0 -0.00000000000E+00 -0.00000000000E+00 -0.45593999997E+02  0.45594000000E+02  0.51100000000E-03 0. -1.
    9900012    2    1    2    0    0  0.26559990877E+02  0.29731586059E+02 -0.20969340495E+02  0.46142316902E+02  0.99999921628E+01 0.  0.
        -12    1    1    2    0    0 -0.26559990877E+02 -0.29731586059E+02  0.20969340495E+02  0.45045683098E+02  0.00000000000E+00 0.  1.
         11    1    3    3    0    0  0.56536519618E+01  0.28299231960E+01 -0.17060391101E+01  0.65484971945E+01  0.51100000000E-03 0. -1.
        -11    1    3    3    0    0  0.12665249338E+02  0.16331784177E+02 -0.82750140117E+01  0.22262335285E+02  0.51100000000E-03 0.  1.
        -12    1    3    3    0    0  0.82410895770E+01  0.10569878687E+02 -0.10988287374E+02  0.17331484422E+02  0.00000000000E+00 0.  1.
</event>
<event>
 7    1  0.1563903E-008  0.4614232E+02  0.7816164E-02  0.1320468E+00
        -11   -1    0    0    0    0  0.00000000000E+00  0.00000000000E+00  0.45593999997E+02  0.45594000000E+02  0.51100000000E-03 0.  1.
         11   -1    0    0    0    0 -0.00000000000E+00 -0.00000000000E+00 -0.45593999997E+02  0.45594000000E+02  0.51100000000E-03 0. -1.
    9900012    2    1    2    0    0  0.19490750125E+02  0.30762482679E+02 -0.26512141122E+02  0.46142319764E+02  0.10000018265E+02 0.  0.
        -12    1    1    2    0    0 -0.19490750125E+02 -0.30762482679E+02  0.26512141122E+02  0.45045680236E+02  0.00000000000E+00 0.  1.
         11    1    3    3    0    0  0.31016747452E+01  0.36026855943E+01 -0.80659134002E+01  0.93626219061E+01  0.51100000000E-03 0.  1.
        -11    1    3    3    0    0  0.31295219521E+01  0.71993903917E+01 -0.48665008766E+01  0.92362308711E+01  0.51100000000E-03 0. -1.
         12    1    3    3    0    0  0.13259553428E+02  0.19960406693E+02 -0.13579726845E+02  0.27543466987E+02  0.00000000000E+00 0. -1.
</event>
<event>
 7    1  0.1563903E-008  0.4614232E+02  0.7816164E-02  0.1320468E+00
        -11   -1    0    0    0    0  0.00000000000E+00  0.00000000000E+00  0.45593999997E+02  0.45594000000E+02  0.51100000000E-03 0. -1.
         11   -1    0    0    0    0 -0.00000000000E+00 -0.00000000000E+00 -0.45593999997E+02  0.45594000000E+02  0.51100000000E-03 0.  1.
    9900012    2    1    2    0    0  0.25414962195E+02 -0.37153280865E+02  0.16813462326E+01  0.46142317548E+02  0.99999980575E+01 0.  0.
        -12    1    1    2    0    0 -0.25414962195E+02  0.37153280865E+02 -0.16813462326E+01  0.45045682452E+02  0.00000000000E+00 0.  1.
         11    1    3    3    0    0  0.25458056584E+02 -0.31936500148E+02  0.14089964636E+01  0.40866097905E+02  0.51100000000E-03 0. -1.
        -11    1    3    3    0    0 -0.16095511357E+00 -0.41994267997E+01 -0.49108921275E-01  0.42027971569E+01  0.51100000000E-03 0.  1.
         12    1    3    3    0    0  0.11786072497E+00 -0.10173539175E+01  0.32145869026E+00  0.10734224860E+01  0.00000000000E+00 0. -1.
</event>
<event>
 7    1  0.1563903E-008  0.4614232E+02  0.7816164E-02  0.1320468E+00
        -11   -1    0    0    0    0  0.00000000000E+00  0.00000000000E+00  0.45593999997E+02  0.45594000000E+02  0.51100000000E-03 0.  1.
         11   -1    0    0    0    0 -0.00000000000E+00 -0.00000000000E+00 -0.45593999997E+02  0.45594000000E+02  0.51100000000E-03 0. -1.
    9900012    2    1    2    0    0  0.17914256402E+01  0.41012298896E+01 -0.44822805674E+02  0.46142320952E+02  0.10000029094E+02 0.  0.
        -12    1    1    2    0    0 -0.17914256402E+01 -0.41012298896E+01  0.44822805674E+02  0.45045679048E+02  0.00000000000E+00 0.  1.
         11    1    3    3    0    0 -0.25246359545E+01  0.28239475152E+01 -0.29698282085E+02  0.29938878157E+02  0.51100000000E-03 0. -1.
        -11    1    3    3    0    0  0.22126602983E+01  0.15841937006E+01 -0.37578504068E+01  0.46397171485E+01  0.51100000000E-03 0.  1.
        -12    1    3    3    0    0  0.21034012963E+01 -0.30691132625E+00 -0.11366673182E+02  0.11563725646E+02  0.00000000000E+00 0.  1.
</event>
<event>
 7    1  0.1563903E-008  0.4614232E+02  0.7816164E-02  0.1320468E+00
        -11   -1    0    0    0    0  0.00000000000E+00  0.00000000000E+00  0.45593999997E+02  0.45594000000E+02  0.51100000000E-03 0.  1.
         11   -1    0    0    0    0 -0.00000000000E+00 -0.00000000000E+00 -0.45593999997E+02  0.45594000000E+02  0.51100000000E-03 0. -1.
    9900012    2    1    2    0    0 -0.10913622348E+02  0.18123300709E+02 -0.39768735349E+02  0.46142317714E+02  0.99999995746E+01 0.  0.
        -12    1    1    2    0    0  0.10913622348E+02 -0.18123300709E+02  0.39768735349E+02  0.45045682286E+02  0.00000000000E+00 0.  1.
         11    1    3    3    0    0 -0.21604675085E+01  0.12358839342E+01 -0.11864397446E+01  0.27572936881E+01  0.51100000000E-03 0. -1.
        -11    1    3    3    0    0  0.71737480950E+00  0.19665021437E+01 -0.53681326959E+01  0.57618231664E+01  0.51100000000E-03 0.  1.
         12    1    3    3    0    0 -0.94705296488E+01  0.14920914631E+02 -0.33214162908E+02  0.37623200860E+02  0.00000000000E+00 0. -1.
</event>
<event>
 7    1  0.1563903E-008  0.4614232E+02  0.7816164E-02  0.1320468E+00
        -11   -1    0    0    0    0  0.00000000000E+00  0.00000000000E+00  0.45593999997E+02  0.45594000000E+02  0.51100000000E-03 0.  1.
         11   -1    0    0    0    0 -0.00000000000E+00 -0.00000000000E+00 -0.45593999997E+02  0.45594000000E+02  0.51100000000E-03 0. -1.
    9900012    2    1    2    0    0 -0.24488024670E+02  0.97709388841E+01 -0.36523675964E+02  0.46142317578E+02  0.99999983269E+01 0.  0.
        -12    1    1    2    0    0  0.24488024670E+02 -0.97709388841E+01  0.36523675964E+02  0.45045682422E+02  0.00000000000E+00 0.  1.
         11    1    3    3    0    0 -0.16948410564E+02  0.70124403662E+01 -0.21303850601E+02  0.28111865666E+02  0.51100000000E-03 0. -1.
        -11    1    3    3    0    0 -0.60603363048E+00  0.20855976864E+01 -0.14879771157E+01  0.26326926575E+01  0.51100000000E-03 0.  1.
        -12    1    3    3    0    0 -0.69335804759E+01  0.67290083160E+00 -0.13731848248E+02  0.15397759254E+02  0.00000000000E+00 0.  1.
</event>
<event>
 7    1  0.1563903E-008  0.4614232E+02  0.7816164E-02  0.1320468E+00
        -11   -1    0    0    0    0  0.00000000000E+00  0.00000000000E+00  0.45593999997E+02  0.45594000000E+02  0.51100000000E-03 0. -1.
         11   -1    0    0    0    0 -0.00000000000E+00 -0.00000000000E+00 -0.45593999997E+02  0.45594000000E+02  0.51100000000E-03 0.  1.
    9900012    2    1    2    0    0  0.30353706799E+02 -0.30617169095E+02  0.13052010957E+02  0.46142317079E+02  0.99999937762E+01 0.  0.
        -12    1    1    2    0    0 -0.30353706799E+02  0.30617169095E+02 -0.13052010957E+02  0.45045682921E+02  0.00000000000E+00 0.  1.
         11    1    3    3    0    0  0.97863495921E+01 -0.12600245370E+02  0.73037802742E+01  0.17546624412E+02  0.51100000000E-03 0. -1.
        -11    1    3    3    0    0  0.66317486616E+01 -0.53215290203E+01 -0.10250421023E+01  0.85644306873E+01  0.51100000000E-03 0.  1.
        -12    1    3    3    0    0  0.13935608545E+02 -0.12695394705E+02  0.67732727855E+01  0.20031261979E+02  0.00000000000E+00 0.  1.
</event>
<event>
 7    1  0.1563903E-008  0.4614232E+02  0.7816164E-02  0.1320468E+00
        -11   -1    0    0    0    0  0.00000000000E+00  0.00000000000E+00  0.45593999997E+02  0.45594000000E+02  0.51100000000E-03 0.  1.
         11   -1    0    0    0    0 -0.00000000000E+00 -0.00000000000E+00 -0.45593999997E+02  0.45594000000E+02  0.51100000000E-03 0. -1.
    9900012    2    1    2    0    0  0.74335039991E+01 -0.10715837458E+02 -0.43116439187E+02  0.46142317828E+02  0.10000000610E+02 0.  0.
        -12    1    1    2    0    0 -0.74335039991E+01  0.10715837458E+02  0.43116439187E+02  0.45045682172E+02  0.00000000000E+00 0.  1.
         11    1    3    3    0    0  0.21336656323E+01 -0.10304324857E+01 -0.34554954727E+01  0.41898412095E+01  0.51100000000E-03 0. -1.
        -11    1    3    3    0    0 -0.17810520056E+01 -0.35141675842E+01 -0.78399128175E+01  0.87741525689E+01  0.51100000000E-03 0.  1.
        -12    1    3    3    0    0  0.70808903725E+01 -0.61712373883E+01 -0.31821030897E+02  0.33178324050E+02  0.00000000000E+00 0.  1.
</event>
<event>
 7    1  0.1563903E-008  0.4614232E+02  0.7816164E-02  0.1320468E+00
        -11   -1    0    0    0    0  0.00000000000E+00  0.00000000000E+00  0.45593999997E+02  0.45594000000E+02  0.51100000000E-03 0.  1.
         11   -1    0    0    0    0 -0.00000000000E+00 -0.00000000000E+00 -0.45593999997E+02  0.45594000000E+02  0.51100000000E-03 0. -1.
    9900012    2    1    2    0    0  0.37896590967E+02 -0.21888871870E+02 -0.10669548713E+02  0.46142316651E+02  0.99999898747E+01 0.  0.
        -12    1    1    2    0    0 -0.37896590967E+02  0.21888871870E+02  0.10669548713E+02  0.45045683349E+02  0.00000000000E+00 0.  1.
         11    1    3    3    0    0  0.86696589409E+01 -0.33118310709E+01 -0.18535476205E+01  0.94639764494E+01  0.51100000000E-03 0. -1.
        -11    1    3    3    0    0  0.68728468379E+01 -0.67885127663E+00 -0.25669974612E+01  0.73679263664E+01  0.51100000000E-03 0.  1.
        -12    1    3    3    0    0  0.22354085188E+02 -0.17898189523E+02 -0.62490036310E+01  0.29310413835E+02  0.00000000000E+00 0.  1.
</event>
<event>
 7    1  0.1563903E-008  0.4614232E+02  0.7816164E-02  0.1320468E+00
        -11   -1    0    0    0    0  0.00000000000E+00  0.00000000000E+00  0.45593999997E+02  0.45594000000E+02  0.51100000000E-03 0.  1.
         11   -1    0    0    0    0 -0.00000000000E+00 -0.00000000000E+00 -0.45593999997E+02  0.45594000000E+02  0.51100000000E-03 0. -1.
    9900012    2    1    2    0    0  0.17214313635E+02 -0.31439172658E+02 -0.27282948448E+02  0.46142318216E+02  0.10000004153E+02 0.  0.
        -12    1    1    2    0    0 -0.17214313635E+02  0.31439172658E+02  0.27282948448E+02  0.45045681784E+02  0.00000000000E+00 0.  1.
         11    1    3    3    0    0  0.80288098439E+01 -0.18172518674E+02 -0.14059341474E+02  0.24338597031E+02  0.51100000000E-03 0. -1.
        -11    1    3    3    0    0 -0.21179105679E+00 -0.42464295114E+01 -0.40481857828E+01  0.58706752116E+01  0.51100000000E-03 0.  1.
        -12    1    3    3    0    0  0.93972948476E+01 -0.90202244724E+01 -0.91754211906E+01  0.15933045974E+02  0.00000000000E+00 0.  1.
</event>
<event>
 7    1  0.1563903E-008  0.4614232E+02  0.7816164E-02  0.1320468E+00
        -11   -1    0    0    0    0  0.00000000000E+00  0.00000000000E+00  0.45593999997E+02  0.45594000000E+02  0.51100000000E-03 0. -1.
         11   -1    0    0    0    0 -0.00000000000E+00 -0.00000000000E+00 -0.45593999997E+02  0.45594000000E+02  0.51100000000E-03 0.  1.
    9900012    2    1    2    0    0 -0.28717622912E+02 -0.24875105323E+02  0.24200014903E+02  0.46142318166E+02  0.10000003696E+02 0.  0.
        -12    1    1    2    0    0  0.28717622912E+02  0.24875105323E+02 -0.24200014903E+02  0.45045681834E+02  0.00000000000E+00 0.  1.
         11    1    3    3    0    0 -0.24036308466E+02 -0.17532486393E+02  0.17945208335E+02  0.34744247096E+02  0.51100000000E-03 0. -1.
        -11    1    3    3    0    0 -0.37128325686E+01 -0.37640413091E+01  0.17615202286E+01  0.55727987974E+01  0.51100000000E-03 0.  1.
         12    1    3    3    0    0 -0.96848187761E+00 -0.35785776205E+01  0.44932863387E+01  0.58252722731E+01  0.00000000000E+00 0. -1.
</event>
<event>
 7    1  0.1563903E-008  0.4614232E+02  0.7816164E-02  0.1320468E+00
        -11   -1    0    0    0    0  0.00000000000E+00  0.00000000000E+00  0.45593999997E+02  0.45594000000E+02  0.51100000000E-03 0.  1.
         11   -1    0    0    0    0 -0.00000000000E+00 -0.00000000000E+00 -0.45593999997E+02  0.45594000000E+02  0.51100000000E-03 0. -1.
    9900012    2    1    2    0    0 -0.22439999512E+02 -0.38565167926E+02 -0.61877096278E+01  0.46142317569E+02  0.99999982456E+01 0.  0.
        -12    1    1    2    0    0  0.22439999512E+02  0.38565167926E+02  0.61877096278E+01  0.45045682431E+02  0.00000000000E+00 0.  1.
         11    1    3    3    0    0 -0.19800672461E+02 -0.28477736479E+02 -0.68209260015E+01  0.35349301784E+02  0.51100000000E-03 0. -1.
        -11    1    3    3    0    0 -0.18846589509E+00 -0.36423625597E+01 -0.83848110123E+00  0.37423756129E+01  0.51100000000E-03 0.  1.
         12    1    3    3    0    0 -0.24508611565E+01 -0.64450688872E+01  0.14716974749E+01  0.70506401714E+01  0.00000000000E+00 0. -1.
</event>
<event>
 7    1  0.1563903E-008  0.4614232E+02  0.7816164E-02  0.1320468E+00
        -11   -1    0    0    0    0  0.00000000000E+00  0.00000000000E+00  0.45593999997E+02  0.45594000000E+02  0.51100000000E-03 0. -1.
         11   -1    0    0    0    0 -0.00000000000E+00 -0.00000000000E+00 -0.45593999997E+02  0.45594000000E+02  0.51100000000E-03 0.  1.
    9900012    2    1    2    0    0 -0.79010661975E+01 -0.38731199502E+02  0.21600482056E+02  0.46142317776E+02  0.10000000139E+02 0.  0.
        -12    1    1    2    0    0  0.79010661975E+01  0.38731199502E+02 -0.21600482056E+02  0.45045682224E+02  0.00000000000E+00 0.  1.
         11    1    3    3    0    0 -0.61166926634E+01 -0.26046505189E+02  0.11165125383E+02  0.28991281220E+02  0.51100000000E-03 0. -1.
        -11    1    3    3    0    0  0.98181841473E+00 -0.86151051557E+01  0.70942757229E+01  0.11203247410E+02  0.51100000000E-03 0.  1.
        -12    1    3    3    0    0 -0.27661919488E+01 -0.40695891575E+01  0.33410809508E+01  0.59477891463E+01  0.00000000000E+00 0.  1.
</event>
<event>
 7    1  0.1563903E-008  0.4614232E+02  0.7816164E-02  0.1320468E+00
        -11   -1    0    0    0    0  0.00000000000E+00  0.00000000000E+00  0.45593999997E+02  0.45594000000E+02  0.51100000000E-03 0.  1.
         11   -1    0    0    0    0 -0.00000000000E+00 -0.00000000000E+00 -0.45593999997E+02  0.45594000000E+02  0.51100000000E-03 0. -1.
    9900012    2    1    2    0    0  0.15189613430E+02  0.78710693493E+01 -0.41670556411E+02  0.46142319180E+02  0.10000012942E+02 0.  0.
        -12    1    1    2    0    0 -0.15189613430E+02 -0.78710693493E+01  0.41670556411E+02  0.45045680820E+02  0.00000000000E+00 0.  1.
         11    1    3    3    0    0  0.76116257279E+01  0.22333675184E+01 -0.15353587170E+02  0.17281707553E+02  0.51100000000E-03 0. -1.
        -11    1    3    3    0    0  0.64761540018E+01  0.61398818548E+01 -0.26159188929E+02  0.27639498649E+02  0.51100000000E-03 0.  1.
        -12    1    3    3    0    0  0.11018337007E+01 -0.50218002389E+00 -0.15778031214E+00  0.12211129789E+01  0.00000000000E+00 0.  1.
</event>
<event>
 7    1  0.1563903E-008  0.4614232E+02  0.7816164E-02  0.1320468E+00
        -11   -1    0    0    0    0  0.00000000000E+00  0.00000000000E+00  0.45593999997E+02  0.45594000000E+02  0.51100000000E-03 0. -1.
         11   -1    0    0    0    0 -0.00000000000E+00 -0.00000000000E+00 -0.45593999997E+02  0.45594000000E+02  0.51100000000E-03 0.  1.
    9900012    2    1    2    0    0  0.14332327723E+02 -0.42531763778E+02 -0.38401773469E+01  0.46142317520E+02  0.99999978026E+01 0.  0.
        -12    1    1    2    0    0 -0.14332327723E+02  0.42531763778E+02  0.38401773469E+01  0.45045682480E+02  0.00000000000E+00 0.  1.
         11    1    3    3    0    0  0.73345634611E+01 -0.19648386827E+02 -0.51255211776E+01  0.21589948904E+02  0.51100000000E-03 0. -1.
        -11    1    3    3    0    0  0.41723570777E+01 -0.19852389890E+02  0.18506304510E+01  0.20370340725E+02  0.51100000000E-03 0.  1.
         12    1    3    3    0    0  0.28254071843E+01 -0.30309870613E+01 -0.56528662029E+00  0.41820278916E+01  0.00000000000E+00 0. -1.
</event>
<event>
 7    1  0.1563903E-008  0.4614232E+02  0.7816164E-02  0.1320468E+00
        -11   -1    0    0    0    0  0.00000000000E+00  0.00000000000E+00  0.45593999997E+02  0.45594000000E+02  0.51100000000E-03 0. -1.
         11   -1    0    0    0    0 -0.00000000000E+00 -0.00000000000E+00 -0.45593999997E+02  0.45594000000E+02  0.51100000000E-03 0.  1.
    9900012    2    1    2    0    0  0.16595839676E+01 -0.31229792576E+02  0.32420043959E+02  0.46142318592E+02  0.10000007573E+02 0.  0.
        -12    1    1    2    0    0 -0.16595839676E+01  0.31229792576E+02 -0.32420043959E+02  0.45045681408E+02  0.00000000000E+00 0.  1.
         11    1    3    3    0    0  0.43955366411E+01 -0.24597452381E+02  0.27040931691E+02  0.36818030813E+02  0.51100000000E-03 0. -1.
        -11    1    3    3    0    0 -0.69236508905E+00 -0.24261008819E-01  0.38158041643E+00  0.79092470464E+00  0.51100000000E-03 0.  1.
         12    1    3    3    0    0 -0.20435875844E+01 -0.66080791854E+01  0.49975318519E+01  0.85333630736E+01  0.00000000000E+00 0. -1.
</event>
<event>
 7    1  0.1563903E-008  0.4614232E+02  0.7816164E-02  0.1320468E+00
        -11   -1    0    0    0    0  0.00000000000E+00  0.00000000000E+00  0.45593999997E+02  0.45594000000E+02  0.51100000000E-03 0. -1.
         11   -1    0    0    0    0 -0.00000000000E+00 -0.00000000000E+00 -0.45593999997E+02  0.45594000000E+02  0.51100000000E-03 0.  1.
    9900012    2    1    2    0    0  0.44311507502E+02 -0.59587802733E+01 -0.54860520468E+01  0.46142317337E+02  0.99999961353E+01 0.  0.
        -12    1    1    2    0    0 -0.44311507502E+02  0.59587802733E+01  0.54860520468E+01  0.45045682663E+02  0.00000000000E+00 0.  1.
         11    1    3    3    0    0  0.91194875946E+01 -0.63658733517E+00 -0.36589261738E+01  0.98467272954E+01  0.51100000000E-03 0. -1.
        -11    1    3    3    0    0  0.22236698211E+02 -0.40580614456E+01  0.20946202921E+01  0.22700793916E+02  0.51100000000E-03 0.  1.
        -12    1    3    3    0    0  0.12955321697E+02 -0.12641314926E+01 -0.39217461651E+01  0.13594796126E+02  0.00000000000E+00 0.  1.
</event>
<event>
 7    1  0.1563903E-008  0.4614232E+02  0.7816164E-02  0.1320468E+00
        -11   -1    0    0    0    0  0.00000000000E+00  0.00000000000E+00  0.45593999997E+02  0.45594000000E+02  0.51100000000E-03 0. -1.
         11   -1    0    0    0    0 -0.00000000000E+00 -0.00000000000E+00 -0.45593999997E+02  0.45594000000E+02  0.51100000000E-03 0.  1.
    9900012    2    1    2    0    0 -0.20056706752E+02 -0.25346083300E+02  0.31375438186E+02  0.46142317124E+02  0.99999941941E+01 0.  0.
        -12    1    1    2    0    0  0.20056706752E+02  0.25346083300E+02 -0.31375438186E+02  0.45045682876E+02  0.00000000000E+00 0.  1.
         11    1    3    3    0    0 -0.12011352193E+01 -0.13651312900E+01  0.25635557714E+01  0.31429488873E+01  0.51100000000E-03 0. -1.
        -11    1    3    3    0    0 -0.43972051888E+01 -0.96504892809E+00  0.60853483937E+01  0.75695573345E+01  0.51100000000E-03 0.  1.
        -12    1    3    3    0    0 -0.14458366344E+02 -0.23015903082E+02  0.22726534021E+02  0.35429810903E+02  0.00000000000E+00 0.  1.
</event>
<event>
 7    1  0.1563903E-008  0.4614232E+02  0.7816164E-02  0.1320468E+00
        -11   -1    0    0    0    0  0.00000000000E+00  0.00000000000E+00  0.45593999997E+02  0.45594000000E+02  0.51100000000E-03 0.  1.
         11   -1    0    0    0    0 -0.00000000000E+00 -0.00000000000E+00 -0.45593999997E+02  0.45594000000E+02  0.51100000000E-03 0. -1.
    9900012    2    1    2    0    0 -0.57719234875E+01  0.35272561420E+02 -0.27416145730E+02  0.46142315006E+02  0.99999748784E+01 0.  0.
        -12    1    1    2    0    0  0.57719234875E+01 -0.35272561420E+02  0.27416145730E+02  0.45045684994E+02  0.00000000000E+00 0.  1.
         11    1    3    3    0    0 -0.28411753752E+01  0.77829377786E+01 -0.21364060880E+01  0.85563210091E+01  0.51100000000E-03 0.  1.
        -11    1    3    3    0    0 -0.44031620535E+00  0.64290821904E+01 -0.42485274815E+01  0.77186114162E+01  0.51100000000E-03 0. -1.
         12    1    3    3    0    0 -0.24904319069E+01  0.21060541451E+02 -0.21031212160E+02  0.29867382581E+02  0.00000000000E+00 0. -1.
</event>
<event>
 7    1  0.1563903E-008  0.4614231E+02  0.7816164E-02  0.1320468E+00
        -11   -1    0    0    0    0  0.00000000000E+00  0.00000000000E+00  0.45593999997E+02  0.45594000000E+02  0.51100000000E-03 0. -1.
         11   -1    0    0    0    0 -0.00000000000E+00 -0.00000000000E+00 -0.45593999997E+02  0.45594000000E+02  0.51100000000E-03 0.  1.
    9900012    2    1    2    0    0  0.16053778262E+02  0.19049883912E+01  0.42044753659E+02  0.46142311111E+02  0.99999393603E+01 0.  0.
        -12    1    1    2    0    0 -0.16053778262E+02 -0.19049883912E+01 -0.42044753659E+02  0.45045688889E+02  0.00000000000E+00 0.  1.
         11    1    3    3    0    0  0.15001930897E+02  0.18685884117E+00  0.31975474915E+02  0.35320303555E+02  0.51100000000E-03 0. -1.
        -11    1    3    3    0    0  0.10456983392E+01  0.27390819699E+01  0.78315934031E+01  0.83624105704E+01  0.51100000000E-03 0.  1.
         12    1    3    3    0    0  0.61490262387E-02 -0.10209524198E+01  0.22376853399E+01  0.24595969862E+01  0.00000000000E+00 0. -1.
</event>
<event>
 7    1  0.1563903E-008  0.4614232E+02  0.7816164E-02  0.1320468E+00
        -11   -1    0    0    0    0  0.00000000000E+00  0.00000000000E+00  0.45593999997E+02  0.45594000000E+02  0.51100000000E-03 0.  1.
         11   -1    0    0    0    0 -0.00000000000E+00 -0.00000000000E+00 -0.45593999997E+02  0.45594000000E+02  0.51100000000E-03 0. -1.
    9900012    2    1    2    0    0  0.37721297186E+02  0.18483350135E+02  0.16265998897E+02  0.46142320809E+02  0.10000027794E+02 0.  0.
        -12    1    1    2    0    0 -0.37721297186E+02 -0.18483350135E+02 -0.16265998897E+02  0.45045679191E+02  0.00000000000E+00 0.  1.
         11    1    3    3    0    0  0.29550342301E+02  0.14634978222E+02  0.10352231262E+02  0.34562610000E+02  0.51100000000E-03 0. -1.
        -11    1    3    3    0    0  0.67373282426E+01  0.46547504100E+01  0.55576394576E+01  0.98967494577E+01  0.51100000000E-03 0.  1.
        -12    1    3    3    0    0  0.14336266432E+01 -0.80637849672E+00  0.35612817770E+00  0.16829613516E+01  0.00000000000E+00 0.  1.
</event>
<event>
 7    1  0.1563903E-008  0.4614232E+02  0.7816164E-02  0.1320468E+00
        -11   -1    0    0    0    0  0.00000000000E+00  0.00000000000E+00  0.45593999997E+02  0.45594000000E+02  0.51100000000E-03 0.  1.
         11   -1    0    0    0    0 -0.00000000000E+00 -0.00000000000E+00 -0.45593999997E+02  0.45594000000E+02  0.51100000000E-03 0. -1.
    9900012    2    1    2    0    0  0.10933518924E+02  0.16606366895E+02 -0.40420296018E+02  0.46142316658E+02  0.99999899431E+01 0.  0.
        -12    1    1    2    0    0 -0.10933518924E+02 -0.16606366895E+02  0.40420296018E+02  0.45045683342E+02  0.00000000000E+00 0.  1.
         11    1    3    3    0    0  0.65910142537E+01  0.15084985810E+02 -0.32171966902E+02  0.36139088539E+02  0.51100000000E-03 0. -1.
        -11    1    3    3    0    0  0.30820880716E+01  0.23894373183E+01 -0.70604878233E+01  0.80659262421E+01  0.51100000000E-03 0.  1.
         12    1    3    3    0    0  0.12604165990E+01 -0.86805623349E+00 -0.11878412928E+01  0.19373018775E+01  0.00000000000E+00 0. -1.
</event>
<event>
 7    1  0.1563903E-008  0.4614232E+02  0.7816164E-02  0.1320468E+00
        -11   -1    0    0    0    0  0.00000000000E+00  0.00000000000E+00  0.45593999997E+02  0.45594000000E+02  0.51100000000E-03 0. -1.
         11   -1    0    0    0    0 -0.00000000000E+00 -0.00000000000E+00 -0.45593999997E+02  0.45594000000E+02  0.51100000000E-03 0.  1.
    9900012    2    1    2    0    0 -0.29289425224E+02 -0.13201239070E+02  0.31574834279E+02  0.46142319822E+02  0.10000018795E+02 0.  0.
        -12    1    1    2    0    0  0.29289425224E+02  0.13201239070E+02 -0.31574834279E+02  0.45045680178E+02  0.00000000000E+00 0.  1.
         11    1    3    3    0    0 -0.33750858678E+01  0.13240951215E+01  0.35821316642E+01  0.50966753895E+01  0.51100000000E-03 0. -1.
        -11    1    3    3    0    0 -0.11145271335E+02 -0.81845588533E+01  0.11134158825E+02  0.17753128450E+02  0.51100000000E-03 0.  1.
         12    1    3    3    0    0 -0.14769068021E+02 -0.63407753380E+01  0.16858543790E+02  0.23292515983E+02  0.00000000000E+00 0. -1.
</event>
<event>
 7    1  0.1563903E-008  0.4614232E+02  0.7816164E-02  0.1320468E+00
        -11   -1    0    0    0    0  0.00000000000E+00  0.00000000000E+00  0.45593999997E+02  0.45594000000E+02  0.51100000000E-03 0.  1.
         11   -1    0    0    0    0 -0.00000000000E+00 -0.00000000000E+00 -0.45593999997E+02  0.45594000000E+02  0.51100000000E-03 0. -1.
    9900012    2    1    2    0    0  0.43549649588E+02 -0.11135389833E+02 -0.29231042684E+01  0.46142318469E+02  0.10000006456E+02 0.  0.
        -12    1    1    2    0    0 -0.43549649588E+02  0.11135389833E+02  0.29231042684E+01  0.45045681531E+02  0.00000000000E+00 0.  1.
         11    1    3    3    0    0  0.29296402636E+02 -0.61396942349E+01 -0.62945717186E+01  0.30587525008E+02  0.51100000000E-03 0. -1.
        -11    1    3    3    0    0  0.20989904049E+01 -0.13091092657E+01  0.34052656156E+00  0.24970955908E+01  0.51100000000E-03 0.  1.
         12    1    3    3    0    0  0.12154256547E+02 -0.36865863325E+01  0.30309408887E+01  0.13057697870E+02  0.00000000000E+00 0. -1.
</event>
<event>
 7    1  0.1563903E-008  0.4614232E+02  0.7816164E-02  0.1320468E+00
        -11   -1    0    0    0    0  0.00000000000E+00  0.00000000000E+00  0.45593999997E+02  0.45594000000E+02  0.51100000000E-03 0.  1.
         11   -1    0    0    0    0 -0.00000000000E+00 -0.00000000000E+00 -0.45593999997E+02  0.45594000000E+02  0.51100000000E-03 0. -1.
    9900012    2    1    2    0    0 -0.13935595066E+02 -0.42757448625E+02 -0.25909995692E+01  0.46142317615E+02  0.99999986657E+01 0.  0.
        -12    1    1    2    0    0  0.13935595066E+02  0.42757448625E+02  0.25909995692E+01  0.45045682385E+02  0.00000000000E+00 0.  1.
         11    1    3    3    0    0 -0.74276594772E+01 -0.22502961213E+02 -0.15657480215E+01  0.23748788512E+02  0.51100000000E-03 0. -1.
        -11    1    3    3    0    0 -0.85136686952E+00 -0.68253416493E+01  0.26405222627E+01  0.73676639620E+01  0.51100000000E-03 0.  1.
        -12    1    3    3    0    0 -0.56565687194E+01 -0.13429145763E+02 -0.36657738103E+01  0.15025865141E+02  0.00000000000E+00 0.  1.
</event>
<event>
 7    1  0.1563903E-008  0.4614232E+02  0.7816164E-02  0.1320468E+00
        -11   -1    0    0    0    0  0.00000000000E+00  0.00000000000E+00  0.45593999997E+02  0.45594000000E+02  0.51100000000E-03 0.  1.
         11   -1    0    0    0    0 -0.00000000000E+00 -0.00000000000E+00 -0.45593999997E+02  0.45594000000E+02  0.51100000000E-03 0. -1.
    9900012    2    1    2    0    0 -0.34972766364E+02 -0.10623899725E+02 -0.26327779279E+02  0.46142316585E+02  0.99999892761E+01 0.  0.
        -12    1    1    2    0    0  0.34972766364E+02  0.10623899725E+02  0.26327779279E+02  0.45045683415E+02  0.00000000000E+00 0.  1.
         11    1    3    3    0    0 -0.21611289932E+02 -0.86616102035E+01 -0.13150887237E+02  0.26739805146E+02  0.51100000000E-03 0. -1.
        -11    1    3    3    0    0 -0.12526886920E+02 -0.30115868503E+01 -0.11642899007E+02  0.17365184964E+02  0.51100000000E-03 0.  1.
         12    1    3    3    0    0 -0.83458951215E+00  0.10492973289E+01 -0.15339930346E+01  0.20373264756E+01  0.00000000000E+00 0. -1.
</event>
<event>
 7    1  0.1563903E-008  0.4614232E+02  0.7816164E-02  0.1320468E+00
        -11   -1    0    0    0    0  0.00000000000E+00  0.00000000000E+00  0.45593999997E+02  0.45594000000E+02  0.51100000000E-03 0.  1.
         11   -1    0    0    0    0 -0.00000000000E+00 -0.00000000000E+00 -0.45593999997E+02  0.45594000000E+02  0.51100000000E-03 0. -1.
    9900012    2    1    2    0    0  0.18386395070E+02  0.18943127832E+02 -0.36499476234E+02  0.46142318952E+02  0.10000010861E+02 0.  0.
        -12    1    1    2    0    0 -0.18386395070E+02 -0.18943127832E+02  0.36499476234E+02  0.45045681048E+02  0.00000000000E+00 0.  1.
         11    1    3    3    0    0  0.10045961263E+02  0.15508970860E+02 -0.19665390912E+02  0.26984757083E+02  0.51100000000E-03 0. -1.
        -11    1    3    3    0    0  0.37267776098E+00 -0.12353361474E+00 -0.10667552835E+01  0.11367129644E+01  0.51100000000E-03 0.  1.
         12    1    3    3    0    0  0.79677560452E+01  0.35576905865E+01 -0.15767330038E+02  0.18020848904E+02  0.00000000000E+00 0. -1.
</event>
<event>
 7    1  0.1563903E-008  0.4614232E+02  0.7816164E-02  0.1320468E+00
        -11   -1    0    0    0    0  0.00000000000E+00  0.00000000000E+00  0.45593999997E+02  0.45594000000E+02  0.51100000000E-03 0.  1.
         11   -1    0    0    0    0 -0.00000000000E+00 -0.00000000000E+00 -0.45593999997E+02  0.45594000000E+02  0.51100000000E-03 0. -1.
    9900012    2    1    2    0    0  0.18987287088E+02 -0.55650549136E+01 -0.40467595751E+02  0.46142320818E+02  0.10000027872E+02 0.  0.
        -12    1    1    2    0    0 -0.18987287088E+02  0.55650549136E+01  0.40467595751E+02  0.45045679182E+02  0.00000000000E+00 0.  1.
         11    1    3    3    0    0  0.86661708585E+01 -0.29677241157E+01 -0.11253619540E+02  0.14510474038E+02  0.51100000000E-03 0. -1.
        -11    1    3    3    0    0  0.16114075191E+01  0.77577912981E+00 -0.13402744046E+01  0.22349056337E+01  0.51100000000E-03 0.  1.
        -12    1    3    3    0    0  0.87097087105E+01 -0.33731099278E+01 -0.27873701806E+02  0.29396941146E+02  0.00000000000E+00 0.  1.
</event>
<event>
 7    1  0.1563903E-008  0.4614232E+02  0.7816164E-02  0.1320468E+00
        -11   -1    0    0    0    0  0.00000000000E+00  0.00000000000E+00  0.45593999997E+02  0.45594000000E+02  0.51100000000E-03 0. -1.
         11   -1    0    0    0    0 -0.00000000000E+00 -0.00000000000E+00 -0.45593999997E+02  0.45594000000E+02  0.51100000000E-03 0.  1.
    9900012    2    1    2    0    0  0.70827172531E+01 -0.39089132621E+02  0.21236487937E+02  0.46142316603E+02  0.99999894415E+01 0.  0.
        -12    1    1    2    0    0 -0.70827172531E+01  0.39089132621E+02 -0.21236487937E+02  0.45045683397E+02  0.00000000000E+00 0.  1.
         11    1    3    3    0    0 -0.24274771286E+01 -0.10618598841E+02  0.62842144334E+01  0.12575318599E+02  0.51100000000E-03 0. -1.
        -11    1    3    3    0    0  0.43370395885E+01 -0.15282789288E+02  0.79981674270E+01  0.17786068798E+02  0.51100000000E-03 0.  1.
         12    1    3    3    0    0  0.51731547932E+01 -0.13187744492E+02  0.69541060766E+01  0.15780929207E+02  0.00000000000E+00 0. -1.
</event>
<event>
 7    1  0.1563903E-008  0.4614232E+02  0.7816164E-02  0.1320468E+00
        -11   -1    0    0    0    0  0.00000000000E+00  0.00000000000E+00  0.45593999997E+02  0.45594000000E+02  0.51100000000E-03 0.  1.
         11   -1    0    0    0    0 -0.00000000000E+00 -0.00000000000E+00 -0.45593999997E+02  0.45594000000E+02  0.51100000000E-03 0. -1.
    9900012    2    1    2    0    0  0.17329558350E+02 -0.17630402050E+02 -0.37655926569E+02  0.46142317912E+02  0.10000001374E+02 0.  0.
        -12    1    1    2    0    0 -0.17329558350E+02  0.17630402050E+02  0.37655926569E+02  0.45045682088E+02  0.00000000000E+00 0.  1.
         11    1    3    3    0    0  0.64735542237E+01 -0.11037148463E+02 -0.14320103586E+02  0.19203929740E+02  0.51100000000E-03 0. -1.
        -11    1    3    3    0    0  0.11229781484E+02 -0.61023501309E+01 -0.22711149422E+02  0.26060371786E+02  0.51100000000E-03 0.  1.
        -12    1    3    3    0    0 -0.37377735792E+00 -0.49090345569E+00 -0.62467356142E+00  0.87801638620E+00  0.00000000000E+00 0.  1.
</event>
<event>
 7    1  0.1563903E-008  0.4614232E+02  0.7816164E-02  0.1320468E+00
        -11   -1    0    0    0    0  0.00000000000E+00  0.00000000000E+00  0.45593999997E+02  0.45594000000E+02  0.51100000000E-03 0.  1.
         11   -1    0    0    0    0 -0.00000000000E+00 -0.00000000000E+00 -0.45593999997E+02  0.45594000000E+02  0.51100000000E-03 0. -1.
    9900012    2    1    2    0    0  0.99183257711E+01 -0.43094820524E+02 -0.85776726621E+01  0.46142320847E+02  0.10000028135E+02 0.  0.
        -12    1    1    2    0    0 -0.99183257711E+01  0.43094820524E+02  0.85776726621E+01  0.45045679153E+02  0.00000000000E+00 0.  1.
         11    1    3    3    0    0  0.75393358848E+01 -0.35428548510E+02 -0.91263425611E+01  0.37353898912E+02  0.51100000000E-03 0. -1.
        -11    1    3    3    0    0  0.27911871214E+01 -0.39204404466E+01 -0.59758966566E+00  0.48495043573E+01  0.51100000000E-03 0.  1.
         12    1    3    3    0    0 -0.41219723515E+00 -0.37458315672E+01  0.11462595647E+01  0.39389175772E+01  0.00000000000E+00 0. -1.
</event>
<event>
 7    1  0.1563903E-008  0.4614232E+02  0.7816164E-02  0.1320468E+00
        -11   -1    0    0    0    0  0.00000000000E+00  0.00000000000E+00  0.45593999997E+02  0.45594000000E+02  0.51100000000E-03 0.  1.
         11   -1    0    0    0    0 -0.00000000000E+00 -0.00000000000E+00 -0.45593999997E+02  0.45594000000E+02  0.51100000000E-03 0. -1.
    9900012    2    1    2    0    0 -0.38328504399E+00 -0.31435677627E+02 -0.32260885644E+02  0.46142317878E+02  0.10000001066E+02 0.  0.
        -12    1    1    2    0    0  0.38328504399E+00  0.31435677627E+02  0.32260885644E+02  0.45045682122E+02  0.00000000000E+00 0.  1.
         11    1    3    3    0    0  0.21025321483E+01 -0.96358130487E+01 -0.12825810564E+02  0.16179337176E+02  0.51100000000E-03 0. -1.
        -11    1    3    3    0    0  0.14174873366E+01 -0.60777147840E+01 -0.31417129489E+01  0.69870056433E+01  0.51100000000E-03 0.  1.
        -12    1    3    3    0    0 -0.39033045290E+01 -0.15722149794E+02 -0.16293362131E+02  0.22975975059E+02  0.00000000000E+00 0.  1.
</event>
<event>
 7    1  0.1563903E-008  0.4614232E+02  0.7816164E-02  0.1320468E+00
        -11   -1    0    0    0    0  0.00000000000E+00  0.00000000000E+00  0.45593999997E+02  0.45594000000E+02  0.51100000000E-03 0. -1.
         11   -1    0    0    0    0 -0.00000000000E+00 -0.00000000000E+00 -0.45593999997E+02  0.45594000000E+02  0.51100000000E-03 0.  1.
    9900012    2    1    2    0    0 -0.11079128427E+02  0.39886265686E+02  0.17760972684E+02  0.46142318434E+02  0.10000006133E+02 0.  0.
        -12    1    1    2    0    0  0.11079128427E+02 -0.39886265686E+02 -0.17760972684E+02  0.45045681566E+02  0.00000000000E+00 0.  1.
         11    1    3    3    0    0 -0.55802213384E+01  0.15205485763E+02  0.45931950870E+01  0.16835768734E+02  0.51100000000E-03 0. -1.
        -11    1    3    3    0    0  0.14490736268E+00  0.78007847438E+01  0.69634247103E+01  0.10457653882E+02  0.51100000000E-03 0.  1.
        -12    1    3    3    0    0 -0.56438144509E+01  0.16879995179E+02  0.62043528870E+01  0.18848895818E+02  0.00000000000E+00 0.  1.
</event>
<event>
 7    1  0.1563903E-008  0.4614232E+02  0.7816164E-02  0.1320468E+00
        -11   -1    0    0    0    0  0.00000000000E+00  0.00000000000E+00  0.45593999997E+02  0.45594000000E+02  0.51100000000E-03 0.  1.
         11   -1    0    0    0    0 -0.00000000000E+00 -0.00000000000E+00 -0.45593999997E+02  0.45594000000E+02  0.51100000000E-03 0. -1.
    9900012    2    1    2    0    0 -0.21204458138E+02  0.39225018924E+02 -0.63939124993E+01  0.46142320168E+02  0.10000021945E+02 0.  0.
        -12    1    1    2    0    0  0.21204458138E+02 -0.39225018924E+02  0.63939124993E+01  0.45045679832E+02  0.00000000000E+00 0.  1.
         11    1    3    3    0    0 -0.12237278794E+02  0.23936986785E+02 -0.64378608215E+01  0.27643740355E+02  0.51100000000E-03 0. -1.
        -11    1    3    3    0    0 -0.65524444400E+01  0.70878818768E+01 -0.16262894090E+01  0.97886370421E+01  0.51100000000E-03 0.  1.
        -12    1    3    3    0    0 -0.24147349037E+01  0.82001502624E+01  0.16702377312E+01  0.87099427702E+01  0.00000000000E+00 0.  1.
</event>
<event>
 7    1  0.1563903E-008  0.4614232E+02  0.7816164E-02  0.1320468E+00
        -11   -1    0    0    0    0  0.00000000000E+00  0.00000000000E+00  0.45593999997E+02  0.45594000000E+02  0.51100000000E-03 0.  1.
         11   -1    0    0    0    0 -0.00000000000E+00 -0.00000000000E+00 -0.45593999997E+02  0.45594000000E+02  0.51100000000E-03 0. -1.
    9900012    2    1    2    0    0  0.60072464832E+01 -0.23704869739E+02 -0.37829955167E+02  0.46142319102E+02  0.10000012226E+02 0.  0.
        -12    1    1    2    0    0 -0.60072464832E+01  0.23704869739E+02  0.37829955167E+02  0.45045680898E+02  0.00000000000E+00 0.  1.
         11    1    3    3    0    0 -0.12331676298E+01 -0.13567152657E+02 -0.19921318389E+02  0.24133944150E+02  0.51100000000E-03 0. -1.
        -11    1    3    3    0    0  0.34704866806E+01 -0.71592873900E+01 -0.10401865131E+02  0.13095742521E+02  0.51100000000E-03 0.  1.
         12    1    3    3    0    0  0.37699274324E+01 -0.29784296924E+01 -0.75067716467E+01  0.89126324301E+01  0.00000000000E+00 0. -1.
</event>
<event>
 7    1  0.1563903E-008  0.4614232E+02  0.7816164E-02  0.1320468E+00
        -11   -1    0    0    0    0  0.00000000000E+00  0.00000000000E+00  0.45593999997E+02  0.45594000000E+02  0.51100000000E-03 0.  1.
         11   -1    0    0    0    0 -0.00000000000E+00 -0.00000000000E+00 -0.45593999997E+02  0.45594000000E+02  0.51100000000E-03 0. -1.
    9900012    2    1    2    0    0  0.30692055188E+01 -0.14035957157E+02 -0.42692919629E+02  0.46142317607E+02  0.99999985914E+01 0.  0.
        -12    1    1    2    0    0 -0.30692055188E+01  0.14035957157E+02  0.42692919629E+02  0.45045682393E+02  0.00000000000E+00 0.  1.
         11    1    3    3    0    0  0.42528620645E+01 -0.46917056557E+01 -0.23568812666E+02  0.24404668988E+02  0.51100000000E-03 0. -1.
        -11    1    3    3    0    0 -0.18844607013E+01 -0.77127075863E+01 -0.11950394841E+02  0.14347438362E+02  0.51100000000E-03 0.  1.
        -12    1    3    3    0    0  0.70080415567E+00 -0.16315439153E+01 -0.71737121226E+01  0.73902102562E+01  0.00000000000E+00 0.  1.
</event>
<event>
 7    1  0.1563903E-008  0.4614232E+02  0.7816164E-02  0.1320468E+00
        -11   -1    0    0    0    0  0.00000000000E+00  0.00000000000E+00  0.45593999997E+02  0.45594000000E+02  0.51100000000E-03 0.  1.
         11   -1    0    0    0    0 -0.00000000000E+00 -0.00000000000E+00 -0.45593999997E+02  0.45594000000E+02  0.51100000000E-03 0. -1.
    9900012    2    1    2    0    0 -0.27658175308E+02  0.34647176289E+02 -0.79819820871E+01  0.46142317363E+02  0.99999963676E+01 0.  0.
        -12    1    1    2    0    0  0.27658175308E+02 -0.34647176289E+02  0.79819820871E+01  0.45045682637E+02  0.00000000000E+00 0.  1.
         11    1    3    3    0    0 -0.50627949361E+00  0.54044949641E+01 -0.33238173488E+00  0.54383235120E+01  0.51100000000E-03 0.  1.
        -11    1    3    3    0    0 -0.25714140411E+02  0.26821852776E+02 -0.69244023213E+01  0.37796509774E+02  0.51100000000E-03 0. -1.
        -12    1    3    3    0    0 -0.14377554043E+01  0.24208285497E+01 -0.72519803099E+00  0.29074840762E+01  0.00000000000E+00 0.  1.
</event>
<event>
 7    1  0.1563903E-008  0.4614232E+02  0.7816164E-02  0.1320468E+00
        -11   -1    0    0    0    0  0.00000000000E+00  0.00000000000E+00  0.45593999997E+02  0.45594000000E+02  0.51100000000E-03 0.  1.
         11   -1    0    0    0    0 -0.00000000000E+00 -0.00000000000E+00 -0.45593999997E+02  0.45594000000E+02  0.51100000000E-03 0. -1.
    9900012    2    1    2    0    0 -0.36295060901E+02 -0.92927480323E+01 -0.25008538359E+02  0.46142316492E+02  0.99999884291E+01 0.  0.
        -12    1    1    2    0    0  0.36295060901E+02  0.92927480323E+01  0.25008538359E+02  0.45045683508E+02  0.00000000000E+00 0.  1.
         11    1    3    3    0    0 -0.30899809986E+02 -0.52450408821E+01 -0.18221292792E+02  0.36253609783E+02  0.51100000000E-03 0. -1.
        -11    1    3    3    0    0 -0.26006536829E+00  0.32308852965E+00 -0.19485499891E+00  0.45824548607E+00  0.51100000000E-03 0.  1.
         12    1    3    3    0    0 -0.51351855473E+01 -0.43707956799E+01 -0.65923905683E+01  0.94304612233E+01  0.00000000000E+00 0. -1.
</event>
<event>
 7    1  0.1563903E-008  0.4614232E+02  0.7816164E-02  0.1320468E+00
        -11   -1    0    0    0    0  0.00000000000E+00  0.00000000000E+00  0.45593999997E+02  0.45594000000E+02  0.51100000000E-03 0.  1.
         11   -1    0    0    0    0 -0.00000000000E+00 -0.00000000000E+00 -0.45593999997E+02  0.45594000000E+02  0.51100000000E-03 0. -1.
    9900012    2    1    2    0    0  0.35403058191E+02  0.55511337095E+01 -0.27293257131E+02  0.46142317637E+02  0.99999988668E+01 0.  0.
        -12    1    1    2    0    0 -0.35403058191E+02 -0.55511337095E+01  0.27293257131E+02  0.45045682363E+02  0.00000000000E+00 0.  1.
         11    1    3    3    0    0  0.19217241757E+02  0.63342598049E+01 -0.14361885198E+02  0.24813080718E+02  0.51100000000E-03 0. -1.
        -11    1    3    3    0    0  0.81090989499E+01 -0.28982693306E+01 -0.64175659248E+01  0.10739767388E+02  0.51100000000E-03 0.  1.
        -12    1    3    3    0    0  0.80767174845E+01  0.21151432352E+01 -0.65138060081E+01  0.10589469531E+02  0.00000000000E+00 0.  1.
</event>
<event>
 7    1  0.1563903E-008  0.4614232E+02  0.7816164E-02  0.1320468E+00
        -11   -1    0    0    0    0  0.00000000000E+00  0.00000000000E+00  0.45593999997E+02  0.45594000000E+02  0.51100000000E-03 0.  1.
         11   -1    0    0    0    0 -0.00000000000E+00 -0.00000000000E+00 -0.45593999997E+02  0.45594000000E+02  0.51100000000E-03 0. -1.
    9900012    2    1    2    0    0 -0.10121490478E+02  0.43571842142E+02 -0.53069326140E+01  0.46142317289E+02  0.99999956961E+01 0.  0.
        -12    1    1    2    0    0  0.10121490478E+02 -0.43571842142E+02  0.53069326140E+01  0.45045682711E+02  0.00000000000E+00 0.  1.
         11    1    3    3    0    0 -0.49913909944E+01  0.17361065699E+02 -0.23784374616E+01  0.18220251132E+02  0.51100000000E-03 0. -1.
        -11    1    3    3    0    0 -0.63477414184E+01  0.25184683988E+02 -0.35478287519E+01  0.26213531196E+02  0.51100000000E-03 0.  1.
        -12    1    3    3    0    0  0.12176419345E+01  0.10260924548E+01  0.61933359942E+00  0.17085349613E+01  0.00000000000E+00 0.  1.
</event>
<event>
 7    1  0.1563903E-008  0.4614232E+02  0.7816164E-02  0.1320468E+00
        -11   -1    0    0    0    0  0.00000000000E+00  0.00000000000E+00  0.45593999997E+02  0.45594000000E+02  0.51100000000E-03 0. -1.
         11   -1    0    0    0    0 -0.00000000000E+00 -0.00000000000E+00 -0.45593999997E+02  0.45594000000E+02  0.51100000000E-03 0.  1.
    9900012    2    1    2    0    0 -0.95961907309E+01  0.39638521726E+02  0.19126269547E+02  0.46142317988E+02  0.10000002067E+02 0.  0.
        -12    1    1    2    0    0  0.95961907309E+01 -0.39638521726E+02 -0.19126269547E+02  0.45045682012E+02  0.00000000000E+00 0.  1.
         11    1    3    3    0    0 -0.69465650644E+01  0.25697513721E+02  0.11431143763E+02  0.28970468164E+02  0.51100000000E-03 0. -1.
        -11    1    3    3    0    0 -0.44765899516E+01  0.88424968743E+01  0.45126545627E+01  0.10890071626E+02  0.51100000000E-03 0.  1.
        -12    1    3    3    0    0  0.18269642852E+01  0.50985111305E+01  0.31824712216E+01  0.62817781976E+01  0.00000000000E+00 0.  1.
</event>
<event>
 7    1  0.1563903E-008  0.4614232E+02  0.7816164E-02  0.1320468E+00
        -11   -1    0    0    0    0  0.00000000000E+00  0.00000000000E+00  0.45593999997E+02  0.45594000000E+02  0.51100000000E-03 0.  1.
         11   -1    0    0    0    0 -0.00000000000E+00 -0.00000000000E+00 -0.45593999997E+02  0.45594000000E+02  0.51100000000E-03 0. -1.
    9900012    2    1    2    0    0  0.19812829050E+02 -0.37369095708E+02 -0.15495676061E+02  0.46142317792E+02  0.10000000281E+02 0.  0.
        -12    1    1    2    0    0 -0.19812829050E+02  0.37369095708E+02  0.15495676061E+02  0.45045682208E+02  0.00000000000E+00 0.  1.
         11    1    3    3    0    0  0.11823534298E+02 -0.25978564308E+02 -0.10090257135E+02  0.30273669353E+02  0.51100000000E-03 0. -1.
        -11    1    3    3    0    0  0.70750811714E+01 -0.55106125223E+01 -0.33455451839E+01  0.95716402352E+01  0.51100000000E-03 0.  1.
         12    1    3    3    0    0  0.91421358019E+00 -0.58799188781E+01 -0.20598737423E+01  0.62970082037E+01  0.00000000000E+00 0. -1.
</event>
<event>
 7    1  0.1563903E-008  0.4614232E+02  0.7816164E-02  0.1320468E+00
        -11   -1    0    0    0    0  0.00000000000E+00  0.00000000000E+00  0.45593999997E+02  0.45594000000E+02  0.51100000000E-03 0.  1.
         11   -1    0    0    0    0 -0.00000000000E+00 -0.00000000000E+00 -0.45593999997E+02  0.45594000000E+02  0.51100000000E-03 0. -1.
    9900012    2    1    2    0    0 -0.22115005961E+01  0.52177233894E+01 -0.44687785861E+02  0.46142316772E+02  0.99999909836E+01 0.  0.
        -12    1    1    2    0    0  0.22115005961E+01 -0.52177233894E+01  0.44687785861E+02  0.45045683228E+02  0.00000000000E+00 0.  1.
         11    1    3    3    0    0 -0.14331152662E+01  0.15276811062E+00 -0.21226407823E+02  0.21275280182E+02  0.51100000000E-03 0. -1.
        -11    1    3    3    0    0 -0.28667070339E+01  0.51296762839E+01 -0.14103480350E+02  0.15278735099E+02  0.51100000000E-03 0.  1.
        -12    1    3    3    0    0  0.20883217039E+01 -0.64721005123E-01 -0.93578976886E+01  0.95883014918E+01  0.00000000000E+00 0.  1.
</event>
<event>
 7    1  0.1563903E-008  0.4614232E+02  0.7816164E-02  0.1320468E+00
        -11   -1    0    0    0    0  0.00000000000E+00  0.00000000000E+00  0.45593999997E+02  0.45594000000E+02  0.51100000000E-03 0. -1.
         11   -1    0    0    0    0 -0.00000000000E+00 -0.00000000000E+00 -0.45593999997E+02  0.45594000000E+02  0.51100000000E-03 0.  1.
    9900012    2    1    2    0    0  0.23541464548E+01  0.15419953198E+02  0.42258685348E+02  0.46142318193E+02  0.10000003934E+02 0.  0.
        -12    1    1    2    0    0 -0.23541464548E+01 -0.15419953198E+02 -0.42258685348E+02  0.45045681807E+02  0.00000000000E+00 0.  1.
         11    1    3    3    0    0  0.17462382645E+01  0.48661152330E+01  0.16205592747E+02  0.17010281070E+02  0.51100000000E-03 0. -1.
        -11    1    3    3    0    0  0.36255346514E+01  0.84548557603E+01  0.20538305304E+02  0.22504467833E+02  0.51100000000E-03 0.  1.
        -12    1    3    3    0    0 -0.30176264610E+01  0.20989822045E+01  0.55147872971E+01  0.66275692893E+01  0.00000000000E+00 0.  1.
</event>
<event>
 7    1  0.1563903E-008  0.4614232E+02  0.7816164E-02  0.1320468E+00
        -11   -1    0    0    0    0  0.00000000000E+00  0.00000000000E+00  0.45593999997E+02  0.45594000000E+02  0.51100000000E-03 0.  1.
         11   -1    0    0    0    0 -0.00000000000E+00 -0.00000000000E+00 -0.45593999997E+02  0.45594000000E+02  0.51100000000E-03 0. -1.
    9900012    2    1    2    0    0  0.21379725582E+02 -0.60291037873E+01 -0.39187634344E+02  0.46142318254E+02  0.10000004497E+02 0.  0.
        -12    1    1    2    0    0 -0.21379725582E+02  0.60291037873E+01  0.39187634344E+02  0.45045681746E+02  0.00000000000E+00 0.  1.
         11    1    3    3    0    0  0.49293875055E+01 -0.27747339867E+01 -0.93276458693E+01  0.10908849050E+02  0.51100000000E-03 0. -1.
        -11    1    3    3    0    0  0.72523126757E+01 -0.11652016678E+01 -0.56999682530E+01  0.92974928029E+01  0.51100000000E-03 0.  1.
        -12    1    3    3    0    0  0.91980254008E+01 -0.20891681329E+01 -0.24160020222E+02  0.25935976401E+02  0.00000000000E+00 0.  1.
</event>
<event>
 7    1  0.1563903E-008  0.4614232E+02  0.7816164E-02  0.1320468E+00
        -11   -1    0    0    0    0  0.00000000000E+00  0.00000000000E+00  0.45593999997E+02  0.45594000000E+02  0.51100000000E-03 0.  1.
         11   -1    0    0    0    0 -0.00000000000E+00 -0.00000000000E+00 -0.45593999997E+02  0.45594000000E+02  0.51100000000E-03 0. -1.
    9900012    2    1    2    0    0  0.11381123999E+02  0.17086357631E+02 -0.40095384890E+02  0.46142317742E+02  0.99999998270E+01 0.  0.
        -12    1    1    2    0    0 -0.11381123999E+02 -0.17086357631E+02  0.40095384890E+02  0.45045682258E+02  0.00000000000E+00 0.  1.
         11    1    3    3    0    0  0.80109139453E+01  0.84051650482E+01 -0.19322086471E+02  0.22542505797E+02  0.51100000000E-03 0. -1.
        -11    1    3    3    0    0  0.21258696874E+00  0.32289748188E+01 -0.13916755564E+02  0.14288021462E+02  0.51100000000E-03 0.  1.
         12    1    3    3    0    0  0.31576230845E+01  0.54522177641E+01 -0.68565428550E+01  0.93117904838E+01  0.00000000000E+00 0. -1.
</event>
<event>
 7    1  0.1563903E-008  0.4614232E+02  0.7816164E-02  0.1320468E+00
        -11   -1    0    0    0    0  0.00000000000E+00  0.00000000000E+00  0.45593999997E+02  0.45594000000E+02  0.51100000000E-03 0. -1.
         11   -1    0    0    0    0 -0.00000000000E+00 -0.00000000000E+00 -0.45593999997E+02  0.45594000000E+02  0.51100000000E-03 0.  1.
    9900012    2    1    2    0    0 -0.43694802548E+02  0.28791567176E+00  0.10945075729E+02  0.46142319320E+02  0.10000014218E+02 0.  0.
        -12    1    1    2    0    0  0.43694802548E+02 -0.28791567176E+00 -0.10945075729E+02  0.45045680680E+02  0.00000000000E+00 0.  1.
         11    1    3    3    0    0 -0.71193397423E+01 -0.18080778367E+01  0.44133338129E+01  0.85692274702E+01  0.51100000000E-03 0. -1.
        -11    1    3    3    0    0 -0.13030363720E+02  0.64072743538E+00 -0.17823360942E+00  0.13047324545E+02  0.51100000000E-03 0.  1.
         12    1    3    3    0    0 -0.23545099087E+02  0.14552660731E+01  0.67099755258E+01  0.24525767305E+02  0.00000000000E+00 0. -1.
</event>
<event>
 7    1  0.1563903E-008  0.4614231E+02  0.7816164E-02  0.1320468E+00
        -11   -1    0    0    0    0  0.00000000000E+00  0.00000000000E+00  0.45593999997E+02  0.45594000000E+02  0.51100000000E-03 0.  1.
         11   -1    0    0    0    0 -0.00000000000E+00 -0.00000000000E+00 -0.45593999997E+02  0.45594000000E+02  0.51100000000E-03 0. -1.
    9900012    2    1    2    0    0  0.47688380633E+01 -0.32731476214E+02 -0.30578141223E+02  0.46142311280E+02  0.99999409010E+01 0.  0.
        -12    1    1    2    0    0 -0.47688380633E+01  0.32731476214E+02  0.30578141223E+02  0.45045688720E+02  0.00000000000E+00 0.  1.
         11    1    3    3    0    0  0.13481685390E+01 -0.27876570927E+02 -0.25246444214E+02  0.37633810740E+02  0.51100000000E-03 0. -1.
        -11    1    3    3    0    0  0.36819408578E+01 -0.44719153224E+01 -0.55260930292E+01  0.80057741387E+01  0.51100000000E-03 0.  1.
         12    1    3    3    0    0 -0.26127133356E+00 -0.38298996412E+00  0.19439602038E+00  0.50272640183E+00  0.00000000000E+00 0. -1.
</event>
<event>
 7    1  0.1563903E-008  0.4614230E+02  0.7816164E-02  0.1320468E+00
        -11   -1    0    0    0    0  0.00000000000E+00  0.00000000000E+00  0.45593999997E+02  0.45594000000E+02  0.51100000000E-03 0.  1.
         11   -1    0    0    0    0 -0.00000000000E+00 -0.00000000000E+00 -0.45593999997E+02  0.45594000000E+02  0.51100000000E-03 0. -1.
    9900012    2    1    2    0    0 -0.27681275345E+02  0.60399524530E+01 -0.35019721030E+02  0.46142302188E+02  0.99998579941E+01 0.  0.
        -12    1    1    2    0    0  0.27681275345E+02 -0.60399524530E+01  0.35019721030E+02  0.45045697812E+02  0.00000000000E+00 0.  1.
         11    1    3    3    0    0 -0.20840433040E+02  0.59260260198E+01 -0.27198046451E+02  0.34773196067E+02  0.51100000000E-03 0. -1.
        -11    1    3    3    0    0 -0.26665042114E+01 -0.55103165107E+00 -0.29769567660E+00  0.27390698360E+01  0.51100000000E-03 0.  1.
        -12    1    3    3    0    0 -0.41743380930E+01  0.66495808436E+00 -0.75239789024E+01  0.86300362857E+01  0.00000000000E+00 0.  1.
</event>
<event>
 7    1  0.1563903E-008  0.4614232E+02  0.7816164E-02  0.1320468E+00
        -11   -1    0    0    0    0  0.00000000000E+00  0.00000000000E+00  0.45593999997E+02  0.45594000000E+02  0.51100000000E-03 0.  1.
         11   -1    0    0    0    0 -0.00000000000E+00 -0.00000000000E+00 -0.45593999997E+02  0.45594000000E+02  0.51100000000E-03 0. -1.
    9900012    2    1    2    0    0 -0.25844928093E+02 -0.32620020451E+02 -0.17236224480E+02  0.46142317891E+02  0.10000001187E+02 0.  0.
        -12    1    1    2    0    0  0.25844928093E+02  0.32620020451E+02  0.17236224480E+02  0.45045682109E+02  0.00000000000E+00 0.  1.
         11    1    3    3    0    0 -0.64790882299E+01 -0.85069011250E+01 -0.11555742414E+01  0.10755524307E+02  0.51100000000E-03 0. -1.
        -11    1    3    3    0    0 -0.24909325523E+01 -0.45727282285E+01 -0.52323765703E+01  0.73818936098E+01  0.51100000000E-03 0.  1.
         12    1    3    3    0    0 -0.16874907311E+02 -0.19540391097E+02 -0.10848273668E+02  0.28004899974E+02  0.00000000000E+00 0. -1.
</event>
<event>
 7    1  0.1563903E-008  0.4614232E+02  0.7816164E-02  0.1320468E+00
        -11   -1    0    0    0    0  0.00000000000E+00  0.00000000000E+00  0.45593999997E+02  0.45594000000E+02  0.51100000000E-03 0.  1.
         11   -1    0    0    0    0 -0.00000000000E+00 -0.00000000000E+00 -0.45593999997E+02  0.45594000000E+02  0.51100000000E-03 0. -1.
    9900012    2    1    2    0    0  0.11616995620E+02  0.15850256491E+02 -0.40533051530E+02  0.46142317806E+02  0.10000000407E+02 0.  0.
        -12    1    1    2    0    0 -0.11616995620E+02 -0.15850256491E+02  0.40533051530E+02  0.45045682194E+02  0.00000000000E+00 0.  1.
         11    1    3    3    0    0  0.88712920624E+01  0.14965886681E+02 -0.39026045744E+02  0.42728325894E+02  0.51100000000E-03 0. -1.
        -11    1    3    3    0    0  0.63532204692E+00  0.51888693797E+00 -0.83193022292E+00  0.11683261166E+01  0.51100000000E-03 0.  1.
         12    1    3    3    0    0  0.21103815104E+01  0.36548287154E+00 -0.67507556241E+00  0.22456657952E+01  0.00000000000E+00 0. -1.
</event>
<event>
 7    1  0.1563903E-008  0.4614232E+02  0.7816164E-02  0.1320468E+00
        -11   -1    0    0    0    0  0.00000000000E+00  0.00000000000E+00  0.45593999997E+02  0.45594000000E+02  0.51100000000E-03 0.  1.
         11   -1    0    0    0    0 -0.00000000000E+00 -0.00000000000E+00 -0.45593999997E+02  0.45594000000E+02  0.51100000000E-03 0. -1.
    9900012    2    1    2    0    0 -0.14772881294E+02  0.23083640681E+02 -0.35749419875E+02  0.46142317519E+02  0.99999977887E+01 0.  0.
        -12    1    1    2    0    0  0.14772881294E+02 -0.23083640681E+02  0.35749419875E+02  0.45045682481E+02  0.00000000000E+00 0.  1.
         11    1    3    3    0    0 -0.52372390556E+01  0.16762859518E+02 -0.20463839360E+02  0.26966476480E+02  0.51100000000E-03 0. -1.
        -11    1    3    3    0    0 -0.92833035391E+01  0.64139246691E+01 -0.14698589757E+02  0.18530156378E+02  0.51100000000E-03 0.  1.
         12    1    3    3    0    0 -0.25233869976E+00 -0.93143506014E-01 -0.58699075723E+00  0.64568466079E+00  0.00000000000E+00 0. -1.
</event>
<event>
 7    1  0.1563903E-008  0.4614231E+02  0.7816164E-02  0.1320468E+00
        -11   -1    0    0    0    0  0.00000000000E+00  0.00000000000E+00  0.45593999997E+02  0.45594000000E+02  0.51100000000E-03 0.  1.
         11   -1    0    0    0    0 -0.00000000000E+00 -0.00000000000E+00 -0.45593999997E+02  0.45594000000E+02  0.51100000000E-03 0. -1.
    9900012    2    1    2    0    0 -0.36320663060E+02  0.30099848229E+01 -0.26473823719E+02  0.46142313014E+02  0.99999567114E+01 0.  0.
        -12    1    1    2    0    0  0.36320663060E+02 -0.30099848229E+01  0.26473823719E+02  0.45045686986E+02  0.00000000000E+00 0.  1.
         11    1    3    3    0    0 -0.10346447838E+02  0.26232808627E+00 -0.67432366932E+01  0.12352693643E+02  0.51100000000E-03 0. -1.
        -11    1    3    3    0    0 -0.17095204623E+02  0.57222291113E+01 -0.12120112094E+02  0.21722961229E+02  0.51100000000E-03 0.  1.
        -12    1    3    3    0    0 -0.88790105993E+01 -0.29745723747E+01 -0.76104749314E+01  0.12066658142E+02  0.00000000000E+00 0.  1.
</event>
<event>
 7    1  0.1563903E-008  0.4614232E+02  0.7816164E-02  0.1320468E+00
        -11   -1    0    0    0    0  0.00000000000E+00  0.00000000000E+00  0.45593999997E+02  0.45594000000E+02  0.51100000000E-03 0.  1.
         11   -1    0    0    0    0 -0.00000000000E+00 -0.00000000000E+00 -0.45593999997E+02  0.45594000000E+02  0.51100000000E-03 0. -1.
    9900012    2    1    2    0    0  0.28440328867E+02  0.30691944035E+02 -0.16681298653E+02  0.46142318082E+02  0.10000002925E+02 0.  0.
        -12    1    1    2    0    0 -0.28440328867E+02 -0.30691944035E+02  0.16681298653E+02  0.45045681918E+02  0.00000000000E+00 0.  1.
         11    1    3    3    0    0  0.26888392732E+01  0.23776338634E+01  0.10316307491E+01  0.37346032840E+01  0.51100000000E-03 0. -1.
        -11    1    3    3    0    0  0.12118055436E+02  0.13457053358E+02 -0.59422963891E+01  0.19059130077E+02  0.51100000000E-03 0.  1.
         12    1    3    3    0    0  0.13633434158E+02  0.14857256813E+02 -0.11770633013E+02  0.23348584721E+02  0.00000000000E+00 0. -1.
</event>
<event>
 7    1  0.1563903E-008  0.4614232E+02  0.7816164E-02  0.1320468E+00
        -11   -1    0    0    0    0  0.00000000000E+00  0.00000000000E+00  0.45593999997E+02  0.45594000000E+02  0.51100000000E-03 0.  1.
         11   -1    0    0    0    0 -0.00000000000E+00 -0.00000000000E+00 -0.45593999997E+02  0.45594000000E+02  0.51100000000E-03 0. -1.
    9900012    2    1    2    0    0 -0.10192695215E+01 -0.26849045093E+02 -0.36155261165E+02  0.46142322708E+02  0.10000045110E+02 0.  0.
        -12    1    1    2    0    0  0.10192695215E+01  0.26849045093E+02  0.36155261165E+02  0.45045677292E+02  0.00000000000E+00 0.  1.
         11    1    3    3    0    0  0.14465855631E+01 -0.48049950128E+01 -0.64941122727E+01  0.82069532310E+01  0.51100000000E-03 0. -1.
        -11    1    3    3    0    0 -0.54511862545E+01 -0.12881960316E+02 -0.18424672374E+02  0.23132852948E+02  0.51100000000E-03 0.  1.
        -12    1    3    3    0    0  0.29853311699E+01 -0.91620897647E+01 -0.11236476519E+02  0.14802516529E+02  0.00000000000E+00 0.  1.
</event>
<event>
 7    1  0.1563903E-008  0.4614232E+02  0.7816164E-02  0.1320468E+00
        -11   -1    0    0    0    0  0.00000000000E+00  0.00000000000E+00  0.45593999997E+02  0.45594000000E+02  0.51100000000E-03 0.  1.
         11   -1    0    0    0    0 -0.00000000000E+00 -0.00000000000E+00 -0.45593999997E+02  0.45594000000E+02  0.51100000000E-03 0. -1.
    9900012    2    1    2    0    0 -0.64262510998E+01  0.26450666755E+02 -0.35891211221E+02  0.46142317434E+02  0.99999970136E+01 0.  0.
        -12    1    1    2    0    0  0.64262510998E+01 -0.26450666755E+02  0.35891211221E+02  0.45045682566E+02  0.00000000000E+00 0.  1.
         11    1    3    3    0    0 -0.21352417887E+01  0.20375300603E+02 -0.20536107027E+02  0.29007651133E+02  0.51100000000E-03 0. -1.
        -11    1    3    3    0    0 -0.13935872904E+01  0.85989934894E+00 -0.33006752115E+01  0.36845582557E+01  0.51100000000E-03 0.  1.
         12    1    3    3    0    0 -0.28974220207E+01  0.52154668032E+01 -0.12054428982E+02  0.13450108045E+02  0.00000000000E+00 0. -1.
</event>
<event>
 7    1  0.1563903E-008  0.4614232E+02  0.7816164E-02  0.1320468E+00
        -11   -1    0    0    0    0  0.00000000000E+00  0.00000000000E+00  0.45593999997E+02  0.45594000000E+02  0.51100000000E-03 0. -1.
         11   -1    0    0    0    0 -0.00000000000E+00 -0.00000000000E+00 -0.45593999997E+02  0.45594000000E+02  0.51100000000E-03 0.  1.
    9900012    2    1    2    0    0  0.32847435728E+02  0.23403658302E+02  0.20060612050E+02  0.46142318613E+02  0.10000007767E+02 0.  0.
        -12    1    1    2    0    0 -0.32847435728E+02 -0.23403658302E+02 -0.20060612050E+02  0.45045681387E+02  0.00000000000E+00 0.  1.
         11    1    3    3    0    0  0.17083000692E+02  0.85727566182E+01  0.66275472000E+01  0.20229815887E+02  0.51100000000E-03 0. -1.
        -11    1    3    3    0    0  0.44911888855E+01  0.53461947298E+01  0.19968567750E+01  0.72622319528E+01  0.51100000000E-03 0.  1.
         12    1    3    3    0    0  0.11273246150E+02  0.94847069536E+01  0.11436208075E+02  0.18650270773E+02  0.00000000000E+00 0. -1.
</event>
<event>
 7    1  0.1563903E-008  0.4614231E+02  0.7816164E-02  0.1320468E+00
        -11   -1    0    0    0    0  0.00000000000E+00  0.00000000000E+00  0.45593999997E+02  0.45594000000E+02  0.51100000000E-03 0. -1.
         11   -1    0    0    0    0 -0.00000000000E+00 -0.00000000000E+00 -0.45593999997E+02  0.45594000000E+02  0.51100000000E-03 0.  1.
    9900012    2    1    2    0    0  0.28951785561E+02  0.31800139833E+02 -0.13403692160E+02  0.46142314922E+02  0.99999741143E+01 0.  0.
        -12    1    1    2    0    0 -0.28951785561E+02 -0.31800139833E+02  0.13403692160E+02  0.45045685078E+02  0.00000000000E+00 0.  1.
         11    1    3    3    0    0  0.13552598325E+02  0.11787730183E+02 -0.22099458924E+01  0.18097164567E+02  0.51100000000E-03 0. -1.
        -11    1    3    3    0    0  0.11286217255E+02  0.12839650532E+02 -0.96610895140E+01  0.19635986773E+02  0.51100000000E-03 0.  1.
        -12    1    3    3    0    0  0.41129699812E+01  0.71727591185E+01 -0.15326567531E+01  0.84091635828E+01  0.00000000000E+00 0.  1.
</event>
<event>
 7    1  0.1563903E-008  0.4614232E+02  0.7816164E-02  0.1320468E+00
        -11   -1    0    0    0    0  0.00000000000E+00  0.00000000000E+00  0.45593999997E+02  0.45594000000E+02  0.51100000000E-03 0. -1.
         11   -1    0    0    0    0 -0.00000000000E+00 -0.00000000000E+00 -0.45593999997E+02  0.45594000000E+02  0.51100000000E-03 0.  1.
    9900012    2    1    2    0    0 -0.29537000591E+02 -0.29181690295E+02  0.17467341376E+02  0.46142317997E+02  0.10000002147E+02 0.  0.
        -12    1    1    2    0    0  0.29537000591E+02  0.29181690295E+02 -0.17467341376E+02  0.45045682003E+02  0.00000000000E+00 0.  1.
         11    1    3    3    0    0 -0.26424215183E+02 -0.26450189870E+02  0.15727256704E+02  0.40561044068E+02  0.51100000000E-03 0. -1.
        -11    1    3    3    0    0  0.25356203643E+00 -0.17650315962E+01  0.80381457614E+00  0.19559520382E+01  0.51100000000E-03 0.  1.
         12    1    3    3    0    0 -0.33663474450E+01 -0.96646882907E+00  0.93627009617E+00  0.36253218907E+01  0.00000000000E+00 0. -1.
</event>
<event>
 7    1  0.1563903E-008  0.4614232E+02  0.7816164E-02  0.1320468E+00
        -11   -1    0    0    0    0  0.00000000000E+00  0.00000000000E+00  0.45593999997E+02  0.45594000000E+02  0.51100000000E-03 0.  1.
         11   -1    0    0    0    0 -0.00000000000E+00 -0.00000000000E+00 -0.45593999997E+02  0.45594000000E+02  0.51100000000E-03 0. -1.
    9900012    2    1    2    0    0  0.23219831250E+02  0.38232383398E+02 -0.53139281619E+01  0.46142317232E+02  0.99999951720E+01 0.  0.
        -12    1    1    2    0    0 -0.23219831250E+02 -0.38232383398E+02  0.53139281619E+01  0.45045682768E+02  0.00000000000E+00 0.  1.
         11    1    3    3    0    0  0.88605676550E+01  0.13900490016E+02  0.27210452488E+01  0.16707404627E+02  0.51100000000E-03 0. -1.
        -11    1    3    3    0    0  0.10892410282E+02  0.18597246010E+02 -0.69589155055E+01  0.22647928518E+02  0.51100000000E-03 0.  1.
        -12    1    3    3    0    0  0.34668533129E+01  0.57346473721E+01 -0.10760579052E+01  0.67869840865E+01  0.00000000000E+00 0.  1.
</event>
<event>
 7    1  0.1563903E-008  0.4614232E+02  0.7816164E-02  0.1320468E+00
        -11   -1    0    0    0    0  0.00000000000E+00  0.00000000000E+00  0.45593999997E+02  0.45594000000E+02  0.51100000000E-03 0.  1.
         11   -1    0    0    0    0 -0.00000000000E+00 -0.00000000000E+00 -0.45593999997E+02  0.45594000000E+02  0.51100000000E-03 0. -1.
    9900012    2    1    2    0    0  0.78024638523E+01  0.40571276937E+02 -0.17950112226E+02  0.46142317816E+02  0.10000000502E+02 0.  0.
        -12    1    1    2    0    0 -0.78024638523E+01 -0.40571276937E+02  0.17950112226E+02  0.45045682184E+02  0.00000000000E+00 0.  1.
         11    1    3    3    0    0  0.80598045377E+01  0.26119508851E+02 -0.14914429073E+02  0.31138872598E+02  0.51100000000E-03 0. -1.
        -11    1    3    3    0    0 -0.37752269690E+00  0.46224987403E+01  0.23435255593E+00  0.46438065606E+01  0.51100000000E-03 0.  1.
         12    1    3    3    0    0  0.12018201153E+00  0.98292693459E+01 -0.32700357086E+01  0.10359638658E+02  0.00000000000E+00 0. -1.
</event>
<event>
 7    1  0.1563903E-008  0.4614232E+02  0.7816164E-02  0.1320468E+00
        -11   -1    0    0    0    0  0.00000000000E+00  0.00000000000E+00  0.45593999997E+02  0.45594000000E+02  0.51100000000E-03 0.  1.
         11   -1    0    0    0    0 -0.00000000000E+00 -0.00000000000E+00 -0.45593999997E+02  0.45594000000E+02  0.51100000000E-03 0. -1.
    9900012    2    1    2    0    0 -0.11004534730E+02 -0.42567675464E+02 -0.97982926933E+01  0.46142319644E+02  0.10000017167E+02 0.  0.
        -12    1    1    2    0    0  0.11004534730E+02  0.42567675464E+02  0.97982926933E+01  0.45045680356E+02  0.00000000000E+00 0.  1.
         11    1    3    3    0    0 -0.72017443463E+01 -0.18335053502E+02 -0.33492952676E+01  0.19981418559E+02  0.51100000000E-03 0. -1.
        -11    1    3    3    0    0  0.13568721686E+01 -0.37048824305E+01  0.26741093006E+00  0.39545878133E+01  0.51100000000E-03 0.  1.
        -12    1    3    3    0    0 -0.51596625528E+01 -0.20527739531E+02 -0.67164083558E+01  0.22206313272E+02  0.00000000000E+00 0.  1.
</event>
<event>
 7    1  0.1563903E-008  0.4614232E+02  0.7816164E-02  0.1320468E+00
        -11   -1    0    0    0    0  0.00000000000E+00  0.00000000000E+00  0.45593999997E+02  0.45594000000E+02  0.51100000000E-03 0.  1.
         11   -1    0    0    0    0 -0.00000000000E+00 -0.00000000000E+00 -0.45593999997E+02  0.45594000000E+02  0.51100000000E-03 0. -1.
    9900012    2    1    2    0    0 -0.40168215130E+02 -0.18660609520E+02  0.82103385413E+01  0.46142317484E+02  0.99999974711E+01 0.  0.
        -12    1    1    2    0    0  0.40168215130E+02  0.18660609520E+02 -0.82103385413E+01  0.45045682516E+02  0.00000000000E+00 0.  1.
         11    1    3    3    0    0 -0.53609310295E+01 -0.12329797592E+01  0.32931792539E+01  0.64113064542E+01  0.51100000000E-03 0. -1.
        -11    1    3    3    0    0 -0.27762473964E+02 -0.14790991883E+02  0.63039088550E+01  0.32082201742E+02  0.51100000000E-03 0.  1.
        -12    1    3    3    0    0 -0.70448101366E+01 -0.26366378778E+01 -0.13867495677E+01  0.76488092879E+01  0.00000000000E+00 0.  1.
</event>
<event>
 7    1  0.1563903E-008  0.4614231E+02  0.7816164E-02  0.1320468E+00
        -11   -1    0    0    0    0  0.00000000000E+00  0.00000000000E+00  0.45593999997E+02  0.45594000000E+02  0.51100000000E-03 0.  1.
         11   -1    0    0    0    0 -0.00000000000E+00 -0.00000000000E+00 -0.45593999997E+02  0.45594000000E+02  0.51100000000E-03 0. -1.
    9900012    2    1    2    0    0 -0.57477930458E+01  0.36342354622E+02 -0.25986725854E+02  0.46142314468E+02  0.99999699743E+01 0.  0.
        -12    1    1    2    0    0  0.57477930458E+01 -0.36342354622E+02  0.25986725854E+02  0.45045685532E+02  0.00000000000E+00 0.  1.
         11    1    3    3    0    0 -0.35527802998E+01  0.40235958388E+01 -0.21306260107E+01  0.57750444840E+01  0.51100000000E-03 0. -1.
        -11    1    3    3    0    0  0.12327277880E+00  0.20960337968E+02 -0.15850183744E+02  0.26278875335E+02  0.51100000000E-03 0.  1.
         12    1    3    3    0    0 -0.23182855248E+01  0.11358420816E+02 -0.80059160998E+01  0.14088394649E+02  0.00000000000E+00 0. -1.
</event>
<event>
 7    1  0.1563903E-008  0.4614232E+02  0.7816164E-02  0.1320468E+00
        -11   -1    0    0    0    0  0.00000000000E+00  0.00000000000E+00  0.45593999997E+02  0.45594000000E+02  0.51100000000E-03 0.  1.
         11   -1    0    0    0    0 -0.00000000000E+00 -0.00000000000E+00 -0.45593999997E+02  0.45594000000E+02  0.51100000000E-03 0. -1.
    9900012    2    1    2    0    0  0.11481481948E+02  0.19264107673E+02 -0.39066390660E+02  0.46142321502E+02  0.10000034110E+02 0.  0.
        -12    1    1    2    0    0 -0.11481481948E+02 -0.19264107673E+02  0.39066390660E+02  0.45045678498E+02  0.00000000000E+00 0.  1.
         11    1    3    3    0    0 -0.12511078312E+01  0.36116324244E+01 -0.47655097594E+01  0.61089477901E+01  0.51100000000E-03 0. -1.
        -11    1    3    3    0    0  0.65962289775E+01  0.76122559422E+01 -0.12933523614E+02  0.16393068980E+02  0.51100000000E-03 0.  1.
         12    1    3    3    0    0  0.61363608019E+01  0.80402193066E+01 -0.21367357287E+02  0.23640304732E+02  0.00000000000E+00 0. -1.
</event>
<event>
 7    1  0.1563903E-008  0.4614232E+02  0.7816164E-02  0.1320468E+00
        -11   -1    0    0    0    0  0.00000000000E+00  0.00000000000E+00  0.45593999997E+02  0.45594000000E+02  0.51100000000E-03 0. -1.
         11   -1    0    0    0    0 -0.00000000000E+00 -0.00000000000E+00 -0.45593999997E+02  0.45594000000E+02  0.51100000000E-03 0.  1.
    9900012    2    1    2    0    0  0.13731578502E+02 -0.42073175479E+02 -0.83907761246E+01  0.46142317998E+02  0.10000002161E+02 0.  0.
        -12    1    1    2    0    0 -0.13731578502E+02  0.42073175479E+02  0.83907761246E+01  0.45045682002E+02  0.00000000000E+00 0.  1.
         11    1    3    3    0    0  0.18026806479E+01 -0.14731908572E+02 -0.57778810439E+01  0.15926791808E+02  0.51100000000E-03 0. -1.
        -11    1    3    3    0    0  0.12148619619E+02 -0.26369395501E+02 -0.29020903336E+01  0.29178007237E+02  0.51100000000E-03 0.  1.
        -12    1    3    3    0    0 -0.21972176452E+00 -0.97187140587E+00  0.28919525288E+00  0.10375189529E+01  0.00000000000E+00 0.  1.
</event>
<event>
 7    1  0.1563903E-008  0.4614232E+02  0.7816164E-02  0.1320468E+00
        -11   -1    0    0    0    0  0.00000000000E+00  0.00000000000E+00  0.45593999997E+02  0.45594000000E+02  0.51100000000E-03 0.  1.
         11   -1    0    0    0    0 -0.00000000000E+00 -0.00000000000E+00 -0.45593999997E+02  0.45594000000E+02  0.51100000000E-03 0. -1.
    9900012    2    1    2    0    0  0.67446875463E+01  0.10970967608E+02 -0.43165501738E+02  0.46142317847E+02  0.10000000785E+02 0.  0.
        -12    1    1    2    0    0 -0.67446875463E+01 -0.10970967608E+02  0.43165501738E+02  0.45045682153E+02  0.00000000000E+00 0.  1.
         11    1    3    3    0    0  0.92086701421E+00  0.71794621224E+01 -0.29469421177E+02  0.30345336663E+02  0.51100000000E-03 0. -1.
        -11    1    3    3    0    0  0.37836776217E+01  0.36265335946E+00 -0.78131070995E+01  0.86886349108E+01  0.51100000000E-03 0.  1.
         12    1    3    3    0    0  0.20401429105E+01  0.34288521259E+01 -0.58829734612E+01  0.71083462733E+01  0.00000000000E+00 0. -1.
</event>
<event>
 7    1  0.1563903E-008  0.4614232E+02  0.7816164E-02  0.1320468E+00
        -11   -1    0    0    0    0  0.00000000000E+00  0.00000000000E+00  0.45593999997E+02  0.45594000000E+02  0.51100000000E-03 0. -1.
         11   -1    0    0    0    0 -0.00000000000E+00 -0.00000000000E+00 -0.45593999997E+02  0.45594000000E+02  0.51100000000E-03 0.  1.
    9900012    2    1    2    0    0  0.18031472394E+02 -0.33458363530E+02  0.24176788433E+02  0.46142321121E+02  0.10000030638E+02 0.  0.
        -12    1    1    2    0    0 -0.18031472394E+02  0.33458363530E+02 -0.24176788433E+02  0.45045678879E+02  0.00000000000E+00 0.  1.
         11    1    3    3    0    0  0.25906675760E+01 -0.88993358096E+01  0.42613842748E+01  0.10201427966E+02  0.51100000000E-03 0. -1.
        -11    1    3    3    0    0  0.79775485364E+01 -0.80829065613E+01  0.10858385085E+02  0.15712389571E+02  0.51100000000E-03 0.  1.
        -12    1    3    3    0    0  0.74632562811E+01 -0.16476121159E+02  0.90570190728E+01  0.20228503584E+02  0.00000000000E+00 0.  1.
</event>
<event>
 7    1  0.1563903E-008  0.4614232E+02  0.7816164E-02  0.1320468E+00
        -11   -1    0    0    0    0  0.00000000000E+00  0.00000000000E+00  0.45593999997E+02  0.45594000000E+02  0.51100000000E-03 0.  1.
         11   -1    0    0    0    0 -0.00000000000E+00 -0.00000000000E+00 -0.45593999997E+02  0.45594000000E+02  0.51100000000E-03 0. -1.
    9900012    2    1    2    0    0 -0.15185767234E+02 -0.74850089903E+01 -0.41743030079E+02  0.46142318229E+02  0.10000004262E+02 0.  0.
        -12    1    1    2    0    0  0.15185767234E+02  0.74850089903E+01  0.41743030079E+02  0.45045681771E+02  0.00000000000E+00 0.  1.
         11    1    3    3    0    0 -0.49601857137E+01 -0.78535018068E+01 -0.20202529173E+02  0.22235627227E+02  0.51100000000E-03 0. -1.
        -11    1    3    3    0    0 -0.96595146584E+00  0.31365305721E+00 -0.13087868664E+01  0.16566121445E+01  0.51100000000E-03 0.  1.
         12    1    3    3    0    0 -0.92596300542E+01  0.54839759329E-01 -0.20231714040E+02  0.22250078857E+02  0.00000000000E+00 0. -1.
</event>
<event>
 7    1  0.1563903E-008  0.4614232E+02  0.7816164E-02  0.1320468E+00
        -11   -1    0    0    0    0  0.00000000000E+00  0.00000000000E+00  0.45593999997E+02  0.45594000000E+02  0.51100000000E-03 0. -1.
         11   -1    0    0    0    0 -0.00000000000E+00 -0.00000000000E+00 -0.45593999997E+02  0.45594000000E+02  0.51100000000E-03 0.  1.
    9900012    2    1    2    0    0 -0.39490987205E+02  0.18309155986E+02 -0.11590956381E+02  0.46142317264E+02  0.99999954626E+01 0.  0.
        -12    1    1    2    0    0  0.39490987205E+02 -0.18309155986E+02  0.11590956381E+02  0.45045682736E+02  0.00000000000E+00 0.  1.
         11    1    3    3    0    0 -0.53508712838E+01  0.12499482131E+01 -0.37437510817E+01  0.66490500415E+01  0.51100000000E-03 0.  1.
        -11    1    3    3    0    0 -0.20738397968E+02  0.70259201476E+01 -0.56067461009E+01  0.22602661487E+02  0.51100000000E-03 0. -1.
        -12    1    3    3    0    0 -0.13401717954E+02  0.10033287625E+02 -0.22404591987E+01  0.16890605735E+02  0.00000000000E+00 0.  1.
</event>
<event>
 7    1  0.1563903E-008  0.4614233E+02  0.7816164E-02  0.1320468E+00
        -11   -1    0    0    0    0  0.00000000000E+00  0.00000000000E+00  0.45593999997E+02  0.45594000000E+02  0.51100000000E-03 0.  1.
         11   -1    0    0    0    0 -0.00000000000E+00 -0.00000000000E+00 -0.45593999997E+02  0.45594000000E+02  0.51100000000E-03 0. -1.
    9900012    2    1    2    0    0  0.28736266643E+02  0.24444880011E+02 -0.24612745527E+02  0.46142329600E+02  0.10000107960E+02 0.  0.
        -12    1    1    2    0    0 -0.28736266643E+02 -0.24444880011E+02  0.24612745527E+02  0.45045670400E+02  0.00000000000E+00 0.  1.
         11    1    3    3    0    0 -0.20452606586E+00  0.12991476742E+01 -0.14384755764E+01  0.19490581920E+01  0.51100000000E-03 0. -1.
        -11    1    3    3    0    0  0.36656335986E+01  0.59855629113E+01 -0.53335747390E+01  0.88153759309E+01  0.51100000000E-03 0.  1.
         12    1    3    3    0    0  0.25275159111E+02  0.17160169426E+02 -0.17840695212E+02  0.35377895478E+02  0.00000000000E+00 0. -1.
</event>
<event>
 7    1  0.1563903E-008  0.4614232E+02  0.7816164E-02  0.1320468E+00
        -11   -1    0    0    0    0  0.00000000000E+00  0.00000000000E+00  0.45593999997E+02  0.45594000000E+02  0.51100000000E-03 0.  1.
         11   -1    0    0    0    0 -0.00000000000E+00 -0.00000000000E+00 -0.45593999997E+02  0.45594000000E+02  0.51100000000E-03 0. -1.
    9900012    2    1    2    0    0 -0.35618153473E+02  0.24778815664E+02 -0.12102516341E+02  0.46142318028E+02  0.10000002435E+02 0.  0.
        -12    1    1    2    0    0  0.35618153473E+02 -0.24778815664E+02  0.12102516341E+02  0.45045681972E+02  0.00000000000E+00 0.  1.
         11    1    3    3    0    0 -0.12467245072E+02  0.11267531837E+02 -0.70806734389E+01  0.18235279268E+02  0.51100000000E-03 0. -1.
        -11    1    3    3    0    0 -0.14635031418E+02  0.90974859170E+01 -0.34454785189E+00  0.17235634833E+02  0.51100000000E-03 0.  1.
        -12    1    3    3    0    0 -0.85158769832E+01  0.44137979096E+01 -0.46772950505E+01  0.10671403927E+02  0.00000000000E+00 0.  1.
</event>
<event>
 7    1  0.1563903E-008  0.4614232E+02  0.7816164E-02  0.1320468E+00
        -11   -1    0    0    0    0  0.00000000000E+00  0.00000000000E+00  0.45593999997E+02  0.45594000000E+02  0.51100000000E-03 0.  1.
         11   -1    0    0    0    0 -0.00000000000E+00 -0.00000000000E+00 -0.45593999997E+02  0.45594000000E+02  0.51100000000E-03 0. -1.
    9900012    2    1    2    0    0  0.28440989974E+02 -0.28861917848E+01 -0.34812258293E+02  0.46142319395E+02  0.10000014902E+02 0.  0.
        -12    1    1    2    0    0 -0.28440989974E+02  0.28861917848E+01  0.34812258293E+02  0.45045680605E+02  0.00000000000E+00 0.  1.
         11    1    3    3    0    0  0.81446514730E+01 -0.30836791361E+01 -0.72046211870E+01  0.11302698410E+02  0.51100000000E-03 0. -1.
        -11    1    3    3    0    0 -0.16496577203E+00  0.26000216177E-01 -0.22483102705E+01  0.22545041696E+01  0.51100000000E-03 0.  1.
         12    1    3    3    0    0  0.20461304273E+02  0.17148713505E+00 -0.25359326835E+02  0.32585116816E+02  0.00000000000E+00 0. -1.
</event>
<event>
 7    1  0.1563903E-008  0.4614232E+02  0.7816164E-02  0.1320468E+00
        -11   -1    0    0    0    0  0.00000000000E+00  0.00000000000E+00  0.45593999997E+02  0.45594000000E+02  0.51100000000E-03 0.  1.
         11   -1    0    0    0    0 -0.00000000000E+00 -0.00000000000E+00 -0.45593999997E+02  0.45594000000E+02  0.51100000000E-03 0. -1.
    9900012    2    1    2    0    0 -0.21131165298E+02  0.38396697808E+02 -0.10405804879E+02  0.46142319579E+02  0.10000016581E+02 0.  0.
        -12    1    1    2    0    0  0.21131165298E+02 -0.38396697808E+02  0.10405804879E+02  0.45045680421E+02  0.00000000000E+00 0.  1.
         11    1    3    3    0    0 -0.12859070932E+02  0.21911421712E+02 -0.71858746026E+01  0.26402706315E+02  0.51100000000E-03 0. -1.
        -11    1    3    3    0    0 -0.28472209007E+00  0.65333208024E+01  0.15014191685E+00  0.65412453120E+01  0.51100000000E-03 0.  1.
        -12    1    3    3    0    0 -0.79873722754E+01  0.99519552936E+01 -0.33700721928E+01  0.13198367953E+02  0.00000000000E+00 0.  1.
</event>
<event>
 7    1  0.1563903E-008  0.4614232E+02  0.7816164E-02  0.1320468E+00
        -11   -1    0    0    0    0  0.00000000000E+00  0.00000000000E+00  0.45593999997E+02  0.45594000000E+02  0.51100000000E-03 0.  1.
         11   -1    0    0    0    0 -0.00000000000E+00 -0.00000000000E+00 -0.45593999997E+02  0.45594000000E+02  0.51100000000E-03 0. -1.
    9900012    2    1    2    0    0 -0.27979587607E+02 -0.16315351675E+02 -0.31305999782E+02  0.46142316019E+02  0.99999841149E+01 0.  0.
        -12    1    1    2    0    0  0.27979587607E+02  0.16315351675E+02  0.31305999782E+02  0.45045683981E+02  0.00000000000E+00 0.  1.
         11    1    3    3    0    0 -0.10587971775E+02 -0.92452455098E+01 -0.17412943296E+02  0.22378344562E+02  0.51100000000E-03 0. -1.
        -11    1    3    3    0    0 -0.12904017196E+02 -0.37616462207E+01 -0.11528609615E+02  0.17707977919E+02  0.51100000000E-03 0.  1.
         12    1    3    3    0    0 -0.44875986360E+01 -0.33084599443E+01 -0.23644468719E+01  0.60559935379E+01  0.00000000000E+00 0. -1.
</event>
<event>
 7    1  0.1563903E-008  0.4614232E+02  0.7816164E-02  0.1320468E+00
        -11   -1    0    0    0    0  0.00000000000E+00  0.00000000000E+00  0.45593999997E+02  0.45594000000E+02  0.51100000000E-03 0.  1.
         11   -1    0    0    0    0 -0.00000000000E+00 -0.00000000000E+00 -0.45593999997E+02  0.45594000000E+02  0.51100000000E-03 0. -1.
    9900012    2    1    2    0    0  0.15239937501E+01  0.43288963235E+02 -0.12363518058E+02  0.46142317924E+02  0.10000001486E+02 0.  0.
        -12    1    1    2    0    0 -0.15239937501E+01 -0.43288963235E+02  0.12363518058E+02  0.45045682076E+02  0.00000000000E+00 0.  1.
         11    1    3    3    0    0  0.22086182376E+00  0.75060917633E+01 -0.20926138030E+01  0.77954619038E+01  0.51100000000E-03 0. -1.
        -11    1    3    3    0    0  0.45275716066E+01  0.23677537462E+02 -0.43707742944E+01  0.24499558223E+02  0.51100000000E-03 0.  1.
        -12    1    3    3    0    0 -0.32244396802E+01  0.12105334010E+02 -0.59001299605E+01  0.13847297797E+02  0.00000000000E+00 0.  1.
</event>
<event>
 7    1  0.1563903E-008  0.4614232E+02  0.7816164E-02  0.1320468E+00
        -11   -1    0    0    0    0  0.00000000000E+00  0.00000000000E+00  0.45593999997E+02  0.45594000000E+02  0.51100000000E-03 0.  1.
         11   -1    0    0    0    0 -0.00000000000E+00 -0.00000000000E+00 -0.45593999997E+02  0.45594000000E+02  0.51100000000E-03 0. -1.
    9900012    2    1    2    0    0 -0.45131855956E+01  0.23267930305E+02 -0.38305979665E+02  0.46142317599E+02  0.99999985206E+01 0.  0.
        -12    1    1    2    0    0  0.45131855956E+01 -0.23267930305E+02  0.38305979665E+02  0.45045682401E+02  0.00000000000E+00 0.  1.
         11    1    3    3    0    0  0.12164279162E+01  0.70928832211E+01 -0.66704953016E+01  0.98124511256E+01  0.51100000000E-03 0. -1.
        -11    1    3    3    0    0 -0.59714493605E+01  0.11315539329E+02 -0.20318283165E+02  0.24011086373E+02  0.51100000000E-03 0.  1.
        -12    1    3    3    0    0  0.24183584873E+00  0.48595077546E+01 -0.11317201199E+02  0.12318780100E+02  0.00000000000E+00 0.  1.
</event>
<event>
 7    1  0.1563903E-008  0.4614232E+02  0.7816164E-02  0.1320468E+00
        -11   -1    0    0    0    0  0.00000000000E+00  0.00000000000E+00  0.45593999997E+02  0.45594000000E+02  0.51100000000E-03 0.  1.
         11   -1    0    0    0    0 -0.00000000000E+00 -0.00000000000E+00 -0.45593999997E+02  0.45594000000E+02  0.51100000000E-03 0. -1.
    9900012    2    1    2    0    0  0.26714149359E+02  0.10594941631E+01 -0.36253898578E+02  0.46142318009E+02  0.10000002263E+02 0.  0.
        -12    1    1    2    0    0 -0.26714149359E+02 -0.10594941631E+01  0.36253898578E+02  0.45045681991E+02  0.00000000000E+00 0.  1.
         11    1    3    3    0    0  0.75110857700E+01  0.81254919453E+00 -0.39401096748E+01  0.85206285066E+01  0.51100000000E-03 0.  1.
        -11    1    3    3    0    0  0.11524896992E+02  0.80200786168E-02 -0.20823650940E+02  0.23800162893E+02  0.51100000000E-03 0. -1.
        -12    1    3    3    0    0  0.76781665976E+01  0.23892488996E+00 -0.11490137964E+02  0.13821526610E+02  0.00000000000E+00 0.  1.
</event>
<event>
 7    1  0.1563903E-008  0.4614232E+02  0.7816164E-02  0.1320468E+00
        -11   -1    0    0    0    0  0.00000000000E+00  0.00000000000E+00  0.45593999997E+02  0.45594000000E+02  0.51100000000E-03 0.  1.
         11   -1    0    0    0    0 -0.00000000000E+00 -0.00000000000E+00 -0.45593999997E+02  0.45594000000E+02  0.51100000000E-03 0. -1.
    9900012    2    1    2    0    0  0.18095366156E+02  0.37041373052E+02 -0.18155105576E+02  0.46142318161E+02  0.10000003642E+02 0.  0.
        -12    1    1    2    0    0 -0.18095366156E+02 -0.37041373052E+02  0.18155105576E+02  0.45045681839E+02  0.00000000000E+00 0.  1.
         11    1    3    3    0    0  0.39272106439E+01  0.98552694515E+01 -0.64922513088E+01  0.12437791071E+02  0.51100000000E-03 0. -1.
        -11    1    3    3    0    0  0.12883181096E+02  0.24657685450E+02 -0.77645716065E+01  0.28883669770E+02  0.51100000000E-03 0.  1.
        -12    1    3    3    0    0  0.12849744162E+01  0.25284181508E+01 -0.38982826603E+01  0.48208573195E+01  0.00000000000E+00 0.  1.
</event>
<event>
 7    1  0.1563903E-008  0.4614232E+02  0.7816164E-02  0.1320468E+00
        -11   -1    0    0    0    0  0.00000000000E+00  0.00000000000E+00  0.45593999997E+02  0.45594000000E+02  0.51100000000E-03 0.  1.
         11   -1    0    0    0    0 -0.00000000000E+00 -0.00000000000E+00 -0.45593999997E+02  0.45594000000E+02  0.51100000000E-03 0. -1.
    9900012    2    1    2    0    0 -0.10818615311E+02  0.27218393049E+02 -0.34223239326E+02  0.46142317994E+02  0.10000002121E+02 0.  0.
        -12    1    1    2    0    0  0.10818615311E+02 -0.27218393049E+02  0.34223239326E+02  0.45045682006E+02  0.00000000000E+00 0.  1.
         11    1    3    3    0    0 -0.25652139296E+01  0.18159770051E+02 -0.21035563672E+02  0.27907929161E+02  0.51100000000E-03 0. -1.
        -11    1    3    3    0    0 -0.51726226141E+01  0.47498559975E+01 -0.56065151927E+01  0.89861098130E+01  0.51100000000E-03 0.  1.
        -12    1    3    3    0    0 -0.30807787670E+01  0.43087670009E+01 -0.75811604615E+01  0.92482790195E+01  0.00000000000E+00 0.  1.
</event>
<event>
 7    1  0.1563903E-008  0.4614232E+02  0.7816164E-02  0.1320468E+00
        -11   -1    0    0    0    0  0.00000000000E+00  0.00000000000E+00  0.45593999997E+02  0.45594000000E+02  0.51100000000E-03 0.  1.
         11   -1    0    0    0    0 -0.00000000000E+00 -0.00000000000E+00 -0.45593999997E+02  0.45594000000E+02  0.51100000000E-03 0. -1.
    9900012    2    1    2    0    0  0.30680320007E+02 -0.29811077441E+02 -0.14111381211E+02  0.46142318148E+02  0.10000003524E+02 0.  0.
        -12    1    1    2    0    0 -0.30680320007E+02  0.29811077441E+02  0.14111381211E+02  0.45045681852E+02  0.00000000000E+00 0.  1.
         11    1    3    3    0    0  0.15518330141E+02 -0.19472744270E+02 -0.10965399519E+02  0.27207468214E+02  0.51100000000E-03 0. -1.
        -11    1    3    3    0    0  0.12877622679E+02 -0.92794095070E+01 -0.15371928429E+01  0.15946898406E+02  0.51100000000E-03 0.  1.
        -12    1    3    3    0    0  0.22843671870E+01 -0.10589236631E+01 -0.16087888490E+01  0.29879515274E+01  0.00000000000E+00 0.  1.
</event>
<event>
 7    1  0.1563903E-008  0.4614232E+02  0.7816164E-02  0.1320468E+00
        -11   -1    0    0    0    0  0.00000000000E+00  0.00000000000E+00  0.45593999997E+02  0.45594000000E+02  0.51100000000E-03 0.  1.
         11   -1    0    0    0    0 -0.00000000000E+00 -0.00000000000E+00 -0.45593999997E+02  0.45594000000E+02  0.51100000000E-03 0. -1.
    9900012    2    1    2    0    0 -0.19786903039E+02  0.53920590591E+01 -0.40106329684E+02  0.46142317482E+02  0.99999974519E+01 0.  0.
        -12    1    1    2    0    0  0.19786903039E+02 -0.53920590591E+01  0.40106329684E+02  0.45045682518E+02  0.00000000000E+00 0.  1.
         11    1    3    3    0    0 -0.12553301462E+02 -0.85231503668E-01 -0.16704534168E+02  0.20895791539E+02  0.51100000000E-03 0. -1.
        -11    1    3    3    0    0 -0.63505460866E+01  0.33776819797E+01 -0.17517115050E+02  0.18936406499E+02  0.51100000000E-03 0.  1.
         12    1    3    3    0    0 -0.88305549030E+00  0.20996085830E+01 -0.58846804665E+01  0.63101194437E+01  0.00000000000E+00 0. -1.
</event>
<event>
 7    1  0.1563903E-008  0.4614232E+02  0.7816164E-02  0.1320468E+00
        -11   -1    0    0    0    0  0.00000000000E+00  0.00000000000E+00  0.45593999997E+02  0.45594000000E+02  0.51100000000E-03 0.  1.
         11   -1    0    0    0    0 -0.00000000000E+00 -0.00000000000E+00 -0.45593999997E+02  0.45594000000E+02  0.51100000000E-03 0. -1.
    9900012    2    1    2    0    0 -0.32781759115E+02  0.96841848587E+01 -0.29337454756E+02  0.46142318535E+02  0.10000007060E+02 0.  0.
        -12    1    1    2    0    0  0.32781759115E+02 -0.96841848587E+01  0.29337454756E+02  0.45045681465E+02  0.00000000000E+00 0.  1.
         11    1    3    3    0    0 -0.18988304711E+02  0.50489609564E+01 -0.21364095877E+02  0.29025373648E+02  0.51100000000E-03 0. -1.
        -11    1    3    3    0    0 -0.91280238362E+00  0.17071142175E+01 -0.10960706837E+01  0.22245939738E+01  0.51100000000E-03 0.  1.
         12    1    3    3    0    0 -0.12880652020E+02  0.29281096847E+01 -0.68772881960E+01  0.14892350913E+02  0.00000000000E+00 0. -1.
</event>
<event>
 7    1  0.1563903E-008  0.4614232E+02  0.7816164E-02  0.1320468E+00
        -11   -1    0    0    0    0  0.00000000000E+00  0.00000000000E+00  0.45593999997E+02  0.45594000000E+02  0.51100000000E-03 0. -1.
         11   -1    0    0    0    0 -0.00000000000E+00 -0.00000000000E+00 -0.45593999997E+02  0.45594000000E+02  0.51100000000E-03 0.  1.
    9900012    2    1    2    0    0 -0.38664414797E+02  0.13688526154E+02  0.18622582983E+02  0.46142319665E+02  0.10000017359E+02 0.  0.
        -12    1    1    2    0    0  0.38664414797E+02 -0.13688526154E+02 -0.18622582983E+02  0.45045680335E+02  0.00000000000E+00 0.  1.
         11    1    3    3    0    0 -0.17380814779E+02  0.55985554943E+01  0.29682159274E+01  0.18499914920E+02  0.51100000000E-03 0. -1.
        -11    1    3    3    0    0 -0.96803768432E+01  0.32660710624E+01  0.70268915822E+01  0.12399762965E+02  0.51100000000E-03 0.  1.
         12    1    3    3    0    0 -0.11603223176E+02  0.48238995977E+01  0.86274754735E+01  0.15242641780E+02  0.00000000000E+00 0. -1.
</event>
<event>
 7    1  0.1563903E-008  0.4614232E+02  0.7816164E-02  0.1320468E+00
        -11   -1    0    0    0    0  0.00000000000E+00  0.00000000000E+00  0.45593999997E+02  0.45594000000E+02  0.51100000000E-03 0. -1.
         11   -1    0    0    0    0 -0.00000000000E+00 -0.00000000000E+00 -0.45593999997E+02  0.45594000000E+02  0.51100000000E-03 0.  1.
    9900012    2    1    2    0    0 -0.22155852178E+02  0.36618880076E+02  0.14045971653E+02  0.46142317816E+02  0.10000000500E+02 0.  0.
        -12    1    1    2    0    0  0.22155852178E+02 -0.36618880076E+02 -0.14045971653E+02  0.45045682184E+02  0.00000000000E+00 0.  1.
         11    1    3    3    0    0 -0.80178182535E+01  0.16066553788E+02  0.48772647086E+01  0.18606645895E+02  0.51100000000E-03 0.  1.
        -11    1    3    3    0    0 -0.97051530064E+01  0.16356757164E+02  0.37747884258E+01  0.19390268893E+02  0.51100000000E-03 0. -1.
        -12    1    3    3    0    0 -0.44328809178E+01  0.41955691240E+01  0.53939185190E+01  0.81454030284E+01  0.00000000000E+00 0.  1.
</event>
<event>
 7    1  0.1563903E-008  0.4614232E+02  0.7816164E-02  0.1320468E+00
        -11   -1    0    0    0    0  0.00000000000E+00  0.00000000000E+00  0.45593999997E+02  0.45594000000E+02  0.51100000000E-03 0. -1.
         11   -1    0    0    0    0 -0.00000000000E+00 -0.00000000000E+00 -0.45593999997E+02  0.45594000000E+02  0.51100000000E-03 0.  1.
    9900012    2    1    2    0    0  0.24534999003E+02 -0.15060622044E+02  0.34645706740E+02  0.46142317543E+02  0.99999980138E+01 0.  0.
        -12    1    1    2    0    0 -0.24534999003E+02  0.15060622044E+02 -0.34645706740E+02  0.45045682457E+02  0.00000000000E+00 0.  1.
         11    1    3    3    0    0  0.36238562449E+01 -0.28297317336E+01  0.11430648903E+02  0.12320691960E+02  0.51100000000E-03 0. -1.
        -11    1    3    3    0    0  0.13631037086E+02 -0.60523331209E+01  0.12410929510E+02  0.19402759593E+02  0.51100000000E-03 0.  1.
         12    1    3    3    0    0  0.72801056728E+01 -0.61785571896E+01  0.10804128327E+02  0.14418865991E+02  0.00000000000E+00 0. -1.
</event>
<event>
 7    1  0.1563903E-008  0.4614232E+02  0.7816164E-02  0.1320468E+00
        -11   -1    0    0    0    0  0.00000000000E+00  0.00000000000E+00  0.45593999997E+02  0.45594000000E+02  0.51100000000E-03 0.  1.
         11   -1    0    0    0    0 -0.00000000000E+00 -0.00000000000E+00 -0.45593999997E+02  0.45594000000E+02  0.51100000000E-03 0. -1.
    9900012    2    1    2    0    0  0.12777403201E+02  0.40838501091E+02 -0.14073681824E+02  0.46142315145E+02  0.99999761484E+01 0.  0.
        -12    1    1    2    0    0 -0.12777403201E+02 -0.40838501091E+02  0.14073681824E+02  0.45045684855E+02  0.00000000000E+00 0.  1.
         11    1    3    3    0    0  0.13925093037E+02  0.35178698569E+02 -0.11548677856E+02  0.39557818564E+02  0.51100000000E-03 0. -1.
        -11    1    3    3    0    0  0.34793986976E-01  0.88841089460E+00  0.27068185998E+00  0.92938338139E+00  0.51100000000E-03 0.  1.
         12    1    3    3    0    0 -0.11824838225E+01  0.47713916275E+01 -0.27956858277E+01  0.56551131996E+01  0.00000000000E+00 0. -1.
</event>
<event>
 7    1  0.1563903E-008  0.4614232E+02  0.7816164E-02  0.1320468E+00
        -11   -1    0    0    0    0  0.00000000000E+00  0.00000000000E+00  0.45593999997E+02  0.45594000000E+02  0.51100000000E-03 0. -1.
         11   -1    0    0    0    0 -0.00000000000E+00 -0.00000000000E+00 -0.45593999997E+02  0.45594000000E+02  0.51100000000E-03 0.  1.
    9900012    2    1    2    0    0 -0.37292977490E+02 -0.24719381509E+02 -0.52248884747E+01  0.46142318167E+02  0.10000003698E+02 0.  0.
        -12    1    1    2    0    0  0.37292977490E+02  0.24719381509E+02  0.52248884747E+01  0.45045681833E+02  0.00000000000E+00 0.  1.
         11    1    3    3    0    0 -0.15999397968E+02 -0.11494367198E+02  0.14054901833E+01  0.19750357352E+02  0.51100000000E-03 0. -1.
        -11    1    3    3    0    0 -0.82003896404E+00 -0.76565526214E+00 -0.15154643442E+01  0.18855567673E+01  0.51100000000E-03 0.  1.
        -12    1    3    3    0    0 -0.20473540557E+02 -0.12459359049E+02 -0.51149143138E+01  0.24506404047E+02  0.00000000000E+00 0.  1.
</event>
<event>
 7    1  0.1563903E-008  0.4614232E+02  0.7816164E-02  0.1320468E+00
        -11   -1    0    0    0    0  0.00000000000E+00  0.00000000000E+00  0.45593999997E+02  0.45594000000E+02  0.51100000000E-03 0.  1.
         11   -1    0    0    0    0 -0.00000000000E+00 -0.00000000000E+00 -0.45593999997E+02  0.45594000000E+02  0.51100000000E-03 0. -1.
    9900012    2    1    2    0    0  0.20636673513E+02  0.35562680397E+02  0.18399372684E+02  0.46142318233E+02  0.10000004303E+02 0.  0.
        -12    1    1    2    0    0 -0.20636673513E+02 -0.35562680397E+02 -0.18399372684E+02  0.45045681767E+02  0.00000000000E+00 0.  1.
         11    1    3    3    0    0  0.66616027710E+01  0.77859801599E+01  0.93638823021E+00  0.10289570531E+02  0.51100000000E-03 0. -1.
        -11    1    3    3    0    0  0.13612529795E+02  0.27443419297E+02  0.17614978699E+02  0.35337369808E+02  0.51100000000E-03 0.  1.
        -12    1    3    3    0    0  0.36254094720E+00  0.33328093988E+00 -0.15199424513E+00  0.51537789421E+00  0.00000000000E+00 0.  1.
</event>
<event>
 7    1  0.1563903E-008  0.4614232E+02  0.7816164E-02  0.1320468E+00
        -11   -1    0    0    0    0  0.00000000000E+00  0.00000000000E+00  0.45593999997E+02  0.45594000000E+02  0.51100000000E-03 0.  1.
         11   -1    0    0    0    0 -0.00000000000E+00 -0.00000000000E+00 -0.45593999997E+02  0.45594000000E+02  0.51100000000E-03 0. -1.
    9900012    2    1    2    0    0  0.43030621355E+01 -0.20121039199E+02 -0.40071697453E+02  0.46142317644E+02  0.99999989280E+01 0.  0.
        -12    1    1    2    0    0 -0.43030621355E+01  0.20121039199E+02  0.40071697453E+02  0.45045682356E+02  0.00000000000E+00 0.  1.
         11    1    3    3    0    0  0.98240961345E+00  0.65497169450E+00 -0.15288625735E+01  0.19317188199E+01  0.51100000000E-03 0.  1.
        -11    1    3    3    0    0  0.49988951630E+00 -0.16482159480E+02 -0.30346396700E+02  0.34537157724E+02  0.51100000000E-03 0. -1.
         12    1    3    3    0    0  0.28207630058E+01 -0.42938514131E+01 -0.81964381792E+01  0.96734411002E+01  0.00000000000E+00 0. -1.
</event>
<event>
 7    1  0.1563903E-008  0.4614232E+02  0.7816164E-02  0.1320468E+00
        -11   -1    0    0    0    0  0.00000000000E+00  0.00000000000E+00  0.45593999997E+02  0.45594000000E+02  0.51100000000E-03 0. -1.
         11   -1    0    0    0    0 -0.00000000000E+00 -0.00000000000E+00 -0.45593999997E+02  0.45594000000E+02  0.51100000000E-03 0.  1.
    9900012    2    1    2    0    0  0.22019646190E+02  0.38515252164E+02 -0.77989747315E+01  0.46142317915E+02  0.10000001405E+02 0.  0.
        -12    1    1    2    0    0 -0.22019646190E+02 -0.38515252164E+02  0.77989747315E+01  0.45045682085E+02  0.00000000000E+00 0.  1.
         11    1    3    3    0    0  0.13008666073E+02  0.15327165414E+02 -0.39547301492E+01  0.20488711122E+02  0.51100000000E-03 0. -1.
        -11    1    3    3    0    0  0.90075796019E+01  0.17556877411E+02 -0.29951489742E+01  0.19958741252E+02  0.51100000000E-03 0.  1.
        -12    1    3    3    0    0  0.34005155850E-02  0.56312093391E+01 -0.84909560812E+00  0.56948655415E+01  0.00000000000E+00 0.  1.
</event>
<event>
 7    1  0.1563903E-008  0.4614232E+02  0.7816164E-02  0.1320468E+00
        -11   -1    0    0    0    0  0.00000000000E+00  0.00000000000E+00  0.45593999997E+02  0.45594000000E+02  0.51100000000E-03 0.  1.
         11   -1    0    0    0    0 -0.00000000000E+00 -0.00000000000E+00 -0.45593999997E+02  0.45594000000E+02  0.51100000000E-03 0. -1.
    9900012    2    1    2    0    0  0.30089479801E+02  0.29275750979E+02 -0.16329949565E+02  0.46142316047E+02  0.99999843650E+01 0.  0.
        -12    1    1    2    0    0 -0.30089479801E+02 -0.29275750979E+02  0.16329949565E+02  0.45045683953E+02  0.00000000000E+00 0.  1.
         11    1    3    3    0    0  0.22930213700E+02  0.18821184192E+02 -0.80549519409E+01  0.30739452268E+02  0.51100000000E-03 0. -1.
        -11    1    3    3    0    0  0.24730607804E+01  0.32244525986E+01 -0.42928625960E+01  0.59111584070E+01  0.51100000000E-03 0.  1.
         12    1    3    3    0    0  0.46862053209E+01  0.72301141877E+01 -0.39821350280E+01  0.94917053714E+01  0.00000000000E+00 0. -1.
</event>
<event>
 7    1  0.1563903E-008  0.4614232E+02  0.7816164E-02  0.1320468E+00
        -11   -1    0    0    0    0  0.00000000000E+00  0.00000000000E+00  0.45593999997E+02  0.45594000000E+02  0.51100000000E-03 0. -1.
         11   -1    0    0    0    0 -0.00000000000E+00 -0.00000000000E+00 -0.45593999997E+02  0.45594000000E+02  0.51100000000E-03 0.  1.
    9900012    2    1    2    0    0  0.31139970799E+02 -0.10793183735E+02  0.30707047091E+02  0.46142319435E+02  0.10000015265E+02 0.  0.
        -12    1    1    2    0    0 -0.31139970799E+02  0.10793183735E+02 -0.30707047091E+02  0.45045680565E+02  0.00000000000E+00 0.  1.
         11    1    3    3    0    0  0.20854496640E+02 -0.93963158211E+01  0.23944459297E+02  0.33114013837E+02  0.51100000000E-03 0. -1.
        -11    1    3    3    0    0  0.10409632512E+02 -0.14485984805E+01  0.70876595039E+01  0.12676505990E+02  0.51100000000E-03 0.  1.
         12    1    3    3    0    0 -0.12415835307E+00  0.51730566569E-01 -0.32507170976E+00  0.35179960864E+00  0.00000000000E+00 0. -1.
</event>
<event>
 7    1  0.1563903E-008  0.4614232E+02  0.7816164E-02  0.1320468E+00
        -11   -1    0    0    0    0  0.00000000000E+00  0.00000000000E+00  0.45593999997E+02  0.45594000000E+02  0.51100000000E-03 0. -1.
         11   -1    0    0    0    0 -0.00000000000E+00 -0.00000000000E+00 -0.45593999997E+02  0.45594000000E+02  0.51100000000E-03 0.  1.
    9900012    2    1    2    0    0  0.16699078969E+02  0.40504685195E+02  0.10470180372E+02  0.46142318318E+02  0.10000005077E+02 0.  0.
        -12    1    1    2    0    0 -0.16699078969E+02 -0.40504685195E+02 -0.10470180372E+02  0.45045681682E+02  0.00000000000E+00 0.  1.
         11    1    3    3    0    0  0.14579595450E+01  0.92478937323E+01  0.39319518375E+01  0.10154281365E+02  0.51100000000E-03 0. -1.
        -11    1    3    3    0    0  0.15085173008E+02  0.26583267959E+02  0.67706564470E+01  0.31306139479E+02  0.51100000000E-03 0.  1.
         12    1    3    3    0    0  0.15594641589E+00  0.46735235041E+01 -0.23242791257E+00  0.46818974746E+01  0.00000000000E+00 0. -1.
</event>
<event>
 7    1  0.1563903E-008  0.4614232E+02  0.7816164E-02  0.1320468E+00
        -11   -1    0    0    0    0  0.00000000000E+00  0.00000000000E+00  0.45593999997E+02  0.45594000000E+02  0.51100000000E-03 0.  1.
         11   -1    0    0    0    0 -0.00000000000E+00 -0.00000000000E+00 -0.45593999997E+02  0.45594000000E+02  0.51100000000E-03 0. -1.
    9900012    2    1    2    0    0  0.28568227942E+02 -0.34821900613E+02 -0.63629641911E+00  0.46142320039E+02  0.10000020771E+02 0.  0.
        -12    1    1    2    0    0 -0.28568227942E+02  0.34821900613E+02  0.63629641911E+00  0.45045679961E+02  0.00000000000E+00 0.  1.
         11    1    3    3    0    0  0.12544568715E+01 -0.41947973049E+01 -0.15342736238E+01  0.46393946033E+01  0.51100000000E-03 0. -1.
        -11    1    3    3    0    0  0.17620919988E+02 -0.16358961975E+02 -0.14861138816E+01  0.24089852487E+02  0.51100000000E-03 0.  1.
        -12    1    3    3    0    0  0.96928510817E+01 -0.14268141333E+02  0.23840910862E+01  0.17413072948E+02  0.00000000000E+00 0.  1.
</event>
<event>
 7    1  0.2326571E-008  0.4614232E+02  0.7816164E-02  0.1320468E+00
        -11   -1    0    0    0    0  0.00000000000E+00  0.00000000000E+00  0.45593999997E+02  0.45594000000E+02  0.51100000000E-03 0. -1.
         11   -1    0    0    0    0 -0.00000000000E+00 -0.00000000000E+00 -0.45593999997E+02  0.45594000000E+02  0.51100000000E-03 0.  1.
    9900012    2    1    2    0    0 -0.33900244316E+02  0.28916256010E+02  0.66134057844E+01  0.46142316939E+02  0.99999925064E+01 0.  0.
        -12    1    1    2    0    0  0.33900244316E+02 -0.28916256010E+02 -0.66134057844E+01  0.45045683061E+02  0.00000000000E+00 0.  1.
         11    1    3    3    0    0 -0.29499956952E+02  0.25504082269E+02  0.51734797657E+01  0.39337902406E+02  0.51100000000E-03 0. -1.
        -11    1    3    3    0    0 -0.88074130493E-01  0.21052546361E+01  0.79736693254E+00  0.22529199767E+01  0.51100000000E-03 0.  1.
         12    1    3    3    0    0 -0.43122132337E+01  0.13069191047E+01  0.64255908622E+00  0.45514945566E+01  0.00000000000E+00 0. -1.
</event>
<event>
 7    1  0.1563903E-008  0.4614232E+02  0.7816164E-02  0.1320468E+00
        -11   -1    0    0    0    0  0.00000000000E+00  0.00000000000E+00  0.45593999997E+02  0.45594000000E+02  0.51100000000E-03 0. -1.
         11   -1    0    0    0    0 -0.00000000000E+00 -0.00000000000E+00 -0.45593999997E+02  0.45594000000E+02  0.51100000000E-03 0.  1.
    9900012    2    1    2    0    0 -0.39960735083E+02 -0.53428929397E+01  0.20092453271E+02  0.46142317279E+02  0.99999956018E+01 0.  0.
        -12    1    1    2    0    0  0.39960735083E+02  0.53428929397E+01 -0.20092453271E+02  0.45045682721E+02  0.00000000000E+00 0.  1.
         11    1    3    3    0    0 -0.30491596308E+02 -0.33225069317E+01  0.15028210347E+02  0.34155872178E+02  0.51100000000E-03 0. -1.
        -11    1    3    3    0    0 -0.54609795004E+00  0.10063170261E+01 -0.24547185031E+00  0.11709626887E+01  0.51100000000E-03 0.  1.
        -12    1    3    3    0    0 -0.89230408252E+01 -0.30267030340E+01  0.53097147744E+01  0.10815482412E+02  0.00000000000E+00 0.  1.
</event>
<event>
 7    1  0.1563903E-008  0.4614232E+02  0.7816164E-02  0.1320468E+00
        -11   -1    0    0    0    0  0.00000000000E+00  0.00000000000E+00  0.45593999997E+02  0.45594000000E+02  0.51100000000E-03 0.  1.
         11   -1    0    0    0    0 -0.00000000000E+00 -0.00000000000E+00 -0.45593999997E+02  0.45594000000E+02  0.51100000000E-03 0. -1.
    9900012    2    1    2    0    0  0.42620293635E+01 -0.31236830983E+02 -0.32174664395E+02  0.46142317264E+02  0.99999954703E+01 0.  0.
        -12    1    1    2    0    0 -0.42620293635E+01  0.31236830983E+02  0.32174664395E+02  0.45045682736E+02  0.00000000000E+00 0.  1.
         11    1    3    3    0    0  0.37672113307E+01 -0.15648254004E+02 -0.10294259214E+02  0.19105797749E+02  0.51100000000E-03 0. -1.
        -11    1    3    3    0    0 -0.67027942146E+00 -0.14727358803E+01 -0.14254627991E+01  0.21564252662E+01  0.51100000000E-03 0.  1.
         12    1    3    3    0    0  0.11650974542E+01 -0.14115841099E+02 -0.20454942382E+02  0.24880094249E+02  0.00000000000E+00 0. -1.
</event>
<event>
 7    1  0.1563903E-008  0.4614232E+02  0.7816164E-02  0.1320468E+00
        -11   -1    0    0    0    0  0.00000000000E+00  0.00000000000E+00  0.45593999997E+02  0.45594000000E+02  0.51100000000E-03 0. -1.
         11   -1    0    0    0    0 -0.00000000000E+00 -0.00000000000E+00 -0.45593999997E+02  0.45594000000E+02  0.51100000000E-03 0.  1.
    9900012    2    1    2    0    0  0.35408021207E+02  0.12847164929E+02  0.24704978867E+02  0.46142316596E+02  0.99999893789E+01 0.  0.
        -12    1    1    2    0    0 -0.35408021207E+02 -0.12847164929E+02 -0.24704978867E+02  0.45045683404E+02  0.00000000000E+00 0.  1.
         11    1    3    3    0    0  0.22135511384E+02  0.48428330590E+01  0.14330451739E+02  0.26810366346E+02  0.51100000000E-03 0. -1.
        -11    1    3    3    0    0  0.16061169983E+01  0.39722694244E+00 -0.42477619674E+00  0.17081674784E+01  0.51100000000E-03 0.  1.
        -12    1    3    3    0    0  0.11666392824E+02  0.76071049280E+01  0.10799303325E+02  0.17623782772E+02  0.00000000000E+00 0.  1.
</event>
<event>
 7    1  0.1563903E-008  0.4614232E+02  0.7816164E-02  0.1320468E+00
        -11   -1    0    0    0    0  0.00000000000E+00  0.00000000000E+00  0.45593999997E+02  0.45594000000E+02  0.51100000000E-03 0.  1.
         11   -1    0    0    0    0 -0.00000000000E+00 -0.00000000000E+00 -0.45593999997E+02  0.45594000000E+02  0.51100000000E-03 0. -1.
    9900012    2    1    2    0    0 -0.11775104891E+02 -0.21428146931E+02 -0.37832457310E+02  0.46142318718E+02  0.10000008722E+02 0.  0.
        -12    1    1    2    0    0  0.11775104891E+02  0.21428146931E+02  0.37832457310E+02  0.45045681282E+02  0.00000000000E+00 0.  1.
         11    1    3    3    0    0  0.13838601397E+01 -0.68683520006E+00 -0.23005927702E+01  0.27711980863E+01  0.51100000000E-03 0. -1.
        -11    1    3    3    0    0 -0.12141539370E+02 -0.16655409049E+02 -0.30477727893E+02  0.36792818955E+02  0.51100000000E-03 0.  1.
         12    1    3    3    0    0 -0.10174256606E+01 -0.40859026820E+01 -0.50541366461E+01  0.65783016759E+01  0.00000000000E+00 0. -1.
</event>
<event>
 7    1  0.1563903E-008  0.4614232E+02  0.7816164E-02  0.1320468E+00
        -11   -1    0    0    0    0  0.00000000000E+00  0.00000000000E+00  0.45593999997E+02  0.45594000000E+02  0.51100000000E-03 0.  1.
         11   -1    0    0    0    0 -0.00000000000E+00 -0.00000000000E+00 -0.45593999997E+02  0.45594000000E+02  0.51100000000E-03 0. -1.
    9900012    2    1    2    0    0  0.42047591538E+02  0.16139245919E+02  0.79893869186E+00  0.46142317454E+02  0.99999971994E+01 0.  0.
        -12    1    1    2    0    0 -0.42047591538E+02 -0.16139245919E+02 -0.79893869186E+00  0.45045682546E+02  0.00000000000E+00 0.  1.
         11    1    3    3    0    0  0.11316537134E+02  0.24316719638E+01  0.80281745264E+00  0.11602653032E+02  0.51100000000E-03 0. -1.
        -11    1    3    3    0    0  0.19650564835E+01  0.12654521607E+00  0.18135120061E+01  0.26769921054E+01  0.51100000000E-03 0.  1.
         12    1    3    3    0    0  0.28765997921E+02  0.13581028739E+02 -0.18173907669E+01  0.31862672317E+02  0.00000000000E+00 0. -1.
</event>
<event>
 7    1  0.1563903E-008  0.4614232E+02  0.7816164E-02  0.1320468E+00
        -11   -1    0    0    0    0  0.00000000000E+00  0.00000000000E+00  0.45593999997E+02  0.45594000000E+02  0.51100000000E-03 0.  1.
         11   -1    0    0    0    0 -0.00000000000E+00 -0.00000000000E+00 -0.45593999997E+02  0.45594000000E+02  0.51100000000E-03 0. -1.
    9900012    2    1    2    0    0 -0.92511675546E+01  0.34663316004E+02 -0.27239382983E+02  0.46142316935E+02  0.99999924662E+01 0.  0.
        -12    1    1    2    0    0  0.92511675546E+01 -0.34663316004E+02  0.27239382983E+02  0.45045683065E+02  0.00000000000E+00 0.  1.
         11    1    3    3    0    0 -0.32547548161E+01  0.75180793111E+01 -0.65275344050E+01  0.10474905781E+02  0.51100000000E-03 0. -1.
        -11    1    3    3    0    0 -0.21136834453E+01  0.10511518091E+01 -0.33025798763E+01  0.40595088291E+01  0.51100000000E-03 0.  1.
         12    1    3    3    0    0 -0.38827292932E+01  0.26094084884E+02 -0.17409268701E+02  0.31607902325E+02  0.00000000000E+00 0. -1.
</event>
<event>
 7    1  0.1563903E-008  0.4614232E+02  0.7816164E-02  0.1320468E+00
        -11   -1    0    0    0    0  0.00000000000E+00  0.00000000000E+00  0.45593999997E+02  0.45594000000E+02  0.51100000000E-03 0.  1.
         11   -1    0    0    0    0 -0.00000000000E+00 -0.00000000000E+00 -0.45593999997E+02  0.45594000000E+02  0.51100000000E-03 0. -1.
    9900012    2    1    2    0    0 -0.37183464767E+02 -0.14625889279E+02 -0.20798720640E+02  0.46142317970E+02  0.10000001905E+02 0.  0.
        -12    1    1    2    0    0  0.37183464767E+02  0.14625889279E+02  0.20798720640E+02  0.45045682030E+02  0.00000000000E+00 0.  1.
         11    1    3    3    0    0 -0.45685682114E+01 -0.12061255636E+01  0.33867162881E+00  0.47372199770E+01  0.51100000000E-03 0. -1.
        -11    1    3    3    0    0 -0.10888615059E+02 -0.24904674731E+01 -0.82095986110E+01  0.13862246418E+02  0.51100000000E-03 0.  1.
         12    1    3    3    0    0 -0.21726281497E+02 -0.10929296242E+02 -0.12927793658E+02  0.27542851575E+02  0.00000000000E+00 0. -1.
</event>
<event>
 7    1  0.1563903E-008  0.4614232E+02  0.7816164E-02  0.1320468E+00
        -11   -1    0    0    0    0  0.00000000000E+00  0.00000000000E+00  0.45593999997E+02  0.45594000000E+02  0.51100000000E-03 0. -1.
         11   -1    0    0    0    0 -0.00000000000E+00 -0.00000000000E+00 -0.45593999997E+02  0.45594000000E+02  0.51100000000E-03 0.  1.
    9900012    2    1    2    0    0  0.38519025521E+02  0.13027230021E+02  0.19382705773E+02  0.46142319495E+02  0.10000015808E+02 0.  0.
        -12    1    1    2    0    0 -0.38519025521E+02 -0.13027230021E+02 -0.19382705773E+02  0.45045680505E+02  0.00000000000E+00 0.  1.
         11    1    3    3    0    0  0.63044903042E+01  0.21366697170E+01  0.33663541003E+01  0.74595104172E+01  0.51100000000E-03 0. -1.
        -11    1    3    3    0    0  0.12502978325E+02  0.54254136175E+01  0.17437360573E+01  0.13740458348E+02  0.51100000000E-03 0.  1.
        -12    1    3    3    0    0  0.19711556892E+02  0.54651466866E+01  0.14272615615E+02  0.24942350729E+02  0.00000000000E+00 0.  1.
</event>
<event>
 7    1  0.1563903E-008  0.4614232E+02  0.7816164E-02  0.1320468E+00
        -11   -1    0    0    0    0  0.00000000000E+00  0.00000000000E+00  0.45593999997E+02  0.45594000000E+02  0.51100000000E-03 0.  1.
         11   -1    0    0    0    0 -0.00000000000E+00 -0.00000000000E+00 -0.45593999997E+02  0.45594000000E+02  0.51100000000E-03 0. -1.
    9900012    2    1    2    0    0 -0.19897351622E+02 -0.28976627621E+02 -0.28170256116E+02  0.46142324520E+02  0.10000061630E+02 0.  0.
        -12    1    1    2    0    0  0.19897351622E+02  0.28976627621E+02  0.28170256116E+02  0.45045675480E+02  0.00000000000E+00 0.  1.
         11    1    3    3    0    0 -0.89021572713E+01 -0.18545931722E+02 -0.13749494388E+02  0.24743657444E+02  0.51100000000E-03 0. -1.
        -11    1    3    3    0    0 -0.74787330485E+01 -0.85428604523E+01 -0.81913686348E+01  0.14000372605E+02  0.51100000000E-03 0.  1.
         12    1    3    3    0    0 -0.35164613019E+01 -0.18878354465E+01 -0.62293930927E+01  0.73982944699E+01  0.00000000000E+00 0. -1.
</event>
<event>
 7    1  0.1563903E-008  0.4614232E+02  0.7816164E-02  0.1320468E+00
        -11   -1    0    0    0    0  0.00000000000E+00  0.00000000000E+00  0.45593999997E+02  0.45594000000E+02  0.51100000000E-03 0.  1.
         11   -1    0    0    0    0 -0.00000000000E+00 -0.00000000000E+00 -0.45593999997E+02  0.45594000000E+02  0.51100000000E-03 0. -1.
    9900012    2    1    2    0    0  0.84385593250E+01  0.44201729210E+02 -0.20276509842E+01  0.46142317442E+02  0.99999970894E+01 0.  0.
        -12    1    1    2    0    0 -0.84385593250E+01 -0.44201729210E+02  0.20276509842E+01  0.45045682558E+02  0.00000000000E+00 0.  1.
         11    1    3    3    0    0 -0.94628629650E-01  0.27185912717E+01  0.12768292716E+01  0.30049935657E+01  0.51100000000E-03 0. -1.
        -11    1    3    3    0    0  0.20978768074E+01  0.24031831315E+02 -0.43312370972E+01  0.24508970164E+02  0.51100000000E-03 0.  1.
        -12    1    3    3    0    0  0.64353111472E+01  0.17451306623E+02  0.10267568414E+01  0.18628353712E+02  0.00000000000E+00 0.  1.
</event>
<event>
 7    1  0.1563903E-008  0.4614231E+02  0.7816164E-02  0.1320468E+00
        -11   -1    0    0    0    0  0.00000000000E+00  0.00000000000E+00  0.45593999997E+02  0.45594000000E+02  0.51100000000E-03 0. -1.
         11   -1    0    0    0    0 -0.00000000000E+00 -0.00000000000E+00 -0.45593999997E+02  0.45594000000E+02  0.51100000000E-03 0.  1.
    9900012    2    1    2    0    0 -0.22698876266E+02  0.35141619797E+02  0.16701537487E+02  0.46142314522E+02  0.99999704655E+01 0.  0.
        -12    1    1    2    0    0  0.22698876266E+02 -0.35141619797E+02 -0.16701537487E+02  0.45045685478E+02  0.00000000000E+00 0.  1.
         11    1    3    3    0    0 -0.10961199187E+02  0.17142974017E+02  0.12470630111E+02  0.23865164182E+02  0.51100000000E-03 0. -1.
        -11    1    3    3    0    0 -0.29812165045E+01  0.52368951095E+01 -0.61981989072E+00  0.60577965625E+01  0.51100000000E-03 0.  1.
         12    1    3    3    0    0 -0.87564605745E+01  0.12761750670E+02  0.48507272663E+01  0.16219353778E+02  0.00000000000E+00 0. -1.
</event>
<event>
 7    1  0.1563903E-008  0.4614232E+02  0.7816164E-02  0.1320468E+00
        -11   -1    0    0    0    0  0.00000000000E+00  0.00000000000E+00  0.45593999997E+02  0.45594000000E+02  0.51100000000E-03 0. -1.
         11   -1    0    0    0    0 -0.00000000000E+00 -0.00000000000E+00 -0.45593999997E+02  0.45594000000E+02  0.51100000000E-03 0.  1.
    9900012    2    1    2    0    0  0.36206413913E+02  0.66019529740E+01  0.25973510577E+02  0.46142318262E+02  0.10000004568E+02 0.  0.
        -12    1    1    2    0    0 -0.36206413913E+02 -0.66019529740E+01 -0.25973510577E+02  0.45045681738E+02  0.00000000000E+00 0.  1.
         11    1    3    3    0    0  0.70310461389E+01  0.21429118912E+00  0.57717583261E+01  0.90991606732E+01  0.51100000000E-03 0. -1.
        -11    1    3    3    0    0  0.20052412806E+02  0.38970332160E+00  0.11833024817E+02  0.23286725931E+02  0.51100000000E-03 0.  1.
        -12    1    3    3    0    0  0.91229549685E+01  0.59979584632E+01  0.83687274343E+01  0.13756431658E+02  0.00000000000E+00 0.  1.
</event>
<event>
 7    1  0.1563903E-008  0.4614232E+02  0.7816164E-02  0.1320468E+00
        -11   -1    0    0    0    0  0.00000000000E+00  0.00000000000E+00  0.45593999997E+02  0.45594000000E+02  0.51100000000E-03 0. -1.
         11   -1    0    0    0    0 -0.00000000000E+00 -0.00000000000E+00 -0.45593999997E+02  0.45594000000E+02  0.51100000000E-03 0.  1.
    9900012    2    1    2    0    0  0.97547822501E+01 -0.27447149472E+02  0.34360030659E+02  0.46142317657E+02  0.99999990515E+01 0.  0.
        -12    1    1    2    0    0 -0.97547822501E+01  0.27447149472E+02 -0.34360030659E+02  0.45045682343E+02  0.00000000000E+00 0.  1.
         11    1    3    3    0    0  0.64205458411E+01 -0.16176280708E+02  0.26562886675E+02  0.31756612150E+02  0.51100000000E-03 0. -1.
        -11    1    3    3    0    0  0.29389099961E+01 -0.59189898398E+01  0.33130515627E+01  0.73924247448E+01  0.51100000000E-03 0.  1.
         12    1    3    3    0    0  0.39532641287E+00 -0.53518789235E+01  0.44840924209E+01  0.69932807626E+01  0.00000000000E+00 0. -1.
</event>
<event>
 7    1  0.1563903E-008  0.4614232E+02  0.7816164E-02  0.1320468E+00
        -11   -1    0    0    0    0  0.00000000000E+00  0.00000000000E+00  0.45593999997E+02  0.45594000000E+02  0.51100000000E-03 0.  1.
         11   -1    0    0    0    0 -0.00000000000E+00 -0.00000000000E+00 -0.45593999997E+02  0.45594000000E+02  0.51100000000E-03 0. -1.
    9900012    2    1    2    0    0  0.15133095052E+02 -0.15887191165E+02 -0.39340819959E+02  0.46142317365E+02  0.99999963900E+01 0.  0.
        -12    1    1    2    0    0 -0.15133095052E+02  0.15887191165E+02  0.39340819959E+02  0.45045682635E+02  0.00000000000E+00 0.  1.
         11    1    3    3    0    0  0.73959105154E+01 -0.32640733754E+01 -0.10959765870E+02  0.13618742069E+02  0.51100000000E-03 0. -1.
        -11    1    3    3    0    0  0.78148952172E+01 -0.11763906716E+02 -0.22399839072E+02  0.26480462216E+02  0.51100000000E-03 0.  1.
        -12    1    3    3    0    0 -0.77710680319E-01 -0.85921107417E+00 -0.59812150170E+01  0.60431130801E+01  0.00000000000E+00 0.  1.
</event>
<event>
 7    1  0.1563903E-008  0.4614232E+02  0.7816164E-02  0.1320468E+00
        -11   -1    0    0    0    0  0.00000000000E+00  0.00000000000E+00  0.45593999997E+02  0.45594000000E+02  0.51100000000E-03 0. -1.
         11   -1    0    0    0    0 -0.00000000000E+00 -0.00000000000E+00 -0.45593999997E+02  0.45594000000E+02  0.51100000000E-03 0.  1.
    9900012    2    1    2    0    0 -0.24669128533E+02 -0.11877172665E+02  0.35769824143E+02  0.46142318161E+02  0.10000003648E+02 0.  0.
        -12    1    1    2    0    0  0.24669128533E+02  0.11877172665E+02 -0.35769824143E+02  0.45045681839E+02  0.00000000000E+00 0.  1.
         11    1    3    3    0    0 -0.71588759383E+01 -0.55226367986E+01  0.16003212386E+02  0.18380746145E+02  0.51100000000E-03 0. -1.
        -11    1    3    3    0    0 -0.17944933811E+02 -0.63884338392E+01  0.19441286705E+02  0.27217574569E+02  0.51100000000E-03 0.  1.
        -12    1    3    3    0    0  0.43468121699E+00  0.33897972676E-01  0.32532505216E+00  0.54399744716E+00  0.00000000000E+00 0.  1.
</event>
<event>
 7    1  0.1563903E-008  0.4614232E+02  0.7816164E-02  0.1320468E+00
        -11   -1    0    0    0    0  0.00000000000E+00  0.00000000000E+00  0.45593999997E+02  0.45594000000E+02  0.51100000000E-03 0.  1.
         11   -1    0    0    0    0 -0.00000000000E+00 -0.00000000000E+00 -0.45593999997E+02  0.45594000000E+02  0.51100000000E-03 0. -1.
    9900012    2    1    2    0    0 -0.18492053657E+02  0.25388218276E+02 -0.32289252592E+02  0.46142317536E+02  0.99999979487E+01 0.  0.
        -12    1    1    2    0    0  0.18492053657E+02 -0.25388218276E+02  0.32289252592E+02  0.45045682464E+02  0.00000000000E+00 0.  1.
         11    1    3    3    0    0 -0.75406737937E+01  0.11418572158E+02 -0.12420240952E+02  0.18479933359E+02  0.51100000000E-03 0. -1.
        -11    1    3    3    0    0 -0.42092659554E+00  0.51949370557E+01 -0.79037286887E+01  0.94674958494E+01  0.51100000000E-03 0.  1.
        -12    1    3    3    0    0 -0.10530453268E+02  0.87747090624E+01 -0.11965282951E+02  0.18194888328E+02  0.00000000000E+00 0.  1.
</event>
<event>
 7    1  0.1563903E-008  0.4614232E+02  0.7816164E-02  0.1320468E+00
        -11   -1    0    0    0    0  0.00000000000E+00  0.00000000000E+00  0.45593999997E+02  0.45594000000E+02  0.51100000000E-03 0.  1.
         11   -1    0    0    0    0 -0.00000000000E+00 -0.00000000000E+00 -0.45593999997E+02  0.45594000000E+02  0.51100000000E-03 0. -1.
    9900012    2    1    2    0    0  0.38663697657E+01 -0.45029478166E+01 -0.44652974910E+02  0.46142317382E+02  0.99999965424E+01 0.  0.
        -12    1    1    2    0    0 -0.38663697657E+01  0.45029478166E+01  0.44652974910E+02  0.45045682618E+02  0.00000000000E+00 0.  1.
         11    1    3    3    0    0  0.32311204462E+01 -0.19250399471E+01 -0.29557985731E+02  0.29796315861E+02  0.51100000000E-03 0. -1.
        -11    1    3    3    0    0 -0.19039077543E+01  0.29893886432E+00 -0.23679186170E+01  0.30530751742E+01  0.51100000000E-03 0.  1.
         12    1    3    3    0    0  0.25391570737E+01 -0.28768467338E+01 -0.12727070562E+02  0.13292926347E+02  0.00000000000E+00 0. -1.
</event>
<event>
 7    1  0.1563903E-008  0.4614232E+02  0.7816164E-02  0.1320468E+00
        -11   -1    0    0    0    0  0.00000000000E+00  0.00000000000E+00  0.45593999997E+02  0.45594000000E+02  0.51100000000E-03 0.  1.
         11   -1    0    0    0    0 -0.00000000000E+00 -0.00000000000E+00 -0.45593999997E+02  0.45594000000E+02  0.51100000000E-03 0. -1.
    9900012    2    1    2    0    0 -0.29359819207E+02 -0.15763286970E+02 -0.30308962897E+02  0.46142318388E+02  0.10000005721E+02 0.  0.
        -12    1    1    2    0    0  0.29359819207E+02  0.15763286970E+02  0.30308962897E+02  0.45045681612E+02  0.00000000000E+00 0.  1.
         11    1    3    3    0    0 -0.77114456908E+01 -0.64338646738E+01 -0.12103368652E+02  0.15727445510E+02  0.51100000000E-03 0.  1.
        -11    1    3    3    0    0 -0.45516981976E+01 -0.36098026771E+01 -0.19149950050E+01  0.61168486968E+01  0.51100000000E-03 0. -1.
         12    1    3    3    0    0 -0.17096675318E+02 -0.57196196188E+01 -0.16290599240E+02  0.24298024182E+02  0.00000000000E+00 0. -1.
</event>
<event>
 7    1  0.1563903E-008  0.4614232E+02  0.7816164E-02  0.1320468E+00
        -11   -1    0    0    0    0  0.00000000000E+00  0.00000000000E+00  0.45593999997E+02  0.45594000000E+02  0.51100000000E-03 0.  1.
         11   -1    0    0    0    0 -0.00000000000E+00 -0.00000000000E+00 -0.45593999997E+02  0.45594000000E+02  0.51100000000E-03 0. -1.
    9900012    2    1    2    0    0  0.16273164431E+02  0.33768678449E+02 -0.24979471709E+02  0.46142317281E+02  0.99999956194E+01 0.  0.
        -12    1    1    2    0    0 -0.16273164431E+02 -0.33768678449E+02  0.24979471709E+02  0.45045682719E+02  0.00000000000E+00 0.  1.
         11    1    3    3    0    0  0.97608718682E+01  0.12960779839E+02 -0.14311634913E+02  0.21635141040E+02  0.51100000000E-03 0. -1.
        -11    1    3    3    0    0  0.61624214478E+01  0.20282598320E+02 -0.96085024441E+01  0.23274074680E+02  0.51100000000E-03 0.  1.
        -12    1    3    3    0    0  0.34987111461E+00  0.52530028971E+00 -0.10593343516E+01  0.12331015609E+01  0.00000000000E+00 0.  1.
</event>
<event>
 7    1  0.1563903E-008  0.4614232E+02  0.7816164E-02  0.1320468E+00
        -11   -1    0    0    0    0  0.00000000000E+00  0.00000000000E+00  0.45593999997E+02  0.45594000000E+02  0.51100000000E-03 0. -1.
         11   -1    0    0    0    0 -0.00000000000E+00 -0.00000000000E+00 -0.45593999997E+02  0.45594000000E+02  0.51100000000E-03 0.  1.
    9900012    2    1    2    0    0  0.39413037028E+02 -0.20289025686E+01  0.21716573593E+02  0.46142317610E+02  0.99999986181E+01 0.  0.
        -12    1    1    2    0    0 -0.39413037028E+02  0.20289025686E+01 -0.21716573593E+02  0.45045682390E+02  0.00000000000E+00 0.  1.
         11    1    3    3    0    0  0.94553826966E+01  0.13657433251E+00  0.34582027294E+01  0.10068866911E+02  0.51100000000E-03 0. -1.
        -11    1    3    3    0    0  0.14932125746E+02 -0.45731090505E+01  0.68415125919E+01  0.17049574789E+02  0.51100000000E-03 0.  1.
        -12    1    3    3    0    0  0.15025528586E+02  0.24076321494E+01  0.11416858271E+02  0.19023875910E+02  0.00000000000E+00 0.  1.
</event>
<event>
 7    1  0.1563903E-008  0.4614232E+02  0.7816164E-02  0.1320468E+00
        -11   -1    0    0    0    0  0.00000000000E+00  0.00000000000E+00  0.45593999997E+02  0.45594000000E+02  0.51100000000E-03 0. -1.
         11   -1    0    0    0    0 -0.00000000000E+00 -0.00000000000E+00 -0.45593999997E+02  0.45594000000E+02  0.51100000000E-03 0.  1.
    9900012    2    1    2    0    0 -0.24331157255E+02 -0.15379233318E+01  0.37878000218E+02  0.46142319607E+02  0.10000016830E+02 0.  0.
        -12    1    1    2    0    0  0.24331157255E+02  0.15379233318E+01 -0.37878000218E+02  0.45045680393E+02  0.00000000000E+00 0.  1.
         11    1    3    3    0    0 -0.34898496103E+01  0.11324208830E+01  0.10666158125E+02  0.11279554813E+02  0.51100000000E-03 0. -1.
        -11    1    3    3    0    0 -0.18988734672E+02 -0.60114664104E+00  0.24188283048E+02  0.30757217995E+02  0.51100000000E-03 0.  1.
        -12    1    3    3    0    0 -0.18525729735E+01 -0.20691975738E+01  0.30235590452E+01  0.41055467993E+01  0.00000000000E+00 0.  1.
</event>
<event>
 7    1  0.1563903E-008  0.4614232E+02  0.7816164E-02  0.1320468E+00
        -11   -1    0    0    0    0  0.00000000000E+00  0.00000000000E+00  0.45593999997E+02  0.45594000000E+02  0.51100000000E-03 0.  1.
         11   -1    0    0    0    0 -0.00000000000E+00 -0.00000000000E+00 -0.45593999997E+02  0.45594000000E+02  0.51100000000E-03 0. -1.
    9900012    2    1    2    0    0 -0.98266776279E+01  0.95272555123E+01 -0.42915979490E+02  0.46142317783E+02  0.10000000204E+02 0.  0.
        -12    1    1    2    0    0  0.98266776279E+01 -0.95272555123E+01  0.42915979490E+02  0.45045682217E+02  0.00000000000E+00 0.  1.
         11    1    3    3    0    0 -0.22776700971E+01  0.69506558321E+01 -0.12418216829E+02  0.14412199937E+02  0.51100000000E-03 0. -1.
        -11    1    3    3    0    0 -0.45276666081E+01  0.13513308287E+00 -0.11944036715E+02  0.12774115984E+02  0.51100000000E-03 0.  1.
         12    1    3    3    0    0 -0.30213409228E+01  0.24414665973E+01 -0.18553725946E+02  0.18956001862E+02  0.00000000000E+00 0. -1.
</event>
<event>
 7    1  0.1563903E-008  0.4614232E+02  0.7816164E-02  0.1320468E+00
        -11   -1    0    0    0    0  0.00000000000E+00  0.00000000000E+00  0.45593999997E+02  0.45594000000E+02  0.51100000000E-03 0.  1.
         11   -1    0    0    0    0 -0.00000000000E+00 -0.00000000000E+00 -0.45593999997E+02  0.45594000000E+02  0.51100000000E-03 0. -1.
    9900012    2    1    2    0    0  0.30750674322E+02 -0.32702781111E+02  0.37466785181E+01  0.46142318037E+02  0.10000002515E+02 0.  0.
        -12    1    1    2    0    0 -0.30750674322E+02  0.32702781111E+02 -0.37466785181E+01  0.45045681963E+02  0.00000000000E+00 0.  1.
         11    1    3    3    0    0  0.16160575630E+02 -0.13608208215E+02  0.32227961152E+01  0.21371334787E+02  0.51100000000E-03 0.  1.
        -11    1    3    3    0    0  0.44552216183E+01 -0.24075619166E+01  0.13124641402E+01  0.52314354083E+01  0.51100000000E-03 0. -1.
         12    1    3    3    0    0  0.10134877074E+02 -0.16687010979E+02 -0.78858173730E+00  0.19539547842E+02  0.00000000000E+00 0. -1.
</event>
<event>
 7    1  0.1563903E-008  0.4614232E+02  0.7816164E-02  0.1320468E+00
        -11   -1    0    0    0    0  0.00000000000E+00  0.00000000000E+00  0.45593999997E+02  0.45594000000E+02  0.51100000000E-03 0. -1.
         11   -1    0    0    0    0 -0.00000000000E+00 -0.00000000000E+00 -0.45593999997E+02  0.45594000000E+02  0.51100000000E-03 0.  1.
    9900012    2    1    2    0    0  0.90230517845E+01  0.13830023130E+02  0.41909768835E+02  0.46142315111E+02  0.99999758374E+01 0.  0.
        -12    1    1    2    0    0 -0.90230517845E+01 -0.13830023130E+02 -0.41909768835E+02  0.45045684889E+02  0.00000000000E+00 0.  1.
         11    1    3    3    0    0  0.42975335460E+01  0.51433509972E+01  0.18893299334E+02  0.20046935278E+02  0.51100000000E-03 0.  1.
        -11    1    3    3    0    0  0.32034469725E+01  0.68071154926E+01  0.22356506062E+02  0.23588392429E+02  0.51100000000E-03 0. -1.
        -12    1    3    3    0    0  0.15220712661E+01  0.18795566404E+01  0.65996343907E+00  0.25069874041E+01  0.00000000000E+00 0.  1.
</event>
<event>
 7    1  0.1563903E-008  0.4614232E+02  0.7816164E-02  0.1320468E+00
        -11   -1    0    0    0    0  0.00000000000E+00  0.00000000000E+00  0.45593999997E+02  0.45594000000E+02  0.51100000000E-03 0.  1.
         11   -1    0    0    0    0 -0.00000000000E+00 -0.00000000000E+00 -0.45593999997E+02  0.45594000000E+02  0.51100000000E-03 0. -1.
    9900012    2    1    2    0    0 -0.33682082607E+02 -0.73108659452E+01 -0.29003140289E+02  0.46142316564E+02  0.99999890840E+01 0.  0.
        -12    1    1    2    0    0  0.33682082607E+02  0.73108659452E+01  0.29003140289E+02  0.45045683436E+02  0.00000000000E+00 0.  1.
         11    1    3    3    0    0 -0.19648730718E+02 -0.75847544215E+01 -0.13497974183E+02  0.25015923444E+02  0.51100000000E-03 0. -1.
        -11    1    3    3    0    0 -0.80050820292E+01  0.63381050033E+00 -0.67487412949E+01  0.10489450099E+02  0.51100000000E-03 0.  1.
         12    1    3    3    0    0 -0.60282698593E+01 -0.35992202406E+00 -0.87564248111E+01  0.10636943021E+02  0.00000000000E+00 0. -1.
</event>
<event>
 7    1  0.1563903E-008  0.4614232E+02  0.7816164E-02  0.1320468E+00
        -11   -1    0    0    0    0  0.00000000000E+00  0.00000000000E+00  0.45593999997E+02  0.45594000000E+02  0.51100000000E-03 0.  1.
         11   -1    0    0    0    0 -0.00000000000E+00 -0.00000000000E+00 -0.45593999997E+02  0.45594000000E+02  0.51100000000E-03 0. -1.
    9900012    2    1    2    0    0 -0.18028798348E+01  0.44747823872E+02 -0.48472190461E+01  0.46142315973E+02  0.99999836984E+01 0.  0.
        -12    1    1    2    0    0  0.18028798348E+01 -0.44747823872E+02  0.48472190461E+01  0.45045684027E+02  0.00000000000E+00 0.  1.
         11    1    3    3    0    0  0.40772612841E+00  0.19408260254E+02 -0.55083977573E+01  0.20178930913E+02  0.51100000000E-03 0. -1.
        -11    1    3    3    0    0 -0.14480956959E+01  0.14549498368E+01 -0.90775152701E-01  0.20547750635E+01  0.51100000000E-03 0.  1.
        -12    1    3    3    0    0 -0.76251026725E+00  0.23884613781E+02  0.75195386393E+00  0.23908609997E+02  0.00000000000E+00 0.  1.
</event>
<event>
 7    1  0.1563903E-008  0.4614232E+02  0.7816164E-02  0.1320468E+00
        -11   -1    0    0    0    0  0.00000000000E+00  0.00000000000E+00  0.45593999997E+02  0.45594000000E+02  0.51100000000E-03 0.  1.
         11   -1    0    0    0    0 -0.00000000000E+00 -0.00000000000E+00 -0.45593999997E+02  0.45594000000E+02  0.51100000000E-03 0. -1.
    9900012    2    1    2    0    0 -0.58863165103E+00 -0.19254087245E+02 -0.40719124953E+02  0.46142317634E+02  0.99999988436E+01 0.  0.
        -12    1    1    2    0    0  0.58863165103E+00  0.19254087245E+02  0.40719124953E+02  0.45045682366E+02  0.00000000000E+00 0.  1.
         11    1    3    3    0    0 -0.25639370360E+01 -0.10105668760E+01 -0.52423224930E+01  0.59225808493E+01  0.51100000000E-03 0. -1.
        -11    1    3    3    0    0  0.24045137619E+01 -0.89463435717E+01 -0.13707168898E+02  0.16544039083E+02  0.51100000000E-03 0.  1.
         12    1    3    3    0    0 -0.42920837695E+00 -0.92971767976E+01 -0.21769633562E+02  0.23675697702E+02  0.00000000000E+00 0. -1.
</event>
<event>
 7    1  0.1563903E-008  0.4614232E+02  0.7816164E-02  0.1320468E+00
        -11   -1    0    0    0    0  0.00000000000E+00  0.00000000000E+00  0.45593999997E+02  0.45594000000E+02  0.51100000000E-03 0. -1.
         11   -1    0    0    0    0 -0.00000000000E+00 -0.00000000000E+00 -0.45593999997E+02  0.45594000000E+02  0.51100000000E-03 0.  1.
    9900012    2    1    2    0    0  0.20145807147E+02  0.16385561411E+02  0.36807245640E+02  0.46142317632E+02  0.99999988238E+01 0.  0.
        -12    1    1    2    0    0 -0.20145807147E+02 -0.16385561411E+02 -0.36807245640E+02  0.45045682368E+02  0.00000000000E+00 0.  1.
         11    1    3    3    0    0  0.74427362584E+01  0.34434572778E+01  0.12557036766E+02  0.14997696278E+02  0.51100000000E-03 0. -1.
        -11    1    3    3    0    0  0.10135446446E+02  0.13531719052E+02  0.21113108423E+02  0.27048069112E+02  0.51100000000E-03 0.  1.
        -12    1    3    3    0    0  0.25676244431E+01 -0.58961491850E+00  0.31371004518E+01  0.40965522427E+01  0.00000000000E+00 0.  1.
</event>
<event>
 7    1  0.1563903E-008  0.4614232E+02  0.7816164E-02  0.1320468E+00
        -11   -1    0    0    0    0  0.00000000000E+00  0.00000000000E+00  0.45593999997E+02  0.45594000000E+02  0.51100000000E-03 0.  1.
         11   -1    0    0    0    0 -0.00000000000E+00 -0.00000000000E+00 -0.45593999997E+02  0.45594000000E+02  0.51100000000E-03 0. -1.
    9900012    2    1    2    0    0 -0.34318342717E+02  0.24292892323E+02 -0.16162314051E+02  0.46142315859E+02  0.99999826594E+01 0.  0.
        -12    1    1    2    0    0  0.34318342717E+02 -0.24292892323E+02  0.16162314051E+02  0.45045684141E+02  0.00000000000E+00 0.  1.
         11    1    3    3    0    0 -0.19522013782E+02  0.10551667447E+02 -0.11585079916E+02  0.25033193662E+02  0.51100000000E-03 0. -1.
        -11    1    3    3    0    0 -0.43172418959E+01  0.21095402125E+01 -0.26156517669E-01  0.48051453589E+01  0.51100000000E-03 0.  1.
         12    1    3    3    0    0 -0.10479087039E+02  0.11631684663E+02 -0.45510776176E+01  0.16303976838E+02  0.00000000000E+00 0. -1.
</event>
<event>
 7    1  0.1563903E-008  0.4614232E+02  0.7816164E-02  0.1320468E+00
        -11   -1    0    0    0    0  0.00000000000E+00  0.00000000000E+00  0.45593999997E+02  0.45594000000E+02  0.51100000000E-03 0. -1.
         11   -1    0    0    0    0 -0.00000000000E+00 -0.00000000000E+00 -0.45593999997E+02  0.45594000000E+02  0.51100000000E-03 0.  1.
    9900012    2    1    2    0    0 -0.45427037573E+01 -0.19421815898E+02  0.40388987282E+02  0.46142318921E+02  0.10000010573E+02 0.  0.
        -12    1    1    2    0    0  0.45427037573E+01  0.19421815898E+02 -0.40388987282E+02  0.45045681079E+02  0.00000000000E+00 0.  1.
         11    1    3    3    0    0 -0.10263870541E-01 -0.95631051703E+01  0.15576957993E+02  0.18278257751E+02  0.51100000000E-03 0. -1.
        -11    1    3    3    0    0  0.15929471532E+01 -0.11620847259E+01  0.50449010826E+01  0.54165439847E+01  0.51100000000E-03 0.  1.
         12    1    3    3    0    0 -0.61253870400E+01 -0.86966260021E+01  0.19767128207E+02  0.22447517185E+02  0.00000000000E+00 0. -1.
</event>
<event>
 7    1  0.1563903E-008  0.4614232E+02  0.7816164E-02  0.1320468E+00
        -11   -1    0    0    0    0  0.00000000000E+00  0.00000000000E+00  0.45593999997E+02  0.45594000000E+02  0.51100000000E-03 0.  1.
         11   -1    0    0    0    0 -0.00000000000E+00 -0.00000000000E+00 -0.45593999997E+02  0.45594000000E+02  0.51100000000E-03 0. -1.
    9900012    2    1    2    0    0  0.16684556235E+01 -0.25052648143E+02 -0.37399125845E+02  0.46142317220E+02  0.99999950673E+01 0.  0.
        -12    1    1    2    0    0 -0.16684556235E+01  0.25052648143E+02  0.37399125845E+02  0.45045682780E+02  0.00000000000E+00 0.  1.
         11    1    3    3    0    0 -0.82566795630E+00 -0.13335933310E+01 -0.49317113118E+01  0.51751304786E+01  0.51100000000E-03 0. -1.
        -11    1    3    3    0    0  0.19072642992E+01 -0.52652881251E+01 -0.34611934432E+01  0.65833712078E+01  0.51100000000E-03 0.  1.
         12    1    3    3    0    0  0.58685928061E+00 -0.18453766687E+02 -0.29006221090E+02  0.34383815534E+02  0.00000000000E+00 0. -1.
</event>
<event>
 7    1  0.1563903E-008  0.4614232E+02  0.7816164E-02  0.1320468E+00
        -11   -1    0    0    0    0  0.00000000000E+00  0.00000000000E+00  0.45593999997E+02  0.45594000000E+02  0.51100000000E-03 0.  1.
         11   -1    0    0    0    0 -0.00000000000E+00 -0.00000000000E+00 -0.45593999997E+02  0.45594000000E+02  0.51100000000E-03 0. -1.
    9900012    2    1    2    0    0 -0.26217385594E+01  0.44968943047E+02  0.18436992027E+00  0.46142319363E+02  0.10000014605E+02 0.  0.
        -12    1    1    2    0    0  0.26217385594E+01 -0.44968943047E+02 -0.18436992027E+00  0.45045680637E+02  0.00000000000E+00 0.  1.
         11    1    3    3    0    0 -0.37013760592E+01  0.28608452794E+02  0.36908102423E+01  0.29082053513E+02  0.51100000000E-03 0. -1.
        -11    1    3    3    0    0 -0.25675876428E+00  0.26613037459E+01 -0.17235702121E+01  0.31810622798E+01  0.51100000000E-03 0.  1.
         12    1    3    3    0    0  0.13363962640E+01  0.13699186507E+02 -0.17828701099E+01  0.13879203570E+02  0.00000000000E+00 0. -1.
</event>
<event>
 7    1  0.1563903E-008  0.4614232E+02  0.7816164E-02  0.1320468E+00
        -11   -1    0    0    0    0  0.00000000000E+00  0.00000000000E+00  0.45593999997E+02  0.45594000000E+02  0.51100000000E-03 0. -1.
         11   -1    0    0    0    0 -0.00000000000E+00 -0.00000000000E+00 -0.45593999997E+02  0.45594000000E+02  0.51100000000E-03 0.  1.
    9900012    2    1    2    0    0 -0.39021934434E+02 -0.14367489999E+02  0.17319854521E+02  0.46142317671E+02  0.99999991755E+01 0.  0.
        -12    1    1    2    0    0  0.39021934434E+02  0.14367489999E+02 -0.17319854521E+02  0.45045682329E+02  0.00000000000E+00 0.  1.
         11    1    3    3    0    0 -0.11147083094E+01 -0.25138667977E+01  0.23942266362E+01  0.36461517163E+01  0.51100000000E-03 0.  1.
        -11    1    3    3    0    0 -0.23210044088E+02 -0.80484147209E+01  0.10159711961E+02  0.26583883717E+02  0.51100000000E-03 0. -1.
        -12    1    3    3    0    0 -0.14697182037E+02 -0.38052084808E+01  0.47659159241E+01  0.15912282238E+02  0.00000000000E+00 0.  1.
</event>
<event>
 7    1  0.1563903E-008  0.4614232E+02  0.7816164E-02  0.1320468E+00
        -11   -1    0    0    0    0  0.00000000000E+00  0.00000000000E+00  0.45593999997E+02  0.45594000000E+02  0.51100000000E-03 0.  1.
         11   -1    0    0    0    0 -0.00000000000E+00 -0.00000000000E+00 -0.45593999997E+02  0.45594000000E+02  0.51100000000E-03 0. -1.
    9900012    2    1    2    0    0 -0.31907433628E+02 -0.74038211724E+01 -0.30922688492E+02  0.46142317052E+02  0.99999935326E+01 0.  0.
        -12    1    1    2    0    0  0.31907433628E+02  0.74038211724E+01  0.30922688492E+02  0.45045682948E+02  0.00000000000E+00 0.  1.
         11    1    3    3    0    0 -0.11571830420E+02 -0.31895473658E+01 -0.82033944932E+01  0.14538781006E+02  0.51100000000E-03 0. -1.
        -11    1    3    3    0    0 -0.17524632186E+01  0.16578921598E+01 -0.17792428349E+01  0.29975721964E+01  0.51100000000E-03 0.  1.
        -12    1    3    3    0    0 -0.18583139990E+02 -0.58721659664E+01 -0.20940051164E+02  0.28605963850E+02  0.00000000000E+00 0.  1.
</event>
<event>
 7    1  0.1563903E-008  0.4614232E+02  0.7816164E-02  0.1320468E+00
        -11   -1    0    0    0    0  0.00000000000E+00  0.00000000000E+00  0.45593999997E+02  0.45594000000E+02  0.51100000000E-03 0.  1.
         11   -1    0    0    0    0 -0.00000000000E+00 -0.00000000000E+00 -0.45593999997E+02  0.45594000000E+02  0.51100000000E-03 0. -1.
    9900012    2    1    2    0    0 -0.11454193383E+01 -0.41973711769E+02 -0.16309782656E+02  0.46142317905E+02  0.10000001312E+02 0.  0.
        -12    1    1    2    0    0  0.11454193383E+01  0.41973711769E+02  0.16309782656E+02  0.45045682095E+02  0.00000000000E+00 0.  1.
         11    1    3    3    0    0 -0.21335738124E+01 -0.96966522121E+01 -0.18909801465E+01  0.10107077100E+02  0.51100000000E-03 0. -1.
        -11    1    3    3    0    0  0.34572120528E+01 -0.24457958455E+02 -0.94468331895E+01  0.26445920376E+02  0.51100000000E-03 0.  1.
        -12    1    3    3    0    0 -0.24690575787E+01 -0.78191011023E+01 -0.49719693200E+01  0.95893204292E+01  0.00000000000E+00 0.  1.
</event>
<event>
 7    1  0.1563903E-008  0.4614232E+02  0.7816164E-02  0.1320468E+00
        -11   -1    0    0    0    0  0.00000000000E+00  0.00000000000E+00  0.45593999997E+02  0.45594000000E+02  0.51100000000E-03 0.  1.
         11   -1    0    0    0    0 -0.00000000000E+00 -0.00000000000E+00 -0.45593999997E+02  0.45594000000E+02  0.51100000000E-03 0. -1.
    9900012    2    1    2    0    0  0.36760872841E+02  0.11349085483E+02 -0.23429682169E+02  0.46142317411E+02  0.99999968091E+01 0.  0.
        -12    1    1    2    0    0 -0.36760872841E+02 -0.11349085483E+02  0.23429682169E+02  0.45045682589E+02  0.00000000000E+00 0.  1.
         11    1    3    3    0    0  0.10521779161E+02  0.23103360400E+01 -0.10401463754E+02  0.14974509602E+02  0.51100000000E-03 0. -1.
        -11    1    3    3    0    0  0.13170731076E+02  0.62249474058E+01 -0.93244554388E+01  0.17296346341E+02  0.51100000000E-03 0.  1.
        -12    1    3    3    0    0  0.13068362605E+02  0.28138020368E+01 -0.37037629762E+01  0.13871461468E+02  0.00000000000E+00 0.  1.
</event>
<event>
 7    1  0.1563903E-008  0.4614232E+02  0.7816164E-02  0.1320468E+00
        -11   -1    0    0    0    0  0.00000000000E+00  0.00000000000E+00  0.45593999997E+02  0.45594000000E+02  0.51100000000E-03 0.  1.
         11   -1    0    0    0    0 -0.00000000000E+00 -0.00000000000E+00 -0.45593999997E+02  0.45594000000E+02  0.51100000000E-03 0. -1.
    9900012    2    1    2    0    0 -0.42890613875E+02 -0.92254011276E+01 -0.10217660032E+02  0.46142319174E+02  0.10000012888E+02 0.  0.
        -12    1    1    2    0    0  0.42890613875E+02  0.92254011276E+01  0.10217660032E+02  0.45045680826E+02  0.00000000000E+00 0.  1.
         11    1    3    3    0    0 -0.20306303504E+02 -0.28479357787E+01 -0.28382587190E+01  0.20700541371E+02  0.51100000000E-03 0. -1.
        -11    1    3    3    0    0 -0.14789723796E+02 -0.49921035414E+01 -0.79253501328E+01  0.17506233253E+02  0.51100000000E-03 0.  1.
        -12    1    3    3    0    0 -0.77945865746E+01 -0.13853618075E+01  0.54594881982E+00  0.79355445509E+01  0.00000000000E+00 0.  1.
</event>
<event>
 7    1  0.1563903E-008  0.4614232E+02  0.7816164E-02  0.1320468E+00
        -11   -1    0    0    0    0  0.00000000000E+00  0.00000000000E+00  0.45593999997E+02  0.45594000000E+02  0.51100000000E-03 0.  1.
         11   -1    0    0    0    0 -0.00000000000E+00 -0.00000000000E+00 -0.45593999997E+02  0.45594000000E+02  0.51100000000E-03 0. -1.
    9900012    2    1    2    0    0 -0.25494628318E+02 -0.32681188853E+01 -0.36992657554E+02  0.46142318886E+02  0.10000010254E+02 0.  0.
        -12    1    1    2    0    0  0.25494628318E+02  0.32681188853E+01  0.36992657554E+02  0.45045681114E+02  0.00000000000E+00 0.  1.
         11    1    3    3    0    0 -0.13758131461E+02 -0.12078460085E+01 -0.26918518976E+02  0.30254780406E+02  0.51100000000E-03 0. -1.
        -11    1    3    3    0    0 -0.31995290940E+01 -0.18798526359E+01 -0.25091416352E+01  0.44795785921E+01  0.51100000000E-03 0.  1.
         12    1    3    3    0    0 -0.85369677630E+01 -0.18042024083E+00 -0.75649969433E+01  0.11407959888E+02  0.00000000000E+00 0. -1.
</event>
<event>
 7    1  0.1563903E-008  0.4614232E+02  0.7816164E-02  0.1320468E+00
        -11   -1    0    0    0    0  0.00000000000E+00  0.00000000000E+00  0.45593999997E+02  0.45594000000E+02  0.51100000000E-03 0.  1.
         11   -1    0    0    0    0 -0.00000000000E+00 -0.00000000000E+00 -0.45593999997E+02  0.45594000000E+02  0.51100000000E-03 0. -1.
    9900012    2    1    2    0    0 -0.15615559526E+02 -0.22320950020E+02 -0.35875380734E+02  0.46142318166E+02  0.10000003689E+02 0.  0.
        -12    1    1    2    0    0  0.15615559526E+02  0.22320950020E+02  0.35875380734E+02  0.45045681834E+02  0.00000000000E+00 0.  1.
         11    1    3    3    0    0 -0.51958546411E+00  0.45835802396E+00  0.22252938154E+00  0.72772296886E+00  0.51100000000E-03 0.  1.
        -11    1    3    3    0    0 -0.86083763477E+01 -0.14942425896E+02 -0.20453533896E+02  0.26753079899E+02  0.51100000000E-03 0. -1.
         12    1    3    3    0    0 -0.64875977145E+01 -0.78368821479E+01 -0.15644376220E+02  0.18661515298E+02  0.00000000000E+00 0. -1.
</event>
<event>
 7    1  0.1563903E-008  0.4614232E+02  0.7816164E-02  0.1320468E+00
        -11   -1    0    0    0    0  0.00000000000E+00  0.00000000000E+00  0.45593999997E+02  0.45594000000E+02  0.51100000000E-03 0.  1.
         11   -1    0    0    0    0 -0.00000000000E+00 -0.00000000000E+00 -0.45593999997E+02  0.45594000000E+02  0.51100000000E-03 0. -1.
    9900012    2    1    2    0    0  0.12433427594E+02 -0.22937640940E+01 -0.43234963461E+02  0.46142317177E+02  0.99999946781E+01 0.  0.
        -12    1    1    2    0    0 -0.12433427594E+02  0.22937640940E+01  0.43234963461E+02  0.45045682823E+02  0.00000000000E+00 0.  1.
         11    1    3    3    0    0  0.53880226883E+01 -0.39965565155E+00 -0.14006933532E+02  0.15012817869E+02  0.51100000000E-03 0. -1.
        -11    1    3    3    0    0  0.58727403986E+01 -0.23981132522E+01 -0.29170012390E+02  0.29851794754E+02  0.51100000000E-03 0.  1.
        -12    1    3    3    0    0  0.11726645070E+01  0.50400480979E+00 -0.58017539536E-01  0.12777045547E+01  0.00000000000E+00 0.  1.
</event>
<event>
 7    1  0.1563903E-008  0.4614232E+02  0.7816164E-02  0.1320468E+00
        -11   -1    0    0    0    0  0.00000000000E+00  0.00000000000E+00  0.45593999997E+02  0.45594000000E+02  0.51100000000E-03 0.  1.
         11   -1    0    0    0    0 -0.00000000000E+00 -0.00000000000E+00 -0.45593999997E+02  0.45594000000E+02  0.51100000000E-03 0. -1.
    9900012    2    1    2    0    0 -0.35922227262E+02 -0.56192465330E+01 -0.26591934677E+02  0.46142319487E+02  0.10000015736E+02 0.  0.
        -12    1    1    2    0    0  0.35922227262E+02  0.56192465330E+01  0.26591934677E+02  0.45045680513E+02  0.00000000000E+00 0.  1.
         11    1    3    3    0    0 -0.17918366766E+02  0.74319808805E+00 -0.15637947278E+02  0.23794234728E+02  0.51100000000E-03 0. -1.
        -11    1    3    3    0    0 -0.47360423731E+01 -0.35208738162E+01 -0.30049589861E+01  0.66224186336E+01  0.51100000000E-03 0.  1.
         12    1    3    3    0    0 -0.13267818123E+02 -0.28415708048E+01 -0.79490284130E+01  0.15725666125E+02  0.00000000000E+00 0. -1.
</event>
<event>
 7    1  0.1563903E-008  0.4614232E+02  0.7816164E-02  0.1320468E+00
        -11   -1    0    0    0    0  0.00000000000E+00  0.00000000000E+00  0.45593999997E+02  0.45594000000E+02  0.51100000000E-03 0.  1.
         11   -1    0    0    0    0 -0.00000000000E+00 -0.00000000000E+00 -0.45593999997E+02  0.45594000000E+02  0.51100000000E-03 0. -1.
    9900012    2    1    2    0    0  0.30037754821E+02 -0.20968476393E+02 -0.26213923452E+02  0.46142317635E+02  0.99999988541E+01 0.  0.
        -12    1    1    2    0    0 -0.30037754821E+02  0.20968476393E+02  0.26213923452E+02  0.45045682365E+02  0.00000000000E+00 0.  1.
         11    1    3    3    0    0  0.23108409597E+02 -0.10511130344E+02 -0.18104411447E+02  0.31180958442E+02  0.51100000000E-03 0. -1.
        -11    1    3    3    0    0  0.51954226041E+01 -0.84585693028E+01 -0.63744043485E+01  0.11797153968E+02  0.51100000000E-03 0.  1.
         12    1    3    3    0    0  0.17339226197E+01 -0.19987767462E+01 -0.17351076558E+01  0.31642052255E+01  0.00000000000E+00 0. -1.
</event>
<event>
 7    1  0.1563903E-008  0.4614232E+02  0.7816164E-02  0.1320468E+00
        -11   -1    0    0    0    0  0.00000000000E+00  0.00000000000E+00  0.45593999997E+02  0.45594000000E+02  0.51100000000E-03 0. -1.
         11   -1    0    0    0    0 -0.00000000000E+00 -0.00000000000E+00 -0.45593999997E+02  0.45594000000E+02  0.51100000000E-03 0.  1.
    9900012    2    1    2    0    0 -0.16101231071E+02  0.18750145113E+02  0.37660270882E+02  0.46142316670E+02  0.99999900482E+01 0.  0.
        -12    1    1    2    0    0  0.16101231071E+02 -0.18750145113E+02 -0.37660270882E+02  0.45045683330E+02  0.00000000000E+00 0.  1.
         11    1    3    3    0    0 -0.12112486957E+02  0.13120088509E+02  0.20809372906E+02  0.27420413268E+02  0.51100000000E-03 0. -1.
        -11    1    3    3    0    0 -0.35322571275E+01  0.36591032414E+01  0.15438235614E+02  0.16254383904E+02  0.51100000000E-03 0.  1.
        -12    1    3    3    0    0 -0.45648698667E+00  0.19709533622E+01  0.14126623620E+01  0.24675194983E+01  0.00000000000E+00 0.  1.
</event>
<event>
 7    1  0.1563903E-008  0.4614231E+02  0.7816164E-02  0.1320468E+00
        -11   -1    0    0    0    0  0.00000000000E+00  0.00000000000E+00  0.45593999997E+02  0.45594000000E+02  0.51100000000E-03 0.  1.
         11   -1    0    0    0    0 -0.00000000000E+00 -0.00000000000E+00 -0.45593999997E+02  0.45594000000E+02  0.51100000000E-03 0. -1.
    9900012    2    1    2    0    0  0.43512022723E+01  0.19361619195E+01 -0.44793214728E+02  0.46142314636E+02  0.99999715061E+01 0.  0.
        -12    1    1    2    0    0 -0.43512022723E+01 -0.19361619195E+01  0.44793214728E+02  0.45045685364E+02  0.00000000000E+00 0.  1.
         11    1    3    3    0    0  0.12283208665E+01  0.80705763051E+00 -0.23766572568E+01  0.27943897630E+01  0.51100000000E-03 0. -1.
        -11    1    3    3    0    0  0.69012619099E+00  0.27284672188E+01 -0.37701787875E+02  0.37806687460E+02  0.51100000000E-03 0.  1.
        -12    1    3    3    0    0  0.24327552148E+01 -0.15993629298E+01 -0.47147695968E+01  0.55412374130E+01  0.00000000000E+00 0.  1.
</event>
<event>
 7    1  0.1563903E-008  0.4614232E+02  0.7816164E-02  0.1320468E+00
        -11   -1    0    0    0    0  0.00000000000E+00  0.00000000000E+00  0.45593999997E+02  0.45594000000E+02  0.51100000000E-03 0.  1.
         11   -1    0    0    0    0 -0.00000000000E+00 -0.00000000000E+00 -0.45593999997E+02  0.45594000000E+02  0.51100000000E-03 0. -1.
    9900012    2    1    2    0    0 -0.14348855357E+02  0.49207312437E+00 -0.42696389747E+02  0.46142317816E+02  0.10000000496E+02 0.  0.
        -12    1    1    2    0    0  0.14348855357E+02 -0.49207312437E+00  0.42696389747E+02  0.45045682184E+02  0.00000000000E+00 0.  1.
         11    1    3    3    0    0 -0.60775206142E+01  0.18203179419E+00 -0.22374223973E+02  0.23185669950E+02  0.51100000000E-03 0. -1.
        -11    1    3    3    0    0 -0.21358955177E+01  0.89326988718E-01 -0.48626572252E+00  0.21923694003E+01  0.51100000000E-03 0.  1.
        -12    1    3    3    0    0 -0.61354392256E+01  0.22071434147E+00 -0.19835900052E+02  0.20764278465E+02  0.00000000000E+00 0.  1.
</event>
<event>
 7    1  0.1563903E-008  0.4614232E+02  0.7816164E-02  0.1320468E+00
        -11   -1    0    0    0    0  0.00000000000E+00  0.00000000000E+00  0.45593999997E+02  0.45594000000E+02  0.51100000000E-03 0.  1.
         11   -1    0    0    0    0 -0.00000000000E+00 -0.00000000000E+00 -0.45593999997E+02  0.45594000000E+02  0.51100000000E-03 0. -1.
    9900012    2    1    2    0    0 -0.11720560952E+02  0.39415173875E+01 -0.43315198604E+02  0.46142317205E+02  0.99999949331E+01 0.  0.
        -12    1    1    2    0    0  0.11720560952E+02 -0.39415173875E+01  0.43315198604E+02  0.45045682795E+02  0.00000000000E+00 0.  1.
         11    1    3    3    0    0 -0.69484694679E+01 -0.10291767269E+01 -0.26692955359E+02  0.27601708257E+02  0.51100000000E-03 0. -1.
        -11    1    3    3    0    0  0.36768316470E+00  0.13406352486E+01 -0.10408967027E+01  0.17366519473E+01  0.51100000000E-03 0.  1.
         12    1    3    3    0    0 -0.51397746493E+01  0.36300588658E+01 -0.15581346542E+02  0.16803957001E+02  0.00000000000E+00 0. -1.
</event>
<event>
 7    1  0.1563903E-008  0.4614232E+02  0.7816164E-02  0.1320468E+00
        -11   -1    0    0    0    0  0.00000000000E+00  0.00000000000E+00  0.45593999997E+02  0.45594000000E+02  0.51100000000E-03 0. -1.
         11   -1    0    0    0    0 -0.00000000000E+00 -0.00000000000E+00 -0.45593999997E+02  0.45594000000E+02  0.51100000000E-03 0.  1.
    9900012    2    1    2    0    0 -0.35595510548E+02 -0.14730764487E+02 -0.23346897894E+02  0.46142318356E+02  0.10000005421E+02 0.  0.
        -12    1    1    2    0    0  0.35595510548E+02  0.14730764487E+02  0.23346897894E+02  0.45045681644E+02  0.00000000000E+00 0.  1.
         11    1    3    3    0    0 -0.22526600540E+02 -0.88515920334E+01 -0.18004282746E+02  0.30165420780E+02  0.51100000000E-03 0. -1.
        -11    1    3    3    0    0 -0.46218930957E+01 -0.43077869662E+01 -0.11708262500E+01  0.64257107547E+01  0.51100000000E-03 0.  1.
        -12    1    3    3    0    0 -0.84470169125E+01 -0.15713854877E+01 -0.41717888981E+01  0.95511868206E+01  0.00000000000E+00 0.  1.
</event>
<event>
 7    1  0.1563903E-008  0.4614232E+02  0.7816164E-02  0.1320468E+00
        -11   -1    0    0    0    0  0.00000000000E+00  0.00000000000E+00  0.45593999997E+02  0.45594000000E+02  0.51100000000E-03 0. -1.
         11   -1    0    0    0    0 -0.00000000000E+00 -0.00000000000E+00 -0.45593999997E+02  0.45594000000E+02  0.51100000000E-03 0.  1.
    9900012    2    1    2    0    0  0.34661934215E+02  0.53063568918E+01  0.28275543679E+02  0.46142317883E+02  0.10000001115E+02 0.  0.
        -12    1    1    2    0    0 -0.34661934215E+02 -0.53063568918E+01 -0.28275543679E+02  0.45045682117E+02  0.00000000000E+00 0.  1.
         11    1    3    3    0    0  0.55328341704E+01  0.17069236776E+01  0.67578891207E+01  0.88991520960E+01  0.51100000000E-03 0. -1.
        -11    1    3    3    0    0  0.23993268141E+01 -0.98972426484E+00  0.45902526054E+01  0.52732098880E+01  0.51100000000E-03 0.  1.
        -12    1    3    3    0    0  0.26729773231E+02  0.45891574790E+01  0.16927401953E+02  0.31969955899E+02  0.00000000000E+00 0.  1.
</event>
<event>
 7    1  0.1563903E-008  0.4614232E+02  0.7816164E-02  0.1320468E+00
        -11   -1    0    0    0    0  0.00000000000E+00  0.00000000000E+00  0.45593999997E+02  0.45594000000E+02  0.51100000000E-03 0.  1.
         11   -1    0    0    0    0 -0.00000000000E+00 -0.00000000000E+00 -0.45593999997E+02  0.45594000000E+02  0.51100000000E-03 0. -1.
    9900012    2    1    2    0    0 -0.28765626003E+02 -0.12533296566E+02 -0.32319785554E+02  0.46142319847E+02  0.10000019024E+02 0.  0.
        -12    1    1    2    0    0  0.28765626003E+02  0.12533296566E+02  0.32319785554E+02  0.45045680153E+02  0.00000000000E+00 0.  1.
         11    1    3    3    0    0 -0.54188213313E+01 -0.15837365901E+01 -0.27673781167E+01  0.62873069043E+01  0.51100000000E-03 0. -1.
        -11    1    3    3    0    0 -0.78050782317E+01 -0.31578202418E+00 -0.10262601774E+02  0.12897284982E+02  0.51100000000E-03 0.  1.
         12    1    3    3    0    0 -0.15541726440E+02 -0.10633777952E+02 -0.19289805663E+02  0.26957727961E+02  0.00000000000E+00 0. -1.
</event>
<event>
 7    1  0.1563903E-008  0.4614231E+02  0.7816164E-02  0.1320468E+00
        -11   -1    0    0    0    0  0.00000000000E+00  0.00000000000E+00  0.45593999997E+02  0.45594000000E+02  0.51100000000E-03 0. -1.
         11   -1    0    0    0    0 -0.00000000000E+00 -0.00000000000E+00 -0.45593999997E+02  0.45594000000E+02  0.51100000000E-03 0.  1.
    9900012    2    1    2    0    0  0.38869525111E+02 -0.95297988876E+01  0.20675038819E+02  0.46142308981E+02  0.99999199393E+01 0.  0.
        -12    1    1    2    0    0 -0.38869525111E+02  0.95297988876E+01 -0.20675038819E+02  0.45045691019E+02  0.00000000000E+00 0.  1.
         11    1    3    3    0    0  0.23145093743E+02 -0.46195040453E+01  0.91230490973E+01  0.25303462354E+02  0.51100000000E-03 0. -1.
        -11    1    3    3    0    0  0.99125333334E+00 -0.18276412578E+01  0.42935618045E+00  0.21230173643E+01  0.51100000000E-03 0.  1.
         12    1    3    3    0    0  0.14733178034E+02 -0.30826535844E+01  0.11122633542E+02  0.18715829263E+02  0.00000000000E+00 0. -1.
</event>
<event>
 7    1  0.1563903E-008  0.4614232E+02  0.7816164E-02  0.1320468E+00
        -11   -1    0    0    0    0  0.00000000000E+00  0.00000000000E+00  0.45593999997E+02  0.45594000000E+02  0.51100000000E-03 0.  1.
         11   -1    0    0    0    0 -0.00000000000E+00 -0.00000000000E+00 -0.45593999997E+02  0.45594000000E+02  0.51100000000E-03 0. -1.
    9900012    2    1    2    0    0  0.43951523601E+02  0.72085284164E+01  0.67390009034E+01  0.46142318276E+02  0.10000004697E+02 0.  0.
        -12    1    1    2    0    0 -0.43951523601E+02 -0.72085284164E+01 -0.67390009034E+01  0.45045681724E+02  0.00000000000E+00 0.  1.
         11    1    3    3    0    0  0.29298970229E+02  0.20912589909E+01  0.62905424572E+01  0.30039539699E+02  0.51100000000E-03 0. -1.
        -11    1    3    3    0    0  0.47608069951E+01  0.37375198768E+01  0.82253842596E+00  0.61082655310E+01  0.51100000000E-03 0.  1.
         12    1    3    3    0    0  0.98917463770E+01  0.13797495487E+01 -0.37407997980E+00  0.99945130464E+01  0.00000000000E+00 0. -1.
</event>
<event>
 7    1  0.1563903E-008  0.4614232E+02  0.7816164E-02  0.1320468E+00
        -11   -1    0    0    0    0  0.00000000000E+00  0.00000000000E+00  0.45593999997E+02  0.45594000000E+02  0.51100000000E-03 0.  1.
         11   -1    0    0    0    0 -0.00000000000E+00 -0.00000000000E+00 -0.45593999997E+02  0.45594000000E+02  0.51100000000E-03 0. -1.
    9900012    2    1    2    0    0  0.15186981918E+02  0.27312690758E+02 -0.32442040977E+02  0.46142317421E+02  0.99999969024E+01 0.  0.
        -12    1    1    2    0    0 -0.15186981918E+02 -0.27312690758E+02  0.32442040977E+02  0.45045682579E+02  0.00000000000E+00 0.  1.
         11    1    3    3    0    0  0.42566921669E+01  0.57161196978E+01 -0.49268008126E+01  0.86641109821E+01  0.51100000000E-03 0. -1.
        -11    1    3    3    0    0  0.42908630599E+01  0.25351125608E+01 -0.34134557210E+01  0.60406938107E+01  0.51100000000E-03 0.  1.
         12    1    3    3    0    0  0.66394266911E+01  0.19061458500E+02 -0.24101784443E+02  0.31437512629E+02  0.00000000000E+00 0. -1.
</event>
<event>
 7    1  0.1563903E-008  0.4614232E+02  0.7816164E-02  0.1320468E+00
        -11   -1    0    0    0    0  0.00000000000E+00  0.00000000000E+00  0.45593999997E+02  0.45594000000E+02  0.51100000000E-03 0. -1.
         11   -1    0    0    0    0 -0.00000000000E+00 -0.00000000000E+00 -0.45593999997E+02  0.45594000000E+02  0.51100000000E-03 0.  1.
    9900012    2    1    2    0    0 -0.59437557691E+01  0.38363051959E+02  0.22848666463E+02  0.46142317106E+02  0.99999940247E+01 0.  0.
        -12    1    1    2    0    0  0.59437557691E+01 -0.38363051959E+02 -0.22848666463E+02  0.45045682894E+02  0.00000000000E+00 0.  1.
         11    1    3    3    0    0 -0.79846946606E+01  0.22698505155E+02  0.12545233183E+02  0.27135960660E+02  0.51100000000E-03 0. -1.
        -11    1    3    3    0    0  0.20965766588E+01  0.70893591729E+01  0.45865482451E+01  0.87000616224E+01  0.51100000000E-03 0.  1.
         12    1    3    3    0    0 -0.55637767288E-01  0.85751876317E+01  0.57168850353E+01  0.10306294823E+02  0.00000000000E+00 0. -1.
</event>
<event>
 7    1  0.1563903E-008  0.4614232E+02  0.7816164E-02  0.1320468E+00
        -11   -1    0    0    0    0  0.00000000000E+00  0.00000000000E+00  0.45593999997E+02  0.45594000000E+02  0.51100000000E-03 0.  1.
         11   -1    0    0    0    0 -0.00000000000E+00 -0.00000000000E+00 -0.45593999997E+02  0.45594000000E+02  0.51100000000E-03 0. -1.
    9900012    2    1    2    0    0 -0.98498621681E+00 -0.68973725732E+01 -0.44503590246E+02  0.46142317731E+02  0.99999997253E+01 0.  0.
        -12    1    1    2    0    0  0.98498621681E+00  0.68973725732E+01  0.44503590246E+02  0.45045682269E+02  0.00000000000E+00 0.  1.
         11    1    3    3    0    0  0.27745499212E+01 -0.77827421436E+01 -0.28558445069E+02  0.29729681928E+02  0.51100000000E-03 0. -1.
        -11    1    3    3    0    0 -0.24553444769E+01  0.74268179223E+00 -0.11147243811E+02  0.11438589842E+02  0.51100000000E-03 0.  1.
         12    1    3    3    0    0 -0.13041916611E+01  0.14268777814E+00 -0.47979013665E+01  0.49740459602E+01  0.00000000000E+00 0. -1.
</event>
<event>
 7    1  0.1563903E-008  0.4614232E+02  0.7816164E-02  0.1320468E+00
        -11   -1    0    0    0    0  0.00000000000E+00  0.00000000000E+00  0.45593999997E+02  0.45594000000E+02  0.51100000000E-03 0.  1.
         11   -1    0    0    0    0 -0.00000000000E+00 -0.00000000000E+00 -0.45593999997E+02  0.45594000000E+02  0.51100000000E-03 0. -1.
    9900012    2    1    2    0    0 -0.14697021902E+01  0.24823265333E+02 -0.37560071063E+02  0.46142318026E+02  0.10000002412E+02 0.  0.
        -12    1    1    2    0    0  0.14697021902E+01 -0.24823265333E+02  0.37560071063E+02  0.45045681974E+02  0.00000000000E+00 0.  1.
         11    1    3    3    0    0  0.24879569043E+00  0.14114814888E+02 -0.15363275504E+02  0.20864326807E+02  0.51100000000E-03 0. -1.
        -11    1    3    3    0    0 -0.72570248303E-01 -0.24760962228E+00 -0.37573027334E+01  0.37661520226E+01  0.51100000000E-03 0.  1.
         12    1    3    3    0    0 -0.16459276323E+01  0.10956060067E+02 -0.18439492825E+02  0.21511839196E+02  0.00000000000E+00 0. -1.
</event>
<event>
 7    1  0.1563903E-008  0.4614232E+02  0.7816164E-02  0.1320468E+00
        -11   -1    0    0    0    0  0.00000000000E+00  0.00000000000E+00  0.45593999997E+02  0.45594000000E+02  0.51100000000E-03 0.  1.
         11   -1    0    0    0    0 -0.00000000000E+00 -0.00000000000E+00 -0.45593999997E+02  0.45594000000E+02  0.51100000000E-03 0. -1.
    9900012    2    1    2    0    0  0.18836006266E+02  0.18703897508E+02 -0.36393441497E+02  0.46142317654E+02  0.99999990196E+01 0.  0.
        -12    1    1    2    0    0 -0.18836006266E+02 -0.18703897508E+02  0.36393441497E+02  0.45045682346E+02  0.00000000000E+00 0.  1.
         11    1    3    3    0    0  0.15823943363E+02  0.11207321235E+02 -0.23864713606E+02  0.30749403061E+02  0.51100000000E-03 0. -1.
        -11    1    3    3    0    0  0.81235230399E-01  0.28504529432E+00 -0.33271371083E+01  0.33403130963E+01  0.51100000000E-03 0.  1.
         12    1    3    3    0    0  0.29308276722E+01  0.72115309789E+01 -0.92015907824E+01  0.12052601496E+02  0.00000000000E+00 0. -1.
</event>
<event>
 7    1  0.1563903E-008  0.4614231E+02  0.7816164E-02  0.1320468E+00
        -11   -1    0    0    0    0  0.00000000000E+00  0.00000000000E+00  0.45593999997E+02  0.45594000000E+02  0.51100000000E-03 0.  1.
         11   -1    0    0    0    0 -0.00000000000E+00 -0.00000000000E+00 -0.45593999997E+02  0.45594000000E+02  0.51100000000E-03 0. -1.
    9900012    2    1    2    0    0  0.95204933355E+01  0.27252907924E+02 -0.34579663775E+02  0.46142312854E+02  0.99999552548E+01 0.  0.
        -12    1    1    2    0    0 -0.95204933355E+01 -0.27252907924E+02  0.34579663775E+02  0.45045687146E+02  0.00000000000E+00 0.  1.
         11    1    3    3    0    0 -0.17472437909E+01  0.31090470514E+01 -0.53044623492E+01  0.63918976453E+01  0.51100000000E-03 0. -1.
        -11    1    3    3    0    0  0.47410229434E+01  0.10508258160E+02 -0.15351117730E+02  0.19197854149E+02  0.51100000000E-03 0.  1.
         12    1    3    3    0    0  0.65267141830E+01  0.13635602712E+02 -0.13924083696E+02  0.20552561060E+02  0.00000000000E+00 0. -1.
</event>
<event>
 7    1  0.1563903E-008  0.4614232E+02  0.7816164E-02  0.1320468E+00
        -11   -1    0    0    0    0  0.00000000000E+00  0.00000000000E+00  0.45593999997E+02  0.45594000000E+02  0.51100000000E-03 0. -1.
         11   -1    0    0    0    0 -0.00000000000E+00 -0.00000000000E+00 -0.45593999997E+02  0.45594000000E+02  0.51100000000E-03 0.  1.
    9900012    2    1    2    0    0 -0.36876592661E+01  0.44154323878E+02  0.81185092543E+01  0.46142319402E+02  0.10000014964E+02 0.  0.
        -12    1    1    2    0    0  0.36876592661E+01 -0.44154323878E+02 -0.81185092543E+01  0.45045680598E+02  0.00000000000E+00 0.  1.
         11    1    3    3    0    0  0.28740580478E+01  0.24736370586E+02  0.46977422112E+01  0.25342001136E+02  0.51100000000E-03 0. -1.
        -11    1    3    3    0    0 -0.44694437352E+01  0.14435266022E+02  0.26344117452E+01  0.15339261975E+02  0.51100000000E-03 0.  1.
         12    1    3    3    0    0 -0.20922735787E+01  0.49826872702E+01  0.78635529787E+00  0.54610562911E+01  0.00000000000E+00 0. -1.
</event>
<event>
 7    1  0.1563903E-008  0.4614233E+02  0.7816164E-02  0.1320468E+00
        -11   -1    0    0    0    0  0.00000000000E+00  0.00000000000E+00  0.45593999997E+02  0.45594000000E+02  0.51100000000E-03 0.  1.
         11   -1    0    0    0    0 -0.00000000000E+00 -0.00000000000E+00 -0.45593999997E+02  0.45594000000E+02  0.51100000000E-03 0. -1.
    9900012    2    1    2    0    0  0.70275321452E+01 -0.60465836390E+01 -0.44081347999E+02  0.46142327365E+02  0.10000087575E+02 0.  0.
        -12    1    1    2    0    0 -0.70275321452E+01  0.60465836390E+01  0.44081347999E+02  0.45045672635E+02  0.00000000000E+00 0.  1.
         11    1    3    3    0    0  0.17063871350E+01 -0.12919309307E+01 -0.12472606017E+02  0.12654909865E+02  0.51100000000E-03 0. -1.
        -11    1    3    3    0    0  0.13761459114E+01 -0.29248221804E+01 -0.25828543238E+01  0.41375716400E+01  0.51100000000E-03 0.  1.
        -12    1    3    3    0    0  0.39449990988E+01 -0.18298305279E+01 -0.29025887658E+02  0.29349845860E+02  0.00000000000E+00 0.  1.
</event>
<event>
 7    1  0.1563903E-008  0.4614232E+02  0.7816164E-02  0.1320468E+00
        -11   -1    0    0    0    0  0.00000000000E+00  0.00000000000E+00  0.45593999997E+02  0.45594000000E+02  0.51100000000E-03 0.  1.
         11   -1    0    0    0    0 -0.00000000000E+00 -0.00000000000E+00 -0.45593999997E+02  0.45594000000E+02  0.51100000000E-03 0. -1.
    9900012    2    1    2    0    0  0.33767125561E+01 -0.32011745556E+02 -0.31511259196E+02  0.46142317662E+02  0.99999990945E+01 0.  0.
        -12    1    1    2    0    0 -0.33767125561E+01  0.32011745556E+02  0.31511259196E+02  0.45045682338E+02  0.00000000000E+00 0.  1.
         11    1    3    3    0    0 -0.15865569742E+01 -0.19920860074E+02 -0.21048320661E+02  0.29023949284E+02  0.51100000000E-03 0. -1.
        -11    1    3    3    0    0  0.53105837781E+01 -0.12081897756E+02 -0.10255103929E+02  0.16713518789E+02  0.51100000000E-03 0.  1.
         12    1    3    3    0    0 -0.34731424782E+00 -0.89877249362E-02 -0.20783460546E+00  0.40484958832E+00  0.00000000000E+00 0. -1.
</event>
<event>
 7    1  0.1563903E-008  0.4614232E+02  0.7816164E-02  0.1320468E+00
        -11   -1    0    0    0    0  0.00000000000E+00  0.00000000000E+00  0.45593999997E+02  0.45594000000E+02  0.51100000000E-03 0. -1.
         11   -1    0    0    0    0 -0.00000000000E+00 -0.00000000000E+00 -0.45593999997E+02  0.45594000000E+02  0.51100000000E-03 0.  1.
    9900012    2    1    2    0    0 -0.43230719388E+02 -0.66215698301E+01 -0.10787642807E+02  0.46142317375E+02  0.99999964782E+01 0.  0.
        -12    1    1    2    0    0  0.43230719388E+02  0.66215698301E+01  0.10787642807E+02  0.45045682625E+02  0.00000000000E+00 0.  1.
         11    1    3    3    0    0 -0.21422738908E+02 -0.51757557076E+01 -0.76807055728E+01  0.23339139398E+02  0.51100000000E-03 0. -1.
        -11    1    3    3    0    0 -0.12907153549E+02  0.15755717484E+01 -0.32479338179E+01  0.13402466691E+02  0.51100000000E-03 0.  1.
         12    1    3    3    0    0 -0.89008269316E+01 -0.30213858709E+01  0.14099658408E+00  0.94007112861E+01  0.00000000000E+00 0. -1.
</event>
<event>
 7    1  0.1563903E-008  0.4614232E+02  0.7816164E-02  0.1320468E+00
        -11   -1    0    0    0    0  0.00000000000E+00  0.00000000000E+00  0.45593999997E+02  0.45594000000E+02  0.51100000000E-03 0.  1.
         11   -1    0    0    0    0 -0.00000000000E+00 -0.00000000000E+00 -0.45593999997E+02  0.45594000000E+02  0.51100000000E-03 0. -1.
    9900012    2    1    2    0    0  0.12822177918E+02  0.21908859334E+01 -0.43126618949E+02  0.46142317746E+02  0.99999998668E+01 0.  0.
        -12    1    1    2    0    0 -0.12822177918E+02 -0.21908859334E+01  0.43126618949E+02  0.45045682254E+02  0.00000000000E+00 0.  1.
         11    1    3    3    0    0  0.11237576690E+01  0.22570804075E+01 -0.34455037448E+01  0.42695128037E+01  0.51100000000E-03 0. -1.
        -11    1    3    3    0    0  0.81004751980E+01 -0.12428199196E+00 -0.16149380313E+02  0.18067529693E+02  0.51100000000E-03 0.  1.
         12    1    3    3    0    0  0.35979450511E+01  0.58087517847E-01 -0.23531734891E+02  0.23805275250E+02  0.00000000000E+00 0. -1.
</event>
<event>
 7    1  0.1563903E-008  0.4614232E+02  0.7816164E-02  0.1320468E+00
        -11   -1    0    0    0    0  0.00000000000E+00  0.00000000000E+00  0.45593999997E+02  0.45594000000E+02  0.51100000000E-03 0. -1.
         11   -1    0    0    0    0 -0.00000000000E+00 -0.00000000000E+00 -0.45593999997E+02  0.45594000000E+02  0.51100000000E-03 0.  1.
    9900012    2    1    2    0    0 -0.23564749877E+02  0.63690664757E+01  0.37858301890E+02  0.46142318004E+02  0.10000002211E+02 0.  0.
        -12    1    1    2    0    0  0.23564749877E+02 -0.63690664757E+01 -0.37858301890E+02  0.45045681996E+02  0.00000000000E+00 0.  1.
         11    1    3    3    0    0 -0.17140550748E+02  0.35647302310E+01  0.25300724689E+02  0.30767392668E+02  0.51100000000E-03 0. -1.
        -11    1    3    3    0    0 -0.17703559903E+01 -0.73455209981E+00  0.50958323752E+00  0.19832807307E+01  0.51100000000E-03 0.  1.
        -12    1    3    3    0    0 -0.46538431392E+01  0.35388883445E+01  0.12047993963E+02  0.13391644605E+02  0.00000000000E+00 0.  1.
</event>
<event>
 7    1  0.1563903E-008  0.4614232E+02  0.7816164E-02  0.1320468E+00
        -11   -1    0    0    0    0  0.00000000000E+00  0.00000000000E+00  0.45593999997E+02  0.45594000000E+02  0.51100000000E-03 0. -1.
         11   -1    0    0    0    0 -0.00000000000E+00 -0.00000000000E+00 -0.45593999997E+02  0.45594000000E+02  0.51100000000E-03 0.  1.
    9900012    2    1    2    0    0 -0.59872704060E+01 -0.20523486984E+02  0.39649118331E+02  0.46142317529E+02  0.99999978804E+01 0.  0.
        -12    1    1    2    0    0  0.59872704060E+01  0.20523486984E+02 -0.39649118331E+02  0.45045682471E+02  0.00000000000E+00 0.  1.
         11    1    3    3    0    0 -0.22062836844E+01 -0.86252706707E+01  0.24188990681E+02  0.25775380739E+02  0.51100000000E-03 0. -1.
        -11    1    3    3    0    0 -0.32078996200E+01 -0.98500823256E+01  0.14935362039E+02  0.18176352255E+02  0.51100000000E-03 0.  1.
         12    1    3    3    0    0 -0.57308710168E+00 -0.20481339876E+01  0.52476561127E+00  0.21905845348E+01  0.00000000000E+00 0. -1.
</event>
<event>
 7    1  0.1563903E-008  0.4614232E+02  0.7816164E-02  0.1320468E+00
        -11   -1    0    0    0    0  0.00000000000E+00  0.00000000000E+00  0.45593999997E+02  0.45594000000E+02  0.51100000000E-03 0.  1.
         11   -1    0    0    0    0 -0.00000000000E+00 -0.00000000000E+00 -0.45593999997E+02  0.45594000000E+02  0.51100000000E-03 0. -1.
    9900012    2    1    2    0    0  0.21221732264E+02 -0.16673730180E+02 -0.36065749833E+02  0.46142317528E+02  0.99999978704E+01 0.  0.
        -12    1    1    2    0    0 -0.21221732264E+02  0.16673730180E+02  0.36065749833E+02  0.45045682472E+02  0.00000000000E+00 0.  1.
         11    1    3    3    0    0  0.23017861734E+01 -0.57185584340E+01 -0.10173279106E+02  0.11895198115E+02  0.51100000000E-03 0. -1.
        -11    1    3    3    0    0  0.11210903168E+02 -0.75259910364E+01 -0.12393417570E+02  0.18328166582E+02  0.51100000000E-03 0.  1.
         12    1    3    3    0    0  0.77090429230E+01 -0.34291807098E+01 -0.13499053156E+02  0.15918952831E+02  0.00000000000E+00 0. -1.
</event>
<event>
 7    1  0.1563903E-008  0.4614232E+02  0.7816164E-02  0.1320468E+00
        -11   -1    0    0    0    0  0.00000000000E+00  0.00000000000E+00  0.45593999997E+02  0.45594000000E+02  0.51100000000E-03 0.  1.
         11   -1    0    0    0    0 -0.00000000000E+00 -0.00000000000E+00 -0.45593999997E+02  0.45594000000E+02  0.51100000000E-03 0. -1.
    9900012    2    1    2    0    0  0.93685215177E+01  0.28374562775E+02 -0.33707985809E+02  0.46142319680E+02  0.10000017502E+02 0.  0.
        -12    1    1    2    0    0 -0.93685215177E+01 -0.28374562775E+02  0.33707985809E+02  0.45045680320E+02  0.00000000000E+00 0.  1.
         11    1    3    3    0    0  0.62915980645E+01  0.26692334032E+02 -0.26797958055E+02  0.38343127918E+02  0.51100000000E-03 0. -1.
        -11    1    3    3    0    0  0.17973507883E+01  0.65931171392E+00 -0.29870217998E+01  0.35478812389E+01  0.51100000000E-03 0.  1.
         12    1    3    3    0    0  0.12795726649E+01  0.10229170292E+01 -0.39230059543E+01  0.42513105239E+01  0.00000000000E+00 0. -1.
</event>
<event>
 7    1  0.1563903E-008  0.4614232E+02  0.7816164E-02  0.1320468E+00
        -11   -1    0    0    0    0  0.00000000000E+00  0.00000000000E+00  0.45593999997E+02  0.45594000000E+02  0.51100000000E-03 0.  1.
         11   -1    0    0    0    0 -0.00000000000E+00 -0.00000000000E+00 -0.45593999997E+02  0.45594000000E+02  0.51100000000E-03 0. -1.
    9900012    2    1    2    0    0 -0.38745139038E+02 -0.17110573238E+02 -0.15334782390E+02  0.46142322443E+02  0.10000042690E+02 0.  0.
        -12    1    1    2    0    0  0.38745139038E+02  0.17110573238E+02  0.15334782390E+02  0.45045677557E+02  0.00000000000E+00 0.  1.
         11    1    3    3    0    0 -0.11480736604E+02 -0.47826656758E+01 -0.20903998941E+01  0.12611541378E+02  0.51100000000E-03 0. -1.
        -11    1    3    3    0    0 -0.42744893759E+01 -0.15781284710E+01  0.64136200581E+00  0.46014230820E+01  0.51100000000E-03 0.  1.
        -12    1    3    3    0    0 -0.22989913058E+02 -0.10749779091E+02 -0.13885744502E+02  0.28929357983E+02  0.00000000000E+00 0.  1.
</event>
<event>
 7    1  0.1563903E-008  0.4614232E+02  0.7816164E-02  0.1320468E+00
        -11   -1    0    0    0    0  0.00000000000E+00  0.00000000000E+00  0.45593999997E+02  0.45594000000E+02  0.51100000000E-03 0.  1.
         11   -1    0    0    0    0 -0.00000000000E+00 -0.00000000000E+00 -0.45593999997E+02  0.45594000000E+02  0.51100000000E-03 0. -1.
    9900012    2    1    2    0    0  0.17473397713E+02  0.22459044713E+02 -0.34919695407E+02  0.46142318249E+02  0.10000004453E+02 0.  0.
        -12    1    1    2    0    0 -0.17473397713E+02 -0.22459044713E+02  0.34919695407E+02  0.45045681751E+02  0.00000000000E+00 0.  1.
         11    1    3    3    0    0  0.80043528375E+01  0.36781086173E+01 -0.12691095750E+02  0.15448691172E+02  0.51100000000E-03 0. -1.
        -11    1    3    3    0    0  0.87538237724E+01  0.17196704518E+02 -0.21229257930E+02  0.28688629619E+02  0.51100000000E-03 0.  1.
         12    1    3    3    0    0  0.71522110364E+00  0.15842315777E+01 -0.99934172700E+00  0.20049974579E+01  0.00000000000E+00 0. -1.
</event>
<event>
 7    1  0.1563903E-008  0.4614232E+02  0.7816164E-02  0.1320468E+00
        -11   -1    0    0    0    0  0.00000000000E+00  0.00000000000E+00  0.45593999997E+02  0.45594000000E+02  0.51100000000E-03 0.  1.
         11   -1    0    0    0    0 -0.00000000000E+00 -0.00000000000E+00 -0.45593999997E+02  0.45594000000E+02  0.51100000000E-03 0. -1.
    9900012    2    1    2    0    0 -0.81593329855E+01 -0.41042586472E+02  0.16674677725E+02  0.46142317673E+02  0.99999991946E+01 0.  0.
        -12    1    1    2    0    0  0.81593329855E+01  0.41042586472E+02 -0.16674677725E+02  0.45045682327E+02  0.00000000000E+00 0.  1.
         11    1    3    3    0    0 -0.39707061148E+01 -0.60994024731E+01  0.27211924393E+00  0.72830808538E+01  0.51100000000E-03 0. -1.
        -11    1    3    3    0    0 -0.32408491426E+01 -0.20858781928E+02  0.96033885449E+01  0.23190880934E+02  0.51100000000E-03 0.  1.
         12    1    3    3    0    0 -0.94777772819E+00 -0.14084402070E+02  0.67991699366E+01  0.15668355885E+02  0.00000000000E+00 0. -1.
</event>
<event>
 7    1  0.1563903E-008  0.4614232E+02  0.7816164E-02  0.1320468E+00
        -11   -1    0    0    0    0  0.00000000000E+00  0.00000000000E+00  0.45593999997E+02  0.45594000000E+02  0.51100000000E-03 0.  1.
         11   -1    0    0    0    0 -0.00000000000E+00 -0.00000000000E+00 -0.45593999997E+02  0.45594000000E+02  0.51100000000E-03 0. -1.
    9900012    2    1    2    0    0  0.23477060810E+02  0.49515775170E+01 -0.38123784716E+02  0.46142318017E+02  0.10000002337E+02 0.  0.
        -12    1    1    2    0    0 -0.23477060810E+02 -0.49515775170E+01  0.38123784716E+02  0.45045681983E+02  0.00000000000E+00 0.  1.
         11    1    3    3    0    0  0.19787964911E+02  0.45761547780E+01 -0.23857531749E+02  0.31331877845E+02  0.51100000000E-03 0. -1.
        -11    1    3    3    0    0  0.31294225811E+01  0.84602276888E+00 -0.11912805490E+02  0.12346010494E+02  0.51100000000E-03 0.  1.
         12    1    3    3    0    0  0.55967331790E+00 -0.47060002986E+00 -0.23534474773E+01  0.24644296783E+01  0.00000000000E+00 0. -1.
</event>
<event>
 7    1  0.1563903E-008  0.4614232E+02  0.7816164E-02  0.1320468E+00
        -11   -1    0    0    0    0  0.00000000000E+00  0.00000000000E+00  0.45593999997E+02  0.45594000000E+02  0.51100000000E-03 0.  1.
         11   -1    0    0    0    0 -0.00000000000E+00 -0.00000000000E+00 -0.45593999997E+02  0.45594000000E+02  0.51100000000E-03 0. -1.
    9900012    2    1    2    0    0  0.26834964545E+02 -0.34239310515E+02 -0.11690498230E+02  0.46142318126E+02  0.10000003325E+02 0.  0.
        -12    1    1    2    0    0 -0.26834964545E+02  0.34239310515E+02  0.11690498230E+02  0.45045681874E+02  0.00000000000E+00 0.  1.
         11    1    3    3    0    0  0.12264476042E+02 -0.19567727129E+02 -0.43606237567E+01  0.23501667119E+02  0.51100000000E-03 0. -1.
        -11    1    3    3    0    0  0.35276962804E+01 -0.78492123402E+00 -0.59164493204E+00  0.36620740540E+01  0.51100000000E-03 0.  1.
        -12    1    3    3    0    0  0.11042792223E+02 -0.13886662152E+02 -0.67382295408E+01  0.18978576953E+02  0.00000000000E+00 0.  1.
</event>
<event>
 7    1  0.1563903E-008  0.4614232E+02  0.7816164E-02  0.1320468E+00
        -11   -1    0    0    0    0  0.00000000000E+00  0.00000000000E+00  0.45593999997E+02  0.45594000000E+02  0.51100000000E-03 0.  1.
         11   -1    0    0    0    0 -0.00000000000E+00 -0.00000000000E+00 -0.45593999997E+02  0.45594000000E+02  0.51100000000E-03 0. -1.
    9900012    2    1    2    0    0  0.22049475958E+02 -0.34164215289E+02 -0.19384026029E+02  0.46142318060E+02  0.10000002729E+02 0.  0.
        -12    1    1    2    0    0 -0.22049475958E+02  0.34164215289E+02  0.19384026029E+02  0.45045681940E+02  0.00000000000E+00 0.  1.
         11    1    3    3    0    0  0.43814814699E+01 -0.11838702934E+02 -0.26388412826E+01  0.12896346405E+02  0.51100000000E-03 0. -1.
        -11    1    3    3    0    0  0.17775431147E+02 -0.21970554406E+02 -0.16164784625E+02  0.32557203129E+02  0.51100000000E-03 0.  1.
         12    1    3    3    0    0 -0.10743665876E+00 -0.35495794895E+00 -0.58040012205E+00  0.68876852632E+00  0.00000000000E+00 0. -1.
</event>
<event>
 7    1  0.1563903E-008  0.4614232E+02  0.7816164E-02  0.1320468E+00
        -11   -1    0    0    0    0  0.00000000000E+00  0.00000000000E+00  0.45593999997E+02  0.45594000000E+02  0.51100000000E-03 0.  1.
         11   -1    0    0    0    0 -0.00000000000E+00 -0.00000000000E+00 -0.45593999997E+02  0.45594000000E+02  0.51100000000E-03 0. -1.
    9900012    2    1    2    0    0  0.95642546652E+01  0.19034092626E+00 -0.44018203904E+02  0.46142317943E+02  0.10000001663E+02 0.  0.
        -12    1    1    2    0    0 -0.95642546652E+01 -0.19034092626E+00  0.44018203904E+02  0.45045682057E+02  0.00000000000E+00 0.  1.
         11    1    3    3    0    0 -0.76281905666E+00 -0.19886123207E+01 -0.63811496300E+01  0.67272239993E+01  0.51100000000E-03 0. -1.
        -11    1    3    3    0    0  0.32864786311E+01  0.26963816616E+00 -0.20883587852E+02  0.21142324573E+02  0.51100000000E-03 0.  1.
         12    1    3    3    0    0  0.70405950908E+01  0.19093150809E+01 -0.16753466423E+02  0.18272769371E+02  0.00000000000E+00 0. -1.
</event>
<event>
 7    1  0.1563903E-008  0.4614232E+02  0.7816164E-02  0.1320468E+00
        -11   -1    0    0    0    0  0.00000000000E+00  0.00000000000E+00  0.45593999997E+02  0.45594000000E+02  0.51100000000E-03 0. -1.
         11   -1    0    0    0    0 -0.00000000000E+00 -0.00000000000E+00 -0.45593999997E+02  0.45594000000E+02  0.51100000000E-03 0.  1.
    9900012    2    1    2    0    0 -0.51175420468E+01 -0.36145516845E+01  0.44607835628E+02  0.46142320741E+02  0.10000027174E+02 0.  0.
        -12    1    1    2    0    0  0.51175420468E+01  0.36145516845E+01 -0.44607835628E+02  0.45045679259E+02  0.00000000000E+00 0.  1.
         11    1    3    3    0    0 -0.19288150113E+01  0.11840019258E+01  0.33264722102E+02  0.33341624506E+02  0.51100000000E-03 0. -1.
        -11    1    3    3    0    0 -0.14024103555E+01 -0.29759859539E+01  0.52618972137E+01  0.62057078365E+01  0.51100000000E-03 0.  1.
         12    1    3    3    0    0 -0.17863166800E+01 -0.18225676564E+01  0.60812163126E+01  0.65949883991E+01  0.00000000000E+00 0. -1.
</event>
<event>
 7    1  0.1563903E-008  0.4614232E+02  0.7816164E-02  0.1320468E+00
        -11   -1    0    0    0    0  0.00000000000E+00  0.00000000000E+00  0.45593999997E+02  0.45594000000E+02  0.51100000000E-03 0. -1.
         11   -1    0    0    0    0 -0.00000000000E+00 -0.00000000000E+00 -0.45593999997E+02  0.45594000000E+02  0.51100000000E-03 0.  1.
    9900012    2    1    2    0    0  0.30921440634E+01 -0.42920147572E+02  0.13319649650E+02  0.46142317751E+02  0.99999999063E+01 0.  0.
        -12    1    1    2    0    0 -0.30921440634E+01  0.42920147572E+02 -0.13319649650E+02  0.45045682249E+02  0.00000000000E+00 0.  1.
         11    1    3    3    0    0  0.30915419287E+01 -0.35416222472E+02  0.13678842933E+02  0.38091694501E+02  0.51100000000E-03 0. -1.
        -11    1    3    3    0    0 -0.13495570340E+01 -0.50236306548E+01 -0.48168104780E+00  0.52240009607E+01  0.51100000000E-03 0.  1.
        -12    1    3    3    0    0  0.13501591686E+01 -0.24802944448E+01  0.12248776438E+00  0.28266222892E+01  0.00000000000E+00 0.  1.
</event>
<event>
 7    1  0.1563903E-008  0.4614232E+02  0.7816164E-02  0.1320468E+00
        -11   -1    0    0    0    0  0.00000000000E+00  0.00000000000E+00  0.45593999997E+02  0.45594000000E+02  0.51100000000E-03 0. -1.
         11   -1    0    0    0    0 -0.00000000000E+00 -0.00000000000E+00 -0.45593999997E+02  0.45594000000E+02  0.51100000000E-03 0.  1.
    9900012    2    1    2    0    0  0.14640425380E+02 -0.42029697365E+02  0.69480848496E+01  0.46142318753E+02  0.10000009043E+02 0.  0.
        -12    1    1    2    0    0 -0.14640425380E+02  0.42029697365E+02 -0.69480848496E+01  0.45045681247E+02  0.00000000000E+00 0.  1.
         11    1    3    3    0    0  0.77352347008E+01 -0.18946280882E+02  0.23430420046E+01  0.20598185872E+02  0.51100000000E-03 0. -1.
        -11    1    3    3    0    0 -0.15912575073E+00 -0.24632295098E+01 -0.15254636544E+01  0.29016995442E+01  0.51100000000E-03 0.  1.
        -12    1    3    3    0    0  0.70643164300E+01 -0.20620186974E+02  0.61305064994E+01  0.22642433336E+02  0.00000000000E+00 0.  1.
</event>
<event>
 7    1  0.1563903E-008  0.4614232E+02  0.7816164E-02  0.1320468E+00
        -11   -1    0    0    0    0  0.00000000000E+00  0.00000000000E+00  0.45593999997E+02  0.45594000000E+02  0.51100000000E-03 0. -1.
         11   -1    0    0    0    0 -0.00000000000E+00 -0.00000000000E+00 -0.45593999997E+02  0.45594000000E+02  0.51100000000E-03 0.  1.
    9900012    2    1    2    0    0  0.40264232527E+01 -0.29678183470E+02  0.33646794936E+02  0.46142317990E+02  0.10000002084E+02 0.  0.
        -12    1    1    2    0    0 -0.40264232527E+01  0.29678183470E+02 -0.33646794936E+02  0.45045682010E+02  0.00000000000E+00 0.  1.
         11    1    3    3    0    0  0.23163976983E+01 -0.55893019237E+01  0.56965498609E+01  0.83100345889E+01  0.51100000000E-03 0. -1.
        -11    1    3    3    0    0  0.32215815724E+01 -0.21586861679E+02  0.20981644057E+02  0.30275412013E+02  0.51100000000E-03 0.  1.
        -12    1    3    3    0    0 -0.15115560180E+01 -0.25020198674E+01  0.69686010187E+01  0.75568713877E+01  0.00000000000E+00 0.  1.
</event>
<event>
 7    1  0.1563903E-008  0.4614231E+02  0.7816164E-02  0.1320468E+00
        -11   -1    0    0    0    0  0.00000000000E+00  0.00000000000E+00  0.45593999997E+02  0.45594000000E+02  0.51100000000E-03 0. -1.
         11   -1    0    0    0    0 -0.00000000000E+00 -0.00000000000E+00 -0.45593999997E+02  0.45594000000E+02  0.51100000000E-03 0.  1.
    9900012    2    1    2    0    0  0.39440212481E+02  0.66389942859E+01  0.20724563273E+02  0.46142310656E+02  0.99999352058E+01 0.  0.
        -12    1    1    2    0    0 -0.39440212481E+02 -0.66389942859E+01 -0.20724563273E+02  0.45045689344E+02  0.00000000000E+00 0.  1.
         11    1    3    3    0    0  0.32000155825E+02  0.24913313049E+01  0.15021001054E+02  0.35437934159E+02  0.51100000000E-03 0. -1.
        -11    1    3    3    0    0  0.60345502425E+01  0.26484007001E+01  0.28311740237E+01  0.71725427507E+01  0.51100000000E-03 0.  1.
         12    1    3    3    0    0  0.14055064127E+01  0.14992622810E+01  0.28723881955E+01  0.35318337460E+01  0.00000000000E+00 0. -1.
</event>
<event>
 7    1  0.1563903E-008  0.4614232E+02  0.7816164E-02  0.1320468E+00
        -11   -1    0    0    0    0  0.00000000000E+00  0.00000000000E+00  0.45593999997E+02  0.45594000000E+02  0.51100000000E-03 0.  1.
         11   -1    0    0    0    0 -0.00000000000E+00 -0.00000000000E+00 -0.45593999997E+02  0.45594000000E+02  0.51100000000E-03 0. -1.
    9900012    2    1    2    0    0 -0.31556423847E+02  0.44494263932E+01 -0.31835644173E+02  0.46142317397E+02  0.99999966829E+01 0.  0.
        -12    1    1    2    0    0  0.31556423847E+02 -0.44494263932E+01  0.31835644173E+02  0.45045682603E+02  0.00000000000E+00 0.  1.
         11    1    3    3    0    0 -0.20823042385E+02  0.37206026745E+01 -0.20798043043E+02  0.29664803608E+02  0.51100000000E-03 0. -1.
        -11    1    3    3    0    0 -0.19504345251E+01 -0.21606661935E+01 -0.34714221360E+01  0.45302809122E+01  0.51100000000E-03 0.  1.
        -12    1    3    3    0    0 -0.87829469371E+01  0.28894899121E+01 -0.75661789935E+01  0.11947232877E+02  0.00000000000E+00 0.  1.
</event>
<event>
 7    1  0.1563903E-008  0.4614232E+02  0.7816164E-02  0.1320468E+00
        -11   -1    0    0    0    0  0.00000000000E+00  0.00000000000E+00  0.45593999997E+02  0.45594000000E+02  0.51100000000E-03 0.  1.
         11   -1    0    0    0    0 -0.00000000000E+00 -0.00000000000E+00 -0.45593999997E+02  0.45594000000E+02  0.51100000000E-03 0. -1.
    9900012    2    1    2    0    0  0.29339076463E+02  0.52342808217E-01 -0.34180827712E+02  0.46142321733E+02  0.10000036218E+02 0.  0.
        -12    1    1    2    0    0 -0.29339076463E+02 -0.52342808217E-01  0.34180827712E+02  0.45045678267E+02  0.00000000000E+00 0.  1.
         11    1    3    3    0    0  0.68568977743E+01 -0.92316149994E+00 -0.71923734503E+01  0.99799554283E+01  0.51100000000E-03 0. -1.
        -11    1    3    3    0    0  0.20784915334E+02  0.36594412368E+00 -0.27319005009E+02  0.34328918648E+02  0.51100000000E-03 0.  1.
        -12    1    3    3    0    0  0.16972633549E+01  0.60956018447E+00  0.33055074795E+00  0.18334476571E+01  0.00000000000E+00 0.  1.
</event>
<event>
 7    1  0.1563903E-008  0.4614232E+02  0.7816164E-02  0.1320468E+00
        -11   -1    0    0    0    0  0.00000000000E+00  0.00000000000E+00  0.45593999997E+02  0.45594000000E+02  0.51100000000E-03 0. -1.
         11   -1    0    0    0    0 -0.00000000000E+00 -0.00000000000E+00 -0.45593999997E+02  0.45594000000E+02  0.51100000000E-03 0.  1.
    9900012    2    1    2    0    0  0.36156745056E+02  0.23132275480E+02  0.13663849738E+02  0.46142321277E+02  0.10000032064E+02 0.  0.
        -12    1    1    2    0    0 -0.36156745056E+02 -0.23132275480E+02 -0.13663849738E+02  0.45045678723E+02  0.00000000000E+00 0.  1.
         11    1    3    3    0    0  0.14600182579E+02  0.11411430630E+02  0.31947993847E+01  0.18804064021E+02  0.51100000000E-03 0.  1.
        -11    1    3    3    0    0  0.25033645768E+01  0.22379577413E+00 -0.44545321743E+00  0.25525178908E+01  0.51100000000E-03 0. -1.
        -12    1    3    3    0    0  0.19053197900E+02  0.11497049076E+02  0.10914503571E+02  0.24785739365E+02  0.00000000000E+00 0.  1.
</event>
<event>
 7    1  0.1563903E-008  0.4614232E+02  0.7816164E-02  0.1320468E+00
        -11   -1    0    0    0    0  0.00000000000E+00  0.00000000000E+00  0.45593999997E+02  0.45594000000E+02  0.51100000000E-03 0.  1.
         11   -1    0    0    0    0 -0.00000000000E+00 -0.00000000000E+00 -0.45593999997E+02  0.45594000000E+02  0.51100000000E-03 0. -1.
    9900012    2    1    2    0    0 -0.62119957105E+01  0.14228912807E+02 -0.42285489846E+02  0.46142317611E+02  0.99999986272E+01 0.  0.
        -12    1    1    2    0    0  0.62119957105E+01 -0.14228912807E+02  0.42285489846E+02  0.45045682389E+02  0.00000000000E+00 0.  1.
         11    1    3    3    0    0 -0.41730858772E+01  0.44492889092E+01 -0.81836602512E+01  0.10207012928E+02  0.51100000000E-03 0. -1.
        -11    1    3    3    0    0 -0.36326180064E+01  0.75176693181E+01 -0.28325943941E+02  0.29530837542E+02  0.51100000000E-03 0.  1.
        -12    1    3    3    0    0  0.15937081731E+01  0.22619545796E+01 -0.57758856544E+01  0.64044671405E+01  0.00000000000E+00 0.  1.
</event>
<event>
 7    1  0.1563903E-008  0.4614232E+02  0.7816164E-02  0.1320468E+00
        -11   -1    0    0    0    0  0.00000000000E+00  0.00000000000E+00  0.45593999997E+02  0.45594000000E+02  0.51100000000E-03 0. -1.
         11   -1    0    0    0    0 -0.00000000000E+00 -0.00000000000E+00 -0.45593999997E+02  0.45594000000E+02  0.51100000000E-03 0.  1.
    9900012    2    1    2    0    0  0.59777640172E+01 -0.58496876555E+01  0.44262412741E+02  0.46142315523E+02  0.99999795921E+01 0.  0.
        -12    1    1    2    0    0 -0.59777640172E+01  0.58496876555E+01 -0.44262412741E+02  0.45045684477E+02  0.00000000000E+00 0.  1.
         11    1    3    3    0    0  0.41184026471E+01 -0.19312562799E+01  0.23427973871E+02  0.23865476135E+02  0.51100000000E-03 0. -1.
        -11    1    3    3    0    0  0.58413576349E+00 -0.35854912087E+01  0.40492261343E+01  0.54399627154E+01  0.51100000000E-03 0.  1.
        -12    1    3    3    0    0  0.12752256066E+01 -0.33294016690E+00  0.16785212736E+02  0.16836876673E+02  0.00000000000E+00 0.  1.
</event>
<event>
 7    1  0.1563903E-008  0.4614232E+02  0.7816164E-02  0.1320468E+00
        -11   -1    0    0    0    0  0.00000000000E+00  0.00000000000E+00  0.45593999997E+02  0.45594000000E+02  0.51100000000E-03 0.  1.
         11   -1    0    0    0    0 -0.00000000000E+00 -0.00000000000E+00 -0.45593999997E+02  0.45594000000E+02  0.51100000000E-03 0. -1.
    9900012    2    1    2    0    0 -0.34656444553E+02  0.18091389053E+02 -0.22377354958E+02  0.46142317390E+02  0.99999966143E+01 0.  0.
        -12    1    1    2    0    0  0.34656444553E+02 -0.18091389053E+02  0.22377354958E+02  0.45045682610E+02  0.00000000000E+00 0.  1.
         11    1    3    3    0    0 -0.14668629246E+02  0.85115895547E+01 -0.46207885346E+01  0.17577472163E+02  0.51100000000E-03 0. -1.
        -11    1    3    3    0    0 -0.15788908540E+02  0.61574309728E+01 -0.13062461905E+02  0.21396997461E+02  0.51100000000E-03 0.  1.
         12    1    3    3    0    0 -0.41989067664E+01  0.34223685259E+01 -0.46941045183E+01  0.71678477655E+01  0.00000000000E+00 0. -1.
</event>
<event>
 7    1  0.1563903E-008  0.4614232E+02  0.7816164E-02  0.1320468E+00
        -11   -1    0    0    0    0  0.00000000000E+00  0.00000000000E+00  0.45593999997E+02  0.45594000000E+02  0.51100000000E-03 0.  1.
         11   -1    0    0    0    0 -0.00000000000E+00 -0.00000000000E+00 -0.45593999997E+02  0.45594000000E+02  0.51100000000E-03 0. -1.
    9900012    2    1    2    0    0  0.24922881185E+02 -0.25331036117E+02 -0.27682161863E+02  0.46142317824E+02  0.10000000573E+02 0.  0.
        -12    1    1    2    0    0 -0.24922881185E+02  0.25331036117E+02  0.27682161863E+02  0.45045682176E+02  0.00000000000E+00 0.  1.
         11    1    3    3    0    0  0.27438182907E+01 -0.19127972694E+00 -0.21168460771E+01  0.34707584649E+01  0.51100000000E-03 0.  1.
        -11    1    3    3    0    0  0.17703502191E+02 -0.16254349866E+02 -0.20032374757E+02  0.31287600069E+02  0.51100000000E-03 0. -1.
        -12    1    3    3    0    0  0.44755607026E+01 -0.88854065233E+01 -0.55329410296E+01  0.11383959290E+02  0.00000000000E+00 0.  1.
</event>
<event>
 7    1  0.1563903E-008  0.4614232E+02  0.7816164E-02  0.1320468E+00
        -11   -1    0    0    0    0  0.00000000000E+00  0.00000000000E+00  0.45593999997E+02  0.45594000000E+02  0.51100000000E-03 0.  1.
         11   -1    0    0    0    0 -0.00000000000E+00 -0.00000000000E+00 -0.45593999997E+02  0.45594000000E+02  0.51100000000E-03 0. -1.
    9900012    2    1    2    0    0 -0.13787167568E+02 -0.22587655149E+02 -0.36453057471E+02  0.46142317036E+02  0.99999933883E+01 0.  0.
        -12    1    1    2    0    0  0.13787167568E+02  0.22587655149E+02  0.36453057471E+02  0.45045682964E+02  0.00000000000E+00 0.  1.
         11    1    3    3    0    0 -0.31076161824E+01 -0.72023518935E+01 -0.90087333263E+01  0.11945226140E+02  0.51100000000E-03 0. -1.
        -11    1    3    3    0    0 -0.93051953558E+00  0.70493673018E+00 -0.38346834184E+01  0.40084410411E+01  0.51100000000E-03 0.  1.
        -12    1    3    3    0    0 -0.97490318501E+01 -0.16090239986E+02 -0.23609640727E+02  0.30188649855E+02  0.00000000000E+00 0.  1.
</event>
<event>
 7    1  0.1563903E-008  0.4614232E+02  0.7816164E-02  0.1320468E+00
        -11   -1    0    0    0    0  0.00000000000E+00  0.00000000000E+00  0.45593999997E+02  0.45594000000E+02  0.51100000000E-03 0.  1.
         11   -1    0    0    0    0 -0.00000000000E+00 -0.00000000000E+00 -0.45593999997E+02  0.45594000000E+02  0.51100000000E-03 0. -1.
    9900012    2    1    2    0    0  0.37258804978E+02 -0.23546982458E+02  0.92970170569E+01  0.46142318105E+02  0.10000003132E+02 0.  0.
        -12    1    1    2    0    0 -0.37258804978E+02  0.23546982458E+02 -0.92970170569E+01  0.45045681895E+02  0.00000000000E+00 0.  1.
         11    1    3    3    0    0  0.20822408888E+02 -0.16681143540E+02  0.57431331009E+01  0.27291332686E+02  0.51100000000E-03 0. -1.
        -11    1    3    3    0    0  0.42770424496E+00 -0.90893752211E+00 -0.72896907919E+00  0.12411665963E+01  0.51100000000E-03 0.  1.
         12    1    3    3    0    0  0.16008691845E+02 -0.59569013956E+01  0.42828530352E+01  0.17609818822E+02  0.00000000000E+00 0. -1.
</event>
<event>
 7    1  0.1563903E-008  0.4614232E+02  0.7816164E-02  0.1320468E+00
        -11   -1    0    0    0    0  0.00000000000E+00  0.00000000000E+00  0.45593999997E+02  0.45594000000E+02  0.51100000000E-03 0. -1.
         11   -1    0    0    0    0 -0.00000000000E+00 -0.00000000000E+00 -0.45593999997E+02  0.45594000000E+02  0.51100000000E-03 0.  1.
    9900012    2    1    2    0    0  0.71167385552E+00 -0.42644580260E+02 -0.14492995092E+02  0.46142316389E+02  0.99999874914E+01 0.  0.
        -12    1    1    2    0    0 -0.71167385552E+00  0.42644580260E+02  0.14492995092E+02  0.45045683611E+02  0.00000000000E+00 0.  1.
         11    1    3    3    0    0  0.11461304441E+01 -0.33708028439E+02 -0.96955229357E+01  0.35093417638E+02  0.51100000000E-03 0. -1.
        -11    1    3    3    0    0 -0.10442760033E+00  0.43767837644E+00  0.10921182772E+00  0.46302804380E+00  0.51100000000E-03 0.  1.
        -12    1    3    3    0    0 -0.33002898823E+00 -0.93742301973E+01 -0.49066839840E+01  0.10585870708E+02  0.00000000000E+00 0.  1.
</event>
<event>
 7    1  0.1563903E-008  0.4614230E+02  0.7816164E-02  0.1320468E+00
        -11   -1    0    0    0    0  0.00000000000E+00  0.00000000000E+00  0.45593999997E+02  0.45594000000E+02  0.51100000000E-03 0. -1.
         11   -1    0    0    0    0 -0.00000000000E+00 -0.00000000000E+00 -0.45593999997E+02  0.45594000000E+02  0.51100000000E-03 0.  1.
    9900012    2    1    2    0    0  0.30528340387E+02 -0.18554913258E+02  0.27438122456E+02  0.46142301685E+02  0.99998534055E+01 0.  0.
        -12    1    1    2    0    0 -0.30528340387E+02  0.18554913258E+02 -0.27438122456E+02  0.45045698315E+02  0.00000000000E+00 0.  1.
         11    1    3    3    0    0  0.16128596544E+02 -0.86111093373E+01  0.12818762779E+02  0.22329431474E+02  0.51100000000E-03 0. -1.
        -11    1    3    3    0    0  0.34445059826E+01 -0.45341529202E+01  0.82776230876E+01  0.10046999971E+02  0.51100000000E-03 0.  1.
        -12    1    3    3    0    0  0.10955237860E+02 -0.54096510003E+01  0.63417365891E+01  0.13765870241E+02  0.00000000000E+00 0.  1.
</event>
<event>
 7    1  0.1563903E-008  0.4614232E+02  0.7816164E-02  0.1320468E+00
        -11   -1    0    0    0    0  0.00000000000E+00  0.00000000000E+00  0.45593999997E+02  0.45594000000E+02  0.51100000000E-03 0. -1.
         11   -1    0    0    0    0 -0.00000000000E+00 -0.00000000000E+00 -0.45593999997E+02  0.45594000000E+02  0.51100000000E-03 0.  1.
    9900012    2    1    2    0    0  0.27547877931E+02 -0.69743466035E+01  0.34951199889E+02  0.46142318046E+02  0.10000002595E+02 0.  0.
        -12    1    1    2    0    0 -0.27547877931E+02  0.69743466035E+01 -0.34951199889E+02  0.45045681954E+02  0.00000000000E+00 0.  1.
         11    1    3    3    0    0  0.13322637445E+02 -0.42930547800E+01  0.16646748199E+02  0.21749418698E+02  0.51100000000E-03 0. -1.
        -11    1    3    3    0    0  0.38231000346E+01  0.10916353049E+01  0.93436243349E+01  0.10154362485E+02  0.51100000000E-03 0.  1.
        -12    1    3    3    0    0  0.10402140452E+02 -0.37729271283E+01  0.89608273550E+01  0.14238536863E+02  0.00000000000E+00 0.  1.
</event>
<event>
 7    1  0.1563903E-008  0.4614232E+02  0.7816164E-02  0.1320468E+00
        -11   -1    0    0    0    0  0.00000000000E+00  0.00000000000E+00  0.45593999997E+02  0.45594000000E+02  0.51100000000E-03 0.  1.
         11   -1    0    0    0    0 -0.00000000000E+00 -0.00000000000E+00 -0.45593999997E+02  0.45594000000E+02  0.51100000000E-03 0. -1.
    9900012    2    1    2    0    0 -0.17312159167E+02  0.41585227672E+02 -0.26723690284E+00  0.46142318396E+02  0.10000005792E+02 0.  0.
        -12    1    1    2    0    0  0.17312159167E+02 -0.41585227672E+02  0.26723690284E+00  0.45045681604E+02  0.00000000000E+00 0.  1.
         11    1    3    3    0    0 -0.16198439642E+01  0.38282509359E+01  0.38496270627E+00  0.41746372588E+01  0.51100000000E-03 0. -1.
        -11    1    3    3    0    0 -0.38406873336E+01  0.14263049726E+02  0.38659504974E+01  0.15268629284E+02  0.51100000000E-03 0.  1.
        -12    1    3    3    0    0 -0.11851627869E+02  0.23493927010E+02 -0.45181501065E+01  0.26699051854E+02  0.00000000000E+00 0.  1.
</event>
<event>
 7    1  0.1563903E-008  0.4614232E+02  0.7816164E-02  0.1320468E+00
        -11   -1    0    0    0    0  0.00000000000E+00  0.00000000000E+00  0.45593999997E+02  0.45594000000E+02  0.51100000000E-03 0.  1.
         11   -1    0    0    0    0 -0.00000000000E+00 -0.00000000000E+00 -0.45593999997E+02  0.45594000000E+02  0.51100000000E-03 0. -1.
    9900012    2    1    2    0    0 -0.64779465798E+01  0.34736215932E+02 -0.27938235687E+02  0.46142317604E+02  0.99999985681E+01 0.  0.
        -12    1    1    2    0    0  0.64779465798E+01 -0.34736215932E+02  0.27938235687E+02  0.45045682396E+02  0.00000000000E+00 0.  1.
         11    1    3    3    0    0 -0.37602673699E+01  0.95886101545E+01 -0.11091709935E+02  0.15136283723E+02  0.51100000000E-03 0. -1.
        -11    1    3    3    0    0  0.97112085871E+00  0.17324144357E+02 -0.10542780442E+02  0.20303183817E+02  0.51100000000E-03 0.  1.
        -12    1    3    3    0    0 -0.36888000686E+01  0.78234614210E+01 -0.63037453109E+01  0.10702850064E+02  0.00000000000E+00 0.  1.
</event>
<event>
 7    1  0.1637920E-008  0.4614232E+02  0.7816164E-02  0.1320468E+00
        -11   -1    0    0    0    0  0.00000000000E+00  0.00000000000E+00  0.45593999997E+02  0.45594000000E+02  0.51100000000E-03 0. -1.
         11   -1    0    0    0    0 -0.00000000000E+00 -0.00000000000E+00 -0.45593999997E+02  0.45594000000E+02  0.51100000000E-03 0.  1.
    9900012    2    1    2    0    0 -0.32975422382E+02  0.24468842359E+02  0.18520551137E+02  0.46142317165E+02  0.99999945646E+01 0.  0.
        -12    1    1    2    0    0  0.32975422382E+02 -0.24468842359E+02 -0.18520551137E+02  0.45045682835E+02  0.00000000000E+00 0.  1.
         11    1    3    3    0    0 -0.17183961191E+02  0.12239928751E+02  0.14241804525E+02  0.25454535440E+02  0.51100000000E-03 0. -1.
        -11    1    3    3    0    0 -0.30737048131E+01  0.11405351975E+01 -0.95593058901E-02  0.32785017090E+01  0.51100000000E-03 0.  1.
         12    1    3    3    0    0 -0.12717756378E+02  0.11088378410E+02  0.42883059177E+01  0.17409280016E+02  0.00000000000E+00 0. -1.
</event>
<event>
 7    1  0.1563903E-008  0.4614232E+02  0.7816164E-02  0.1320468E+00
        -11   -1    0    0    0    0  0.00000000000E+00  0.00000000000E+00  0.45593999997E+02  0.45594000000E+02  0.51100000000E-03 0.  1.
         11   -1    0    0    0    0 -0.00000000000E+00 -0.00000000000E+00 -0.45593999997E+02  0.45594000000E+02  0.51100000000E-03 0. -1.
    9900012    2    1    2    0    0 -0.54453586319E+00  0.77264894617E+01 -0.44374749341E+02  0.46142317212E+02  0.99999949941E+01 0.  0.
        -12    1    1    2    0    0  0.54453586319E+00 -0.77264894617E+01  0.44374749341E+02  0.45045682788E+02  0.00000000000E+00 0.  1.
         11    1    3    3    0    0 -0.33939657258E+01  0.43940102600E+01 -0.18083538951E+02  0.18916678111E+02  0.51100000000E-03 0.  1.
        -11    1    3    3    0    0  0.17940479462E+01  0.25261206015E+01 -0.49273894529E+01  0.58205721719E+01  0.51100000000E-03 0. -1.
         12    1    3    3    0    0  0.10553819164E+01  0.80635860013E+00 -0.21363820937E+02  0.21405066929E+02  0.00000000000E+00 0. -1.
</event>
<event>
 7    1  0.1563903E-008  0.4614232E+02  0.7816164E-02  0.1320468E+00
        -11   -1    0    0    0    0  0.00000000000E+00  0.00000000000E+00  0.45593999997E+02  0.45594000000E+02  0.51100000000E-03 0.  1.
         11   -1    0    0    0    0 -0.00000000000E+00 -0.00000000000E+00 -0.45593999997E+02  0.45594000000E+02  0.51100000000E-03 0. -1.
    9900012    2    1    2    0    0  0.22505703535E+02 -0.29724310101E+02 -0.25279876913E+02  0.46142317861E+02  0.10000000909E+02 0.  0.
        -12    1    1    2    0    0 -0.22505703535E+02  0.29724310101E+02  0.25279876913E+02  0.45045682139E+02  0.00000000000E+00 0.  1.
         11    1    3    3    0    0  0.97979901244E+01 -0.13613806729E+02 -0.15435642450E+02  0.22794635383E+02  0.51100000000E-03 0. -1.
        -11    1    3    3    0    0  0.10353082125E+02 -0.14075842886E+02 -0.61652286539E+01  0.18529050355E+02  0.51100000000E-03 0.  1.
         12    1    3    3    0    0  0.23546312855E+01 -0.20346604856E+01 -0.36790058101E+01  0.48186321226E+01  0.00000000000E+00 0. -1.
</event>
<event>
 7    1  0.1563903E-008  0.4614232E+02  0.7816164E-02  0.1320468E+00
        -11   -1    0    0    0    0  0.00000000000E+00  0.00000000000E+00  0.45593999997E+02  0.45594000000E+02  0.51100000000E-03 0.  1.
         11   -1    0    0    0    0 -0.00000000000E+00 -0.00000000000E+00 -0.45593999997E+02  0.45594000000E+02  0.51100000000E-03 0. -1.
    9900012    2    1    2    0    0 -0.20045256057E+02  0.22415161933E+02 -0.33538958272E+02  0.46142317667E+02  0.99999991417E+01 0.  0.
        -12    1    1    2    0    0  0.20045256057E+02 -0.22415161933E+02  0.33538958272E+02  0.45045682333E+02  0.00000000000E+00 0.  1.
         11    1    3    3    0    0 -0.75859677967E+01  0.44640793036E+01 -0.12561922845E+02  0.15338735843E+02  0.51100000000E-03 0. -1.
        -11    1    3    3    0    0 -0.45433884179E+01  0.88162882610E+01 -0.12873971893E+02  0.16251414387E+02  0.51100000000E-03 0.  1.
        -12    1    3    3    0    0 -0.79158998427E+01  0.91347943684E+01 -0.81030635338E+01  0.14552167437E+02  0.00000000000E+00 0.  1.
</event>
<event>
 7    1  0.1563903E-008  0.4614232E+02  0.7816164E-02  0.1320468E+00
        -11   -1    0    0    0    0  0.00000000000E+00  0.00000000000E+00  0.45593999997E+02  0.45594000000E+02  0.51100000000E-03 0.  1.
         11   -1    0    0    0    0 -0.00000000000E+00 -0.00000000000E+00 -0.45593999997E+02  0.45594000000E+02  0.51100000000E-03 0. -1.
    9900012    2    1    2    0    0 -0.11019153275E+01  0.88081108892E+01 -0.44162387198E+02  0.46142317878E+02  0.10000001064E+02 0.  0.
        -12    1    1    2    0    0  0.11019153275E+01 -0.88081108892E+01  0.44162387198E+02  0.45045682122E+02  0.00000000000E+00 0.  1.
         11    1    3    3    0    0 -0.38141701261E+01  0.51087185620E+01 -0.33696684514E+02  0.34294510444E+02  0.51100000000E-03 0. -1.
        -11    1    3    3    0    0  0.13428545814E+01  0.33923611907E+01 -0.49073219186E+01  0.61149964472E+01  0.51100000000E-03 0.  1.
         12    1    3    3    0    0  0.13694002173E+01  0.30703113642E+00 -0.55583807655E+01  0.57328109866E+01  0.00000000000E+00 0. -1.
</event>
<event>
 7    1  0.1563903E-008  0.4614232E+02  0.7816164E-02  0.1320468E+00
        -11   -1    0    0    0    0  0.00000000000E+00  0.00000000000E+00  0.45593999997E+02  0.45594000000E+02  0.51100000000E-03 0. -1.
         11   -1    0    0    0    0 -0.00000000000E+00 -0.00000000000E+00 -0.45593999997E+02  0.45594000000E+02  0.51100000000E-03 0.  1.
    9900012    2    1    2    0    0  0.23679457812E+02 -0.38296431404E+02  0.13342208536E+01  0.46142317345E+02  0.99999962076E+01 0.  0.
        -12    1    1    2    0    0 -0.23679457812E+02  0.38296431404E+02 -0.13342208536E+01  0.45045682655E+02  0.00000000000E+00 0.  1.
         11    1    3    3    0    0  0.15053636022E+02 -0.27493973316E+02  0.22515024794E+01  0.31426100455E+02  0.51100000000E-03 0. -1.
        -11    1    3    3    0    0  0.90579767315E+01 -0.99490707968E+01 -0.15876662811E+01  0.13548122994E+02  0.51100000000E-03 0.  1.
         12    1    3    3    0    0 -0.43215494128E+00 -0.85338729151E+00  0.67038465533E+00  0.11680938955E+01  0.00000000000E+00 0. -1.
</event>
<event>
 7    1  0.1563903E-008  0.4614232E+02  0.7816164E-02  0.1320468E+00
        -11   -1    0    0    0    0  0.00000000000E+00  0.00000000000E+00  0.45593999997E+02  0.45594000000E+02  0.51100000000E-03 0.  1.
         11   -1    0    0    0    0 -0.00000000000E+00 -0.00000000000E+00 -0.45593999997E+02  0.45594000000E+02  0.51100000000E-03 0. -1.
    9900012    2    1    2    0    0  0.23511707413E+01 -0.29494905242E+02 -0.33965219211E+02  0.46142317020E+02  0.99999932386E+01 0.  0.
        -12    1    1    2    0    0 -0.23511707413E+01  0.29494905242E+02  0.33965219211E+02  0.45045682980E+02  0.00000000000E+00 0.  1.
         11    1    3    3    0    0 -0.11070076762E+01 -0.20061201179E+02 -0.27143015978E+02  0.33770113642E+02  0.51100000000E-03 0. -1.
        -11    1    3    3    0    0  0.21726769523E+01 -0.27389096721E+01 -0.20813503074E+01  0.40686816899E+01  0.51100000000E-03 0.  1.
         12    1    3    3    0    0  0.12855014651E+01 -0.66947943912E+01 -0.47408529257E+01  0.83035216878E+01  0.00000000000E+00 0. -1.
</event>
<event>
 7    1  0.1563903E-008  0.4614232E+02  0.7816164E-02  0.1320468E+00
        -11   -1    0    0    0    0  0.00000000000E+00  0.00000000000E+00  0.45593999997E+02  0.45594000000E+02  0.51100000000E-03 0.  1.
         11   -1    0    0    0    0 -0.00000000000E+00 -0.00000000000E+00 -0.45593999997E+02  0.45594000000E+02  0.51100000000E-03 0. -1.
    9900012    2    1    2    0    0 -0.39243970497E+02 -0.19875720952E+02  0.96943289758E+01  0.46142317432E+02  0.99999969958E+01 0.  0.
        -12    1    1    2    0    0  0.39243970497E+02  0.19875720952E+02 -0.96943289758E+01  0.45045682568E+02  0.00000000000E+00 0.  1.
         11    1    3    3    0    0 -0.61999988897E+01 -0.15847719486E+01  0.42941665249E+01  0.77065786680E+01  0.51100000000E-03 0. -1.
        -11    1    3    3    0    0 -0.39709702486E+01 -0.90730391437E+00 -0.30584527092E+00  0.40847700913E+01  0.51100000000E-03 0.  1.
         12    1    3    3    0    0 -0.29073001359E+02 -0.17383645089E+02  0.57060077219E+01  0.34350968672E+02  0.00000000000E+00 0. -1.
</event>
<event>
 7    1  0.1563903E-008  0.4614232E+02  0.7816164E-02  0.1320468E+00
        -11   -1    0    0    0    0  0.00000000000E+00  0.00000000000E+00  0.45593999997E+02  0.45594000000E+02  0.51100000000E-03 0.  1.
         11   -1    0    0    0    0 -0.00000000000E+00 -0.00000000000E+00 -0.45593999997E+02  0.45594000000E+02  0.51100000000E-03 0. -1.
    9900012    2    1    2    0    0  0.37652898787E+02 -0.26263537919E+01 -0.24586075270E+02  0.46142316317E+02  0.99999868332E+01 0.  0.
        -12    1    1    2    0    0 -0.37652898787E+02  0.26263537919E+01  0.24586075270E+02  0.45045683683E+02  0.00000000000E+00 0.  1.
         11    1    3    3    0    0  0.48188686408E+00 -0.14285868501E+01  0.12111309028E-01  0.15077208903E+01  0.51100000000E-03 0. -1.
        -11    1    3    3    0    0  0.21991957727E+02  0.10736314516E+00 -0.13856009495E+02  0.25993205476E+02  0.51100000000E-03 0.  1.
         12    1    3    3    0    0  0.15179054196E+02 -0.13051300870E+01 -0.10742177083E+02  0.18641389951E+02  0.00000000000E+00 0. -1.
</event>
<event>
 7    1  0.1563903E-008  0.4614232E+02  0.7816164E-02  0.1320468E+00
        -11   -1    0    0    0    0  0.00000000000E+00  0.00000000000E+00  0.45593999997E+02  0.45594000000E+02  0.51100000000E-03 0. -1.
         11   -1    0    0    0    0 -0.00000000000E+00 -0.00000000000E+00 -0.45593999997E+02  0.45594000000E+02  0.51100000000E-03 0.  1.
    9900012    2    1    2    0    0  0.25622038332E+02  0.17958542860E+02 -0.32405483579E+02  0.46142317899E+02  0.10000001256E+02 0.  0.
        -12    1    1    2    0    0 -0.25622038332E+02 -0.17958542860E+02  0.32405483579E+02  0.45045682101E+02  0.00000000000E+00 0.  1.
         11    1    3    3    0    0  0.10921417884E+02  0.53505995258E+01 -0.15656332567E+02  0.19824909422E+02  0.51100000000E-03 0. -1.
        -11    1    3    3    0    0  0.13440633920E+02  0.12306206018E+02 -0.13095135803E+02  0.22440497514E+02  0.51100000000E-03 0.  1.
         12    1    3    3    0    0  0.12599865275E+01  0.30173731620E+00 -0.36540152100E+01  0.38769109626E+01  0.00000000000E+00 0. -1.
</event>
<event>
 7    1  0.1563903E-008  0.4614232E+02  0.7816164E-02  0.1320468E+00
        -11   -1    0    0    0    0  0.00000000000E+00  0.00000000000E+00  0.45593999997E+02  0.45594000000E+02  0.51100000000E-03 0.  1.
         11   -1    0    0    0    0 -0.00000000000E+00 -0.00000000000E+00 -0.45593999997E+02  0.45594000000E+02  0.51100000000E-03 0. -1.
    9900012    2    1    2    0    0  0.17399368574E+02  0.40000696825E+02 -0.11239197518E+02  0.46142319474E+02  0.10000015615E+02 0.  0.
        -12    1    1    2    0    0 -0.17399368574E+02 -0.40000696825E+02  0.11239197518E+02  0.45045680526E+02  0.00000000000E+00 0.  1.
         11    1    3    3    0    0  0.11025933674E+02  0.17084275257E+02 -0.59499728990E+01  0.21185982446E+02  0.51100000000E-03 0. -1.
        -11    1    3    3    0    0  0.72190410644E+01  0.18492708697E+02 -0.37963815575E+01  0.20211564561E+02  0.51100000000E-03 0.  1.
         12    1    3    3    0    0 -0.84560616407E+00  0.44237128709E+01 -0.14928430612E+01  0.47447724660E+01  0.00000000000E+00 0. -1.
</event>
<event>
 7    1  0.1563903E-008  0.4614232E+02  0.7816164E-02  0.1320468E+00
        -11   -1    0    0    0    0  0.00000000000E+00  0.00000000000E+00  0.45593999997E+02  0.45594000000E+02  0.51100000000E-03 0.  1.
         11   -1    0    0    0    0 -0.00000000000E+00 -0.00000000000E+00 -0.45593999997E+02  0.45594000000E+02  0.51100000000E-03 0. -1.
    9900012    2    1    2    0    0  0.32386111902E+02  0.87678546377E+01 -0.30056246910E+02  0.46142317661E+02  0.99999990849E+01 0.  0.
        -12    1    1    2    0    0 -0.32386111902E+02 -0.87678546377E+01  0.30056246910E+02  0.45045682339E+02  0.00000000000E+00 0.  1.
         11    1    3    3    0    0  0.60717028141E+01  0.55081707993E+01 -0.62796489113E+01  0.10326640854E+02  0.51100000000E-03 0. -1.
        -11    1    3    3    0    0  0.45296293063E+01 -0.75029462386E+00 -0.33422982768E+01  0.56790352796E+01  0.51100000000E-03 0.  1.
         12    1    3    3    0    0  0.21784779781E+02  0.40099784623E+01 -0.20434299722E+02  0.30136641527E+02  0.00000000000E+00 0. -1.
</event>
<event>
 7    1  0.1563903E-008  0.4614232E+02  0.7816164E-02  0.1320468E+00
        -11   -1    0    0    0    0  0.00000000000E+00  0.00000000000E+00  0.45593999997E+02  0.45594000000E+02  0.51100000000E-03 0.  1.
         11   -1    0    0    0    0 -0.00000000000E+00 -0.00000000000E+00 -0.45593999997E+02  0.45594000000E+02  0.51100000000E-03 0. -1.
    9900012    2    1    2    0    0  0.24859459577E+02  0.31889136286E+02 -0.19854564878E+02  0.46142317743E+02  0.99999998322E+01 0.  0.
        -12    1    1    2    0    0 -0.24859459577E+02 -0.31889136286E+02  0.19854564878E+02  0.45045682257E+02  0.00000000000E+00 0.  1.
         11    1    3    3    0    0  0.20555160473E+02  0.25226474452E+02 -0.17653978178E+02  0.37020974881E+02  0.51100000000E-03 0. -1.
        -11    1    3    3    0    0  0.23269168226E+01  0.26521310557E+01  0.94699607422E+00  0.36531004450E+01  0.51100000000E-03 0.  1.
        -12    1    3    3    0    0  0.19773822814E+01  0.40105307780E+01 -0.31475827737E+01  0.54682424165E+01  0.00000000000E+00 0.  1.
</event>
<event>
 7    1  0.1563903E-008  0.4614232E+02  0.7816164E-02  0.1320468E+00
        -11   -1    0    0    0    0  0.00000000000E+00  0.00000000000E+00  0.45593999997E+02  0.45594000000E+02  0.51100000000E-03 0.  1.
         11   -1    0    0    0    0 -0.00000000000E+00 -0.00000000000E+00 -0.45593999997E+02  0.45594000000E+02  0.51100000000E-03 0. -1.
    9900012    2    1    2    0    0  0.29552320038E+02 -0.78083084467E+01 -0.33087827253E+02  0.46142316381E+02  0.99999874110E+01 0.  0.
        -12    1    1    2    0    0 -0.29552320038E+02  0.78083084467E+01  0.33087827253E+02  0.45045683619E+02  0.00000000000E+00 0.  1.
         11    1    3    3    0    0  0.20833857595E+02 -0.81427901691E+01 -0.27202638919E+02  0.35218435776E+02  0.51100000000E-03 0. -1.
        -11    1    3    3    0    0  0.34044889924E+01  0.16667635756E+00 -0.66482744948E+00  0.34727974468E+01  0.51100000000E-03 0.  1.
        -12    1    3    3    0    0  0.53139734504E+01  0.16780536480E+00 -0.52203608837E+01  0.74510831580E+01  0.00000000000E+00 0.  1.
</event>
<event>
 7    1  0.1563903E-008  0.4614232E+02  0.7816164E-02  0.1320468E+00
        -11   -1    0    0    0    0  0.00000000000E+00  0.00000000000E+00  0.45593999997E+02  0.45594000000E+02  0.51100000000E-03 0.  1.
         11   -1    0    0    0    0 -0.00000000000E+00 -0.00000000000E+00 -0.45593999997E+02  0.45594000000E+02  0.51100000000E-03 0. -1.
    9900012    2    1    2    0    0 -0.24818364428E+02 -0.11673535842E+02 -0.35733611988E+02  0.46142315660E+02  0.99999808381E+01 0.  0.
        -12    1    1    2    0    0  0.24818364428E+02  0.11673535842E+02  0.35733611988E+02  0.45045684340E+02  0.00000000000E+00 0.  1.
         11    1    3    3    0    0 -0.48913649071E+01 -0.95437662417E-01 -0.30999360881E+01  0.57917322981E+01  0.51100000000E-03 0.  1.
        -11    1    3    3    0    0 -0.68936877749E+01 -0.46006984671E+01 -0.16522156091E+02  0.18484344719E+02  0.51100000000E-03 0. -1.
         12    1    3    3    0    0 -0.13033311746E+02 -0.69773997125E+01 -0.16111519809E+02  0.21866238643E+02  0.00000000000E+00 0. -1.
</event>
<event>
 7    1  0.1563903E-008  0.4614232E+02  0.7816164E-02  0.1320468E+00
        -11   -1    0    0    0    0  0.00000000000E+00  0.00000000000E+00  0.45593999997E+02  0.45594000000E+02  0.51100000000E-03 0.  1.
         11   -1    0    0    0    0 -0.00000000000E+00 -0.00000000000E+00 -0.45593999997E+02  0.45594000000E+02  0.51100000000E-03 0. -1.
    9900012    2    1    2    0    0  0.24726462979E+02  0.22281626922E+02 -0.30352013058E+02  0.46142316894E+02  0.99999920963E+01 0.  0.
        -12    1    1    2    0    0 -0.24726462979E+02 -0.22281626922E+02  0.30352013058E+02  0.45045683106E+02  0.00000000000E+00 0.  1.
         11    1    3    3    0    0  0.20875741677E+02  0.19509325760E+02 -0.28495597857E+02  0.40353555973E+02  0.51100000000E-03 0. -1.
        -11    1    3    3    0    0  0.68509682249E+00  0.11822948084E+00 -0.14867157107E+01  0.16412372565E+01  0.51100000000E-03 0.  1.
         12    1    3    3    0    0  0.31656244800E+01  0.26540716818E+01 -0.36969949048E+00  0.41475236653E+01  0.00000000000E+00 0. -1.
</event>
<event>
 7    1  0.1563903E-008  0.4614232E+02  0.7816164E-02  0.1320468E+00
        -11   -1    0    0    0    0  0.00000000000E+00  0.00000000000E+00  0.45593999997E+02  0.45594000000E+02  0.51100000000E-03 0.  1.
         11   -1    0    0    0    0 -0.00000000000E+00 -0.00000000000E+00 -0.45593999997E+02  0.45594000000E+02  0.51100000000E-03 0. -1.
    9900012    2    1    2    0    0  0.28969243853E+02  0.28247457156E+02 -0.19798423857E+02  0.46142317494E+02  0.99999975660E+01 0.  0.
        -12    1    1    2    0    0 -0.28969243853E+02 -0.28247457156E+02  0.19798423857E+02  0.45045682506E+02  0.00000000000E+00 0.  1.
         11    1    3    3    0    0  0.12556180431E+02  0.16662908726E+02 -0.75743281220E+01  0.22196410543E+02  0.51100000000E-03 0. -1.
        -11    1    3    3    0    0  0.48961460795E+01  0.30501795065E+01 -0.12737459790E+01  0.59074758174E+01  0.51100000000E-03 0.  1.
         12    1    3    3    0    0  0.11516917342E+02  0.85343689237E+01 -0.10950349756E+02  0.18038431134E+02  0.00000000000E+00 0. -1.
</event>
<event>
 7    1  0.1563903E-008  0.4614232E+02  0.7816164E-02  0.1320468E+00
        -11   -1    0    0    0    0  0.00000000000E+00  0.00000000000E+00  0.45593999997E+02  0.45594000000E+02  0.51100000000E-03 0.  1.
         11   -1    0    0    0    0 -0.00000000000E+00 -0.00000000000E+00 -0.45593999997E+02  0.45594000000E+02  0.51100000000E-03 0. -1.
    9900012    2    1    2    0    0  0.49612276750E+01  0.10079830197E+02 -0.43622204655E+02  0.46142317678E+02  0.99999992460E+01 0.  0.
        -12    1    1    2    0    0 -0.49612276750E+01 -0.10079830197E+02  0.43622204655E+02  0.45045682322E+02  0.00000000000E+00 0.  1.
         11    1    3    3    0    0  0.91006012750E+00  0.44789301872E+01 -0.47299700783E+01  0.65773583040E+01  0.51100000000E-03 0. -1.
        -11    1    3    3    0    0  0.12269048518E+01  0.84439553203E+00 -0.13211440346E+02  0.13295129018E+02  0.51100000000E-03 0.  1.
         12    1    3    3    0    0  0.28242626957E+01  0.47565044778E+01 -0.25680794231E+02  0.26269830356E+02  0.00000000000E+00 0. -1.
</event>
<event>
 7    1  0.1563903E-008  0.4614232E+02  0.7816164E-02  0.1320468E+00
        -11   -1    0    0    0    0  0.00000000000E+00  0.00000000000E+00  0.45593999997E+02  0.45594000000E+02  0.51100000000E-03 0. -1.
         11   -1    0    0    0    0 -0.00000000000E+00 -0.00000000000E+00 -0.45593999997E+02  0.45594000000E+02  0.51100000000E-03 0.  1.
    9900012    2    1    2    0    0 -0.40892606003E+01  0.34445436909E+02  0.28738532018E+02  0.46142318757E+02  0.10000009078E+02 0.  0.
        -12    1    1    2    0    0  0.40892606003E+01 -0.34445436909E+02 -0.28738532018E+02  0.45045681243E+02  0.00000000000E+00 0.  1.
         11    1    3    3    0    0 -0.22838800925E+01  0.20014601741E+02  0.18874571292E+02  0.27605250096E+02  0.51100000000E-03 0. -1.
        -11    1    3    3    0    0 -0.38043016095E+01  0.67662862041E+01  0.45290634847E+01  0.89870882961E+01  0.51100000000E-03 0.  1.
        -12    1    3    3    0    0  0.19989211017E+01  0.76645489639E+01  0.53348972408E+01  0.95499803644E+01  0.00000000000E+00 0.  1.
</event>
<event>
 7    1  0.1563903E-008  0.4614233E+02  0.7816164E-02  0.1320468E+00
        -11   -1    0    0    0    0  0.00000000000E+00  0.00000000000E+00  0.45593999997E+02  0.45594000000E+02  0.51100000000E-03 0.  1.
         11   -1    0    0    0    0 -0.00000000000E+00 -0.00000000000E+00 -0.45593999997E+02  0.45594000000E+02  0.51100000000E-03 0. -1.
    9900012    2    1    2    0    0 -0.16229738981E+02  0.24613194229E+02 -0.34057290041E+02  0.46142325818E+02  0.10000073473E+02 0.  0.
        -12    1    1    2    0    0  0.16229738981E+02 -0.24613194229E+02  0.34057290041E+02  0.45045674182E+02  0.00000000000E+00 0.  1.
         11    1    3    3    0    0 -0.98021704549E+01  0.12750562008E+02 -0.17555474997E+02  0.23808697565E+02  0.51100000000E-03 0.  1.
        -11    1    3    3    0    0 -0.52360778323E+01  0.42431493021E+01 -0.10848192113E+02  0.12771221533E+02  0.51100000000E-03 0. -1.
         12    1    3    3    0    0 -0.11914906937E+01  0.76194829192E+01 -0.56536229309E+01  0.95624067198E+01  0.00000000000E+00 0. -1.
</event>
<event>
 7    1  0.1563903E-008  0.4614232E+02  0.7816164E-02  0.1320468E+00
        -11   -1    0    0    0    0  0.00000000000E+00  0.00000000000E+00  0.45593999997E+02  0.45594000000E+02  0.51100000000E-03 0.  1.
         11   -1    0    0    0    0 -0.00000000000E+00 -0.00000000000E+00 -0.45593999997E+02  0.45594000000E+02  0.51100000000E-03 0. -1.
    9900012    2    1    2    0    0  0.44384087381E+02  0.74042327849E+01 -0.20841255202E+01  0.46142318132E+02  0.10000003378E+02 0.  0.
        -12    1    1    2    0    0 -0.44384087381E+02 -0.74042327849E+01  0.20841255202E+01  0.45045681868E+02  0.00000000000E+00 0.  1.
         11    1    3    3    0    0  0.14544573570E+02  0.34287205250E+01 -0.46755703895E+01  0.15657640420E+02  0.51100000000E-03 0. -1.
        -11    1    3    3    0    0  0.21510933995E+02  0.26400452042E+01  0.36705213867E+01  0.21980965573E+02  0.51100000000E-03 0.  1.
        -12    1    3    3    0    0  0.83285798158E+01  0.13354670557E+01 -0.10790765174E+01  0.85037121386E+01  0.00000000000E+00 0.  1.
</event>
<event>
 7    1  0.1563903E-008  0.4614232E+02  0.7816164E-02  0.1320468E+00
        -11   -1    0    0    0    0  0.00000000000E+00  0.00000000000E+00  0.45593999997E+02  0.45594000000E+02  0.51100000000E-03 0.  1.
         11   -1    0    0    0    0 -0.00000000000E+00 -0.00000000000E+00 -0.45593999997E+02  0.45594000000E+02  0.51100000000E-03 0. -1.
    9900012    2    1    2    0    0  0.11723912208E+02  0.26821224991E+02 -0.34238650321E+02  0.46142318705E+02  0.10000008607E+02 0.  0.
        -12    1    1    2    0    0 -0.11723912208E+02 -0.26821224991E+02  0.34238650321E+02  0.45045681295E+02  0.00000000000E+00 0.  1.
         11    1    3    3    0    0 -0.54179022463E-01  0.92983539921E+00 -0.17216861608E+00  0.94719139015E+00  0.51100000000E-03 0. -1.
        -11    1    3    3    0    0  0.48725790522E+01  0.16407012064E+02 -0.14745701863E+02  0.22591321236E+02  0.51100000000E-03 0.  1.
        -12    1    3    3    0    0  0.69055121786E+01  0.94843775283E+01 -0.19320779842E+02  0.22603806079E+02  0.00000000000E+00 0.  1.
</event>
<event>
 7    1  0.1563903E-008  0.4614232E+02  0.7816164E-02  0.1320468E+00
        -11   -1    0    0    0    0  0.00000000000E+00  0.00000000000E+00  0.45593999997E+02  0.45594000000E+02  0.51100000000E-03 0. -1.
         11   -1    0    0    0    0 -0.00000000000E+00 -0.00000000000E+00 -0.45593999997E+02  0.45594000000E+02  0.51100000000E-03 0.  1.
    9900012    2    1    2    0    0  0.34791423309E+02 -0.73428671506E+01  0.27654162081E+02  0.46142317473E+02  0.99999973763E+01 0.  0.
        -12    1    1    2    0    0 -0.34791423309E+02  0.73428671506E+01 -0.27654162081E+02  0.45045682527E+02  0.00000000000E+00 0.  1.
         11    1    3    3    0    0  0.67848436595E+01 -0.13881851217E+01  0.40566174345E+01  0.80260392901E+01  0.51100000000E-03 0. -1.
        -11    1    3    3    0    0  0.27133171624E+02 -0.36524099746E+01  0.22421532262E+02  0.35387486634E+02  0.51100000000E-03 0.  1.
        -12    1    3    3    0    0  0.87340802542E+00 -0.23022720544E+01  0.11760123844E+01  0.27287915493E+01  0.00000000000E+00 0.  1.
</event>
<event>
 7    1  0.1563903E-008  0.4614232E+02  0.7816164E-02  0.1320468E+00
        -11   -1    0    0    0    0  0.00000000000E+00  0.00000000000E+00  0.45593999997E+02  0.45594000000E+02  0.51100000000E-03 0.  1.
         11   -1    0    0    0    0 -0.00000000000E+00 -0.00000000000E+00 -0.45593999997E+02  0.45594000000E+02  0.51100000000E-03 0. -1.
    9900012    2    1    2    0    0 -0.22879105671E+02 -0.36863137516E+02 -0.12114831174E+02  0.46142317430E+02  0.99999969775E+01 0.  0.
        -12    1    1    2    0    0  0.22879105671E+02  0.36863137516E+02  0.12114831174E+02  0.45045682570E+02  0.00000000000E+00 0.  1.
         11    1    3    3    0    0 -0.67901394478E+01 -0.18252891879E+02 -0.28076041648E+01  0.19676297850E+02  0.51100000000E-03 0.  1.
        -11    1    3    3    0    0 -0.66928301803E+01 -0.60142370335E+01 -0.24881286236E+01  0.93357274610E+01  0.51100000000E-03 0. -1.
        -12    1    3    3    0    0 -0.93961360429E+01 -0.12596008604E+02 -0.68190983853E+01  0.17130292119E+02  0.00000000000E+00 0.  1.
</event>
<event>
 7    1  0.1563903E-008  0.4614232E+02  0.7816164E-02  0.1320468E+00
        -11   -1    0    0    0    0  0.00000000000E+00  0.00000000000E+00  0.45593999997E+02  0.45594000000E+02  0.51100000000E-03 0.  1.
         11   -1    0    0    0    0 -0.00000000000E+00 -0.00000000000E+00 -0.45593999997E+02  0.45594000000E+02  0.51100000000E-03 0. -1.
    9900012    2    1    2    0    0  0.24193981320E+02  0.68446836535E+00 -0.37990739102E+02  0.46142317781E+02  0.10000000181E+02 0.  0.
        -12    1    1    2    0    0 -0.24193981320E+02 -0.68446836535E+00  0.37990739102E+02  0.45045682219E+02  0.00000000000E+00 0.  1.
         11    1    3    3    0    0  0.18090048103E+02 -0.22732289948E+01 -0.24968590494E+02  0.30916790292E+02  0.51100000000E-03 0. -1.
        -11    1    3    3    0    0  0.43404721519E+01  0.22126903007E+01 -0.12209833049E+02  0.13145939305E+02  0.51100000000E-03 0.  1.
         12    1    3    3    0    0  0.17634610650E+01  0.74500705939E+00 -0.81231555887E+00  0.20795881836E+01  0.00000000000E+00 0. -1.
</event>
<event>
 7    1  0.1563903E-008  0.4614232E+02  0.7816164E-02  0.1320468E+00
        -11   -1    0    0    0    0  0.00000000000E+00  0.00000000000E+00  0.45593999997E+02  0.45594000000E+02  0.51100000000E-03 0. -1.
         11   -1    0    0    0    0 -0.00000000000E+00 -0.00000000000E+00 -0.45593999997E+02  0.45594000000E+02  0.51100000000E-03 0.  1.
    9900012    2    1    2    0    0 -0.28751054077E+02  0.94164031487E+01  0.33373968232E+02  0.46142317473E+02  0.99999973692E+01 0.  0.
        -12    1    1    2    0    0  0.28751054077E+02 -0.94164031487E+01 -0.33373968232E+02  0.45045682527E+02  0.00000000000E+00 0.  1.
         11    1    3    3    0    0 -0.14248929742E+02  0.50468021793E+01  0.16267596036E+02  0.22206685752E+02  0.51100000000E-03 0. -1.
        -11    1    3    3    0    0 -0.58797291370E+01  0.10667664126E+01  0.11948128507E+02  0.13359153431E+02  0.51100000000E-03 0.  1.
        -12    1    3    3    0    0 -0.86223951985E+01  0.33028345568E+01  0.51582436888E+01  0.10576478290E+02  0.00000000000E+00 0.  1.
</event>
<event>
 7    1  0.1563903E-008  0.4614232E+02  0.7816164E-02  0.1320468E+00
        -11   -1    0    0    0    0  0.00000000000E+00  0.00000000000E+00  0.45593999997E+02  0.45594000000E+02  0.51100000000E-03 0.  1.
         11   -1    0    0    0    0 -0.00000000000E+00 -0.00000000000E+00 -0.45593999997E+02  0.45594000000E+02  0.51100000000E-03 0. -1.
    9900012    2    1    2    0    0 -0.19475459182E+02  0.27979821421E+02 -0.29444006626E+02  0.46142318262E+02  0.10000004566E+02 0.  0.
        -12    1    1    2    0    0  0.19475459182E+02 -0.27979821421E+02  0.29444006626E+02  0.45045681738E+02  0.00000000000E+00 0.  1.
         11    1    3    3    0    0 -0.13127747425E+02  0.18880763561E+02 -0.21174471090E+02  0.31259865824E+02  0.51100000000E-03 0. -1.
        -11    1    3    3    0    0 -0.39887667694E+01  0.17783560918E+01 -0.14456430273E+01  0.46002928987E+01  0.51100000000E-03 0.  1.
        -12    1    3    3    0    0 -0.23589449868E+01  0.73207017678E+01 -0.68238925081E+01  0.10282159539E+02  0.00000000000E+00 0.  1.
</event>
<event>
 7    1  0.1563903E-008  0.4614232E+02  0.7816164E-02  0.1320468E+00
        -11   -1    0    0    0    0  0.00000000000E+00  0.00000000000E+00  0.45593999997E+02  0.45594000000E+02  0.51100000000E-03 0.  1.
         11   -1    0    0    0    0 -0.00000000000E+00 -0.00000000000E+00 -0.45593999997E+02  0.45594000000E+02  0.51100000000E-03 0. -1.
    9900012    2    1    2    0    0 -0.23891752428E+02 -0.37803592629E+02 -0.54024127423E+01  0.46142317486E+02  0.99999974930E+01 0.  0.
        -12    1    1    2    0    0  0.23891752428E+02  0.37803592629E+02  0.54024127423E+01  0.45045682514E+02  0.00000000000E+00 0.  1.
         11    1    3    3    0    0 -0.22481160393E+02 -0.32288738352E+02 -0.51014571548E+01  0.39673543607E+02  0.51100000000E-03 0. -1.
        -11    1    3    3    0    0  0.77752222811E+00 -0.10567763640E+01  0.56367441054E+00  0.14279517502E+01  0.51100000000E-03 0.  1.
        -12    1    3    3    0    0 -0.21881142634E+01 -0.44580779127E+01 -0.86462999809E+00  0.50408221293E+01  0.00000000000E+00 0.  1.
</event>
<event>
 7    1  0.1563903E-008  0.4614232E+02  0.7816164E-02  0.1320468E+00
        -11   -1    0    0    0    0  0.00000000000E+00  0.00000000000E+00  0.45593999997E+02  0.45594000000E+02  0.51100000000E-03 0.  1.
         11   -1    0    0    0    0 -0.00000000000E+00 -0.00000000000E+00 -0.45593999997E+02  0.45594000000E+02  0.51100000000E-03 0. -1.
    9900012    2    1    2    0    0 -0.60306786699E+01 -0.20740003658E+02 -0.39529691200E+02  0.46142319593E+02  0.10000016702E+02 0.  0.
        -12    1    1    2    0    0  0.60306786699E+01  0.20740003658E+02  0.39529691200E+02  0.45045680407E+02  0.00000000000E+00 0.  1.
         11    1    3    3    0    0 -0.50938653408E+01 -0.99479617880E+01 -0.16334633722E+02  0.19792161755E+02  0.51100000000E-03 0. -1.
        -11    1    3    3    0    0  0.14443225607E+01 -0.23529956844E+00 -0.14451019306E+01  0.20566364281E+01  0.51100000000E-03 0.  1.
        -12    1    3    3    0    0 -0.23811358899E+01 -0.10556742301E+02 -0.21749955548E+02  0.24293521410E+02  0.00000000000E+00 0.  1.
</event>
<event>
 7    1  0.1563903E-008  0.4614232E+02  0.7816164E-02  0.1320468E+00
        -11   -1    0    0    0    0  0.00000000000E+00  0.00000000000E+00  0.45593999997E+02  0.45594000000E+02  0.51100000000E-03 0.  1.
         11   -1    0    0    0    0 -0.00000000000E+00 -0.00000000000E+00 -0.45593999997E+02  0.45594000000E+02  0.51100000000E-03 0. -1.
    9900012    2    1    2    0    0 -0.40355887660E+02 -0.83670845647E+01 -0.18179874242E+02  0.46142316518E+02  0.99999886606E+01 0.  0.
        -12    1    1    2    0    0  0.40355887660E+02  0.83670845647E+01  0.18179874242E+02  0.45045683482E+02  0.00000000000E+00 0.  1.
         11    1    3    3    0    0 -0.11305860826E+02 -0.32180406865E+01 -0.49438327858E+01  0.12752245204E+02  0.51100000000E-03 0. -1.
        -11    1    3    3    0    0 -0.20951937154E+01 -0.10051110820E+01  0.11101056293E+01  0.25753484738E+01  0.51100000000E-03 0.  1.
        -12    1    3    3    0    0 -0.26954833119E+02 -0.41439327962E+01 -0.14346147085E+02  0.30814722839E+02  0.00000000000E+00 0.  1.
</event>
<event>
 7    1  0.1563903E-008  0.4614232E+02  0.7816164E-02  0.1320468E+00
        -11   -1    0    0    0    0  0.00000000000E+00  0.00000000000E+00  0.45593999997E+02  0.45594000000E+02  0.51100000000E-03 0.  1.
         11   -1    0    0    0    0 -0.00000000000E+00 -0.00000000000E+00 -0.45593999997E+02  0.45594000000E+02  0.51100000000E-03 0. -1.
    9900012    2    1    2    0    0  0.22184792973E+02  0.47513128561E+01 -0.38914953474E+02  0.46142316333E+02  0.99999869788E+01 0.  0.
        -12    1    1    2    0    0 -0.22184792973E+02 -0.47513128561E+01  0.38914953474E+02  0.45045683667E+02  0.00000000000E+00 0.  1.
         11    1    3    3    0    0  0.37896805860E+01  0.20651867875E+01 -0.85956583246E+01  0.96183167813E+01  0.51100000000E-03 0. -1.
        -11    1    3    3    0    0  0.78450335772E+01 -0.11709671846E+01 -0.18942217203E+02  0.20535902921E+02  0.51100000000E-03 0.  1.
        -12    1    3    3    0    0  0.10550078810E+02  0.38570932532E+01 -0.11377077947E+02  0.15988096631E+02  0.00000000000E+00 0.  1.
</event>
<event>
 7    1  0.2022685E-008  0.4614232E+02  0.7816164E-02  0.1320468E+00
        -11   -1    0    0    0    0  0.00000000000E+00  0.00000000000E+00  0.45593999997E+02  0.45594000000E+02  0.51100000000E-03 0.  1.
         11   -1    0    0    0    0 -0.00000000000E+00 -0.00000000000E+00 -0.45593999997E+02  0.45594000000E+02  0.51100000000E-03 0. -1.
    9900012    2    1    2    0    0 -0.20376260148E+02  0.38268477527E+02  0.12224753414E+02  0.46142323783E+02  0.10000054914E+02 0.  0.
        -12    1    1    2    0    0  0.20376260148E+02 -0.38268477527E+02 -0.12224753414E+02  0.45045676217E+02  0.00000000000E+00 0.  1.
         11    1    3    3    0    0 -0.96262179377E+01  0.11481347199E+02  0.25864452708E+01  0.15204443583E+02  0.51100000000E-03 0. -1.
        -11    1    3    3    0    0  0.26669227239E+00  0.63442045712E+00 -0.44705706133E+00  0.82065483717E+00  0.51100000000E-03 0.  1.
         12    1    3    3    0    0 -0.11016734482E+02  0.26152709871E+02  0.10085365204E+02  0.30117225363E+02  0.00000000000E+00 0. -1.
</event>
<event>
 7    1  0.1563903E-008  0.4614232E+02  0.7816164E-02  0.1320468E+00
        -11   -1    0    0    0    0  0.00000000000E+00  0.00000000000E+00  0.45593999997E+02  0.45594000000E+02  0.51100000000E-03 0. -1.
         11   -1    0    0    0    0 -0.00000000000E+00 -0.00000000000E+00 -0.45593999997E+02  0.45594000000E+02  0.51100000000E-03 0.  1.
    9900012    2    1    2    0    0  0.36922095612E+02 -0.97995291248E+01  0.23871354312E+02  0.46142317941E+02  0.10000001645E+02 0.  0.
        -12    1    1    2    0    0 -0.36922095612E+02  0.97995291248E+01 -0.23871354312E+02  0.45045682059E+02  0.00000000000E+00 0.  1.
         11    1    3    3    0    0  0.21352998641E+02 -0.62389485968E+01  0.15497059116E+02  0.27111508111E+02  0.51100000000E-03 0. -1.
        -11    1    3    3    0    0  0.99832008208E+01 -0.28346833086E+00  0.25188862564E+01  0.10299972872E+02  0.51100000000E-03 0.  1.
        -12    1    3    3    0    0  0.55858961502E+01 -0.32771121972E+01  0.58554089395E+01  0.87308369589E+01  0.00000000000E+00 0.  1.
</event>
<event>
 7    1  0.1563903E-008  0.4614232E+02  0.7816164E-02  0.1320468E+00
        -11   -1    0    0    0    0  0.00000000000E+00  0.00000000000E+00  0.45593999997E+02  0.45594000000E+02  0.51100000000E-03 0.  1.
         11   -1    0    0    0    0 -0.00000000000E+00 -0.00000000000E+00 -0.45593999997E+02  0.45594000000E+02  0.51100000000E-03 0. -1.
    9900012    2    1    2    0    0 -0.43843759440E+02  0.34170845110E+01 -0.97550770622E+01  0.46142320553E+02  0.10000025456E+02 0.  0.
        -12    1    1    2    0    0  0.43843759440E+02 -0.34170845110E+01  0.97550770622E+01  0.45045679447E+02  0.00000000000E+00 0.  1.
         11    1    3    3    0    0 -0.27724330836E+02  0.17558763759E+00 -0.49854934806E+01  0.28169566855E+02  0.51100000000E-03 0. -1.
        -11    1    3    3    0    0 -0.84475646724E+01  0.24224760320E+01  0.20886948685E+00  0.87905270459E+01  0.51100000000E-03 0.  1.
         12    1    3    3    0    0 -0.76718639317E+01  0.81902084133E+00 -0.49784530684E+01  0.91822266515E+01  0.00000000000E+00 0. -1.
</event>
<event>
 7    1  0.1563903E-008  0.4614232E+02  0.7816164E-02  0.1320468E+00
        -11   -1    0    0    0    0  0.00000000000E+00  0.00000000000E+00  0.45593999997E+02  0.45594000000E+02  0.51100000000E-03 0.  1.
         11   -1    0    0    0    0 -0.00000000000E+00 -0.00000000000E+00 -0.45593999997E+02  0.45594000000E+02  0.51100000000E-03 0. -1.
    9900012    2    1    2    0    0 -0.25375316310E+02 -0.29720963131E+02 -0.22402482032E+02  0.46142317316E+02  0.99999959420E+01 0.  0.
        -12    1    1    2    0    0  0.25375316310E+02  0.29720963131E+02  0.22402482032E+02  0.45045682684E+02  0.00000000000E+00 0.  1.
         11    1    3    3    0    0 -0.46376932030E+01 -0.14944149834E+01 -0.99501055638E+00  0.49730795948E+01  0.51100000000E-03 0.  1.
        -11    1    3    3    0    0 -0.14797557013E+02 -0.19743261746E+02 -0.16698812997E+02  0.29792858770E+02  0.51100000000E-03 0. -1.
        -12    1    3    3    0    0 -0.59400660944E+01 -0.84832864014E+01 -0.47086584781E+01  0.11376378951E+02  0.00000000000E+00 0.  1.
</event>
<event>
 7    1  0.1563903E-008  0.4614231E+02  0.7816164E-02  0.1320468E+00
        -11   -1    0    0    0    0  0.00000000000E+00  0.00000000000E+00  0.45593999997E+02  0.45594000000E+02  0.51100000000E-03 0. -1.
         11   -1    0    0    0    0 -0.00000000000E+00 -0.00000000000E+00 -0.45593999997E+02  0.45594000000E+02  0.51100000000E-03 0.  1.
    9900012    2    1    2    0    0  0.39204740234E+02 -0.91314488927E+01  0.20216794137E+02  0.46142314514E+02  0.99999703933E+01 0.  0.
        -12    1    1    2    0    0 -0.39204740234E+02  0.91314488927E+01 -0.20216794137E+02  0.45045685486E+02  0.00000000000E+00 0.  1.
         11    1    3    3    0    0  0.61008718109E+01 -0.18240134872E+01  0.42290849358E+01  0.76441364267E+01  0.51100000000E-03 0. -1.
        -11    1    3    3    0    0  0.62497035120E+01 -0.49899572770E+01  0.26521357468E+01  0.84256923689E+01  0.51100000000E-03 0.  1.
        -12    1    3    3    0    0  0.26854164911E+02 -0.23174781286E+01  0.13335573455E+02  0.30072485719E+02  0.00000000000E+00 0.  1.
</event>
<event>
 7    1  0.1563903E-008  0.4614232E+02  0.7816164E-02  0.1320468E+00
        -11   -1    0    0    0    0  0.00000000000E+00  0.00000000000E+00  0.45593999997E+02  0.45594000000E+02  0.51100000000E-03 0.  1.
         11   -1    0    0    0    0 -0.00000000000E+00 -0.00000000000E+00 -0.45593999997E+02  0.45594000000E+02  0.51100000000E-03 0. -1.
    9900012    2    1    2    0    0 -0.40734691411E+02  0.15085006651E+02 -0.11926481549E+02  0.46142317941E+02  0.10000001644E+02 0.  0.
        -12    1    1    2    0    0  0.40734691411E+02 -0.15085006651E+02  0.11926481549E+02  0.45045682059E+02  0.00000000000E+00 0.  1.
         11    1    3    3    0    0 -0.23046317788E+02  0.73371350846E+01 -0.72406371633E+01  0.25246646146E+02  0.51100000000E-03 0. -1.
        -11    1    3    3    0    0 -0.40365411770E+01  0.47780596443E+01 -0.25827854583E+01  0.67671485592E+01  0.51100000000E-03 0.  1.
        -12    1    3    3    0    0 -0.13651832446E+02  0.29698119219E+01 -0.21030589273E+01  0.14128523236E+02  0.00000000000E+00 0.  1.
</event>
<event>
 7    1  0.1563903E-008  0.4614232E+02  0.7816164E-02  0.1320468E+00
        -11   -1    0    0    0    0  0.00000000000E+00  0.00000000000E+00  0.45593999997E+02  0.45594000000E+02  0.51100000000E-03 0.  1.
         11   -1    0    0    0    0 -0.00000000000E+00 -0.00000000000E+00 -0.45593999997E+02  0.45594000000E+02  0.51100000000E-03 0. -1.
    9900012    2    1    2    0    0 -0.21584305812E+02 -0.37829856291E+02 -0.11494917033E+02  0.46142318720E+02  0.10000008740E+02 0.  0.
        -12    1    1    2    0    0  0.21584305812E+02  0.37829856291E+02  0.11494917033E+02  0.45045681280E+02  0.00000000000E+00 0.  1.
         11    1    3    3    0    0 -0.11669569962E+02 -0.15404434679E+02 -0.52365077041E+01  0.20022399558E+02  0.51100000000E-03 0. -1.
        -11    1    3    3    0    0 -0.47192337877E+01 -0.11220724701E+02  0.21701454714E+00  0.12174683812E+02  0.51100000000E-03 0.  1.
         12    1    3    3    0    0 -0.51955020628E+01 -0.11204696912E+02 -0.64754238763E+01  0.13945235349E+02  0.00000000000E+00 0. -1.
</event>
<event>
 7    1  0.1563903E-008  0.4614232E+02  0.7816164E-02  0.1320468E+00
        -11   -1    0    0    0    0  0.00000000000E+00  0.00000000000E+00  0.45593999997E+02  0.45594000000E+02  0.51100000000E-03 0. -1.
         11   -1    0    0    0    0 -0.00000000000E+00 -0.00000000000E+00 -0.45593999997E+02  0.45594000000E+02  0.51100000000E-03 0.  1.
    9900012    2    1    2    0    0  0.26148784876E+02 -0.79464273311E+01  0.35807939364E+02  0.46142321192E+02  0.10000031281E+02 0.  0.
        -12    1    1    2    0    0 -0.26148784876E+02  0.79464273311E+01 -0.35807939364E+02  0.45045678808E+02  0.00000000000E+00 0.  1.
         11    1    3    3    0    0  0.11195117322E+02 -0.47954781677E+01  0.10730007951E+02  0.16231461228E+02  0.51100000000E-03 0. -1.
        -11    1    3    3    0    0  0.65074997113E+01  0.13281433148E+01  0.86800217151E+01  0.10929514829E+02  0.51100000000E-03 0.  1.
         12    1    3    3    0    0  0.84461678426E+01 -0.44790924782E+01  0.16397909698E+02  0.18981345135E+02  0.00000000000E+00 0. -1.
</event>
<event>
 7    1  0.1563903E-008  0.4614232E+02  0.7816164E-02  0.1320468E+00
        -11   -1    0    0    0    0  0.00000000000E+00  0.00000000000E+00  0.45593999997E+02  0.45594000000E+02  0.51100000000E-03 0. -1.
         11   -1    0    0    0    0 -0.00000000000E+00 -0.00000000000E+00 -0.45593999997E+02  0.45594000000E+02  0.51100000000E-03 0.  1.
    9900012    2    1    2    0    0  0.14718738568E+02  0.39032653914E+02  0.16997775297E+02  0.46142315394E+02  0.99999784168E+01 0.  0.
        -12    1    1    2    0    0 -0.14718738568E+02 -0.39032653914E+02 -0.16997775297E+02  0.45045684606E+02  0.00000000000E+00 0.  1.
         11    1    3    3    0    0  0.32507432198E+00  0.76244695026E+01  0.43747153768E+01  0.87963824041E+01  0.51100000000E-03 0. -1.
        -11    1    3    3    0    0  0.75617264369E+01  0.15461566320E+02  0.28865973404E+01  0.17451996569E+02  0.51100000000E-03 0.  1.
         12    1    3    3    0    0  0.68319378089E+01  0.15946618091E+02  0.97364625798E+01  0.19893936421E+02  0.00000000000E+00 0. -1.
</event>
<event>
 7    1  0.1563903E-008  0.4614232E+02  0.7816164E-02  0.1320468E+00
        -11   -1    0    0    0    0  0.00000000000E+00  0.00000000000E+00  0.45593999997E+02  0.45594000000E+02  0.51100000000E-03 0.  1.
         11   -1    0    0    0    0 -0.00000000000E+00 -0.00000000000E+00 -0.45593999997E+02  0.45594000000E+02  0.51100000000E-03 0. -1.
    9900012    2    1    2    0    0 -0.32428158224E+02 -0.54267862163E+01 -0.30790875984E+02  0.46142317651E+02  0.99999989916E+01 0.  0.
        -12    1    1    2    0    0  0.32428158224E+02  0.54267862163E+01  0.30790875984E+02  0.45045682349E+02  0.00000000000E+00 0.  1.
         11    1    3    3    0    0 -0.49987021302E+01 -0.39163517546E+01 -0.46994380894E+01  0.78999716879E+01  0.51100000000E-03 0. -1.
        -11    1    3    3    0    0 -0.12188316115E+02  0.18518706945E+01 -0.12292570588E+02  0.17409530916E+02  0.51100000000E-03 0.  1.
        -12    1    3    3    0    0 -0.15241139978E+02 -0.33623051562E+01 -0.13798867307E+02  0.20832815047E+02  0.00000000000E+00 0.  1.
</event>
<event>
 7    1  0.1563903E-008  0.4614232E+02  0.7816164E-02  0.1320468E+00
        -11   -1    0    0    0    0  0.00000000000E+00  0.00000000000E+00  0.45593999997E+02  0.45594000000E+02  0.51100000000E-03 0.  1.
         11   -1    0    0    0    0 -0.00000000000E+00 -0.00000000000E+00 -0.45593999997E+02  0.45594000000E+02  0.51100000000E-03 0. -1.
    9900012    2    1    2    0    0 -0.58665007687E+01 -0.44660667041E+02 -0.34997728262E+00  0.46142317677E+02  0.99999992375E+01 0.  0.
        -12    1    1    2    0    0  0.58665007687E+01  0.44660667041E+02  0.34997728262E+00  0.45045682323E+02  0.00000000000E+00 0.  1.
         11    1    3    3    0    0 -0.13418758301E+01 -0.12540225311E+02  0.29411755609E+01  0.12950227625E+02  0.51100000000E-03 0. -1.
        -11    1    3    3    0    0 -0.27374951914E+01 -0.10549911853E+02 -0.37970161200E+01  0.11541743876E+02  0.51100000000E-03 0.  1.
         12    1    3    3    0    0 -0.17871297471E+01 -0.21570529877E+02  0.50586327649E+00  0.21650346177E+02  0.00000000000E+00 0. -1.
</event>
<event>
 7    1  0.1563903E-008  0.4614232E+02  0.7816164E-02  0.1320468E+00
        -11   -1    0    0    0    0  0.00000000000E+00  0.00000000000E+00  0.45593999997E+02  0.45594000000E+02  0.51100000000E-03 0.  1.
         11   -1    0    0    0    0 -0.00000000000E+00 -0.00000000000E+00 -0.45593999997E+02  0.45594000000E+02  0.51100000000E-03 0. -1.
    9900012    2    1    2    0    0 -0.42457285758E+02 -0.13918575688E+01 -0.14985162440E+02  0.46142317912E+02  0.10000001374E+02 0.  0.
        -12    1    1    2    0    0  0.42457285758E+02  0.13918575688E+01  0.14985162440E+02  0.45045682088E+02  0.00000000000E+00 0.  1.
         11    1    3    3    0    0 -0.15059408581E+02  0.11468563833E+01 -0.25668904773E+01  0.15319595078E+02  0.51100000000E-03 0. -1.
        -11    1    3    3    0    0 -0.12740721262E+02 -0.32823069336E+01 -0.33695483321E+01  0.13581361246E+02  0.51100000000E-03 0.  1.
        -12    1    3    3    0    0 -0.14657155915E+02  0.74359298149E+00 -0.90487236304E+01  0.17241361588E+02  0.00000000000E+00 0.  1.
</event>
<event>
 7    1  0.1563903E-008  0.4614232E+02  0.7816164E-02  0.1320468E+00
        -11   -1    0    0    0    0  0.00000000000E+00  0.00000000000E+00  0.45593999997E+02  0.45594000000E+02  0.51100000000E-03 0.  1.
         11   -1    0    0    0    0 -0.00000000000E+00 -0.00000000000E+00 -0.45593999997E+02  0.45594000000E+02  0.51100000000E-03 0. -1.
    9900012    2    1    2    0    0  0.18901946764E+02  0.23130054279E+02 -0.33716917647E+02  0.46142317210E+02  0.99999949757E+01 0.  0.
        -12    1    1    2    0    0 -0.18901946764E+02 -0.23130054279E+02  0.33716917647E+02  0.45045682790E+02  0.00000000000E+00 0.  1.
         11    1    3    3    0    0  0.46152472630E+01  0.64332484095E+01 -0.11919551302E+02  0.14309538633E+02  0.51100000000E-03 0. -1.
        -11    1    3    3    0    0  0.12872618903E+02  0.14298418561E+02 -0.14710935569E+02  0.24219015594E+02  0.51100000000E-03 0.  1.
        -12    1    3    3    0    0  0.14140805980E+01  0.23983873084E+01 -0.70864307760E+01  0.76137629831E+01  0.00000000000E+00 0.  1.
</event>
<event>
 7    1  0.1563903E-008  0.4614232E+02  0.7816164E-02  0.1320468E+00
        -11   -1    0    0    0    0  0.00000000000E+00  0.00000000000E+00  0.45593999997E+02  0.45594000000E+02  0.51100000000E-03 0. -1.
         11   -1    0    0    0    0 -0.00000000000E+00 -0.00000000000E+00 -0.45593999997E+02  0.45594000000E+02  0.51100000000E-03 0.  1.
    9900012    2    1    2    0    0 -0.10497118535E+02  0.43735642764E+02  0.24733512784E+01  0.46142318608E+02  0.10000007721E+02 0.  0.
        -12    1    1    2    0    0  0.10497118535E+02 -0.43735642764E+02 -0.24733512784E+01  0.45045681392E+02  0.00000000000E+00 0.  1.
         11    1    3    3    0    0 -0.42211890020E+01  0.24214433258E+02 -0.18093117106E-01  0.24579616397E+02  0.51100000000E-03 0. -1.
        -11    1    3    3    0    0  0.85360219435E+00  0.28108652915E+00  0.14644915340E+00  0.91054596739E+00  0.51100000000E-03 0.  1.
        -12    1    3    3    0    0 -0.71295317273E+01  0.19240122977E+02  0.23449952421E+01  0.20652156244E+02  0.00000000000E+00 0.  1.
</event>
<event>
 7    1  0.1563903E-008  0.4614232E+02  0.7816164E-02  0.1320468E+00
        -11   -1    0    0    0    0  0.00000000000E+00  0.00000000000E+00  0.45593999997E+02  0.45594000000E+02  0.51100000000E-03 0. -1.
         11   -1    0    0    0    0 -0.00000000000E+00 -0.00000000000E+00 -0.45593999997E+02  0.45594000000E+02  0.51100000000E-03 0.  1.
    9900012    2    1    2    0    0 -0.39334039458E+02  0.21771156372E+02 -0.28219872103E+01  0.46142317391E+02  0.99999966247E+01 0.  0.
        -12    1    1    2    0    0  0.39334039458E+02 -0.21771156372E+02  0.28219872103E+01  0.45045682609E+02  0.00000000000E+00 0.  1.
         11    1    3    3    0    0 -0.20785528071E+02  0.76277839265E+01 -0.14642642497E+01  0.22189306769E+02  0.51100000000E-03 0. -1.
        -11    1    3    3    0    0 -0.16440517486E+01  0.32445402468E+01 -0.12288910758E+01  0.38392865356E+01  0.51100000000E-03 0.  1.
         12    1    3    3    0    0 -0.16904459639E+02  0.10898832199E+02 -0.12883188472E+00  0.20113724087E+02  0.00000000000E+00 0. -1.
</event>
<event>
 7    1  0.1563903E-008  0.4614232E+02  0.7816164E-02  0.1320468E+00
        -11   -1    0    0    0    0  0.00000000000E+00  0.00000000000E+00  0.45593999997E+02  0.45594000000E+02  0.51100000000E-03 0.  1.
         11   -1    0    0    0    0 -0.00000000000E+00 -0.00000000000E+00 -0.45593999997E+02  0.45594000000E+02  0.51100000000E-03 0. -1.
    9900012    2    1    2    0    0  0.30072213601E+02 -0.12316297607E+02 -0.31194293707E+02  0.46142321212E+02  0.10000031465E+02 0.  0.
        -12    1    1    2    0    0 -0.30072213601E+02  0.12316297607E+02  0.31194293707E+02  0.45045678788E+02  0.00000000000E+00 0.  1.
         11    1    3    3    0    0  0.14243203273E+02 -0.79350919889E+01 -0.15569768907E+02  0.22544450059E+02  0.51100000000E-03 0. -1.
        -11    1    3    3    0    0 -0.59552382629E+00 -0.81998465849E-01 -0.13561118405E+00  0.61624916263E+00  0.51100000000E-03 0.  1.
         12    1    3    3    0    0  0.16424534154E+02 -0.42992071518E+01 -0.15488913616E+02  0.22981621991E+02  0.00000000000E+00 0. -1.
</event>
<event>
 7    1  0.1563903E-008  0.4614232E+02  0.7816164E-02  0.1320468E+00
        -11   -1    0    0    0    0  0.00000000000E+00  0.00000000000E+00  0.45593999997E+02  0.45594000000E+02  0.51100000000E-03 0.  1.
         11   -1    0    0    0    0 -0.00000000000E+00 -0.00000000000E+00 -0.45593999997E+02  0.45594000000E+02  0.51100000000E-03 0. -1.
    9900012    2    1    2    0    0 -0.41028677876E+02 -0.65583808785E+01 -0.17399674904E+02  0.46142318134E+02  0.10000003400E+02 0.  0.
        -12    1    1    2    0    0  0.41028677876E+02  0.65583808785E+01  0.17399674904E+02  0.45045681866E+02  0.00000000000E+00 0.  1.
         11    1    3    3    0    0 -0.32979630972E+01  0.12439238958E+01 -0.26752327029E+01  0.44250172344E+01  0.51100000000E-03 0. -1.
        -11    1    3    3    0    0 -0.60718728544E+01  0.95927781789E+00 -0.29865040111E+01  0.68342563868E+01  0.51100000000E-03 0.  1.
         12    1    3    3    0    0 -0.31658841925E+02 -0.87615825921E+01 -0.11737938190E+02  0.34883044513E+02  0.00000000000E+00 0. -1.
</event>
<event>
 7    1  0.1563903E-008  0.4614232E+02  0.7816164E-02  0.1320468E+00
        -11   -1    0    0    0    0  0.00000000000E+00  0.00000000000E+00  0.45593999997E+02  0.45594000000E+02  0.51100000000E-03 0. -1.
         11   -1    0    0    0    0 -0.00000000000E+00 -0.00000000000E+00 -0.45593999997E+02  0.45594000000E+02  0.51100000000E-03 0.  1.
    9900012    2    1    2    0    0  0.46911011404E+01  0.43078185441E+02  0.12303535452E+02  0.46142317905E+02  0.10000001310E+02 0.  0.
        -12    1    1    2    0    0 -0.46911011404E+01 -0.43078185441E+02 -0.12303535452E+02  0.45045682095E+02  0.00000000000E+00 0.  1.
         11    1    3    3    0    0  0.32995665696E+01  0.47494017469E+01  0.20000305188E+01  0.61191567097E+01  0.51100000000E-03 0. -1.
        -11    1    3    3    0    0 -0.79188243349E+00  0.37940689705E+01 -0.13856866309E+00  0.38783035824E+01  0.51100000000E-03 0.  1.
         12    1    3    3    0    0  0.21834170043E+01  0.34534714724E+02  0.10442073596E+02  0.36144857613E+02  0.00000000000E+00 0. -1.
</event>
<event>
 7    1  0.1563903E-008  0.4614232E+02  0.7816164E-02  0.1320468E+00
        -11   -1    0    0    0    0  0.00000000000E+00  0.00000000000E+00  0.45593999997E+02  0.45594000000E+02  0.51100000000E-03 0.  1.
         11   -1    0    0    0    0 -0.00000000000E+00 -0.00000000000E+00 -0.45593999997E+02  0.45594000000E+02  0.51100000000E-03 0. -1.
    9900012    2    1    2    0    0 -0.88651280081E+01  0.38647181291E+02 -0.21375648914E+02  0.46142317823E+02  0.10000000561E+02 0.  0.
        -12    1    1    2    0    0  0.88651280081E+01 -0.38647181291E+02  0.21375648914E+02  0.45045682177E+02  0.00000000000E+00 0.  1.
         11    1    3    3    0    0 -0.73113371978E+01  0.15590371548E+02 -0.68910863911E+01  0.18547301921E+02  0.51100000000E-03 0. -1.
        -11    1    3    3    0    0  0.13976229978E+01  0.10284959175E+02 -0.64025226093E+01  0.12195328257E+02  0.51100000000E-03 0.  1.
         12    1    3    3    0    0 -0.29514138081E+01  0.12771850567E+02 -0.80820399141E+01  0.15399687645E+02  0.00000000000E+00 0. -1.
</event>
<event>
 7    1  0.1563903E-008  0.4614232E+02  0.7816164E-02  0.1320468E+00
        -11   -1    0    0    0    0  0.00000000000E+00  0.00000000000E+00  0.45593999997E+02  0.45594000000E+02  0.51100000000E-03 0.  1.
         11   -1    0    0    0    0 -0.00000000000E+00 -0.00000000000E+00 -0.45593999997E+02  0.45594000000E+02  0.51100000000E-03 0. -1.
    9900012    2    1    2    0    0  0.52259591562E+01 -0.39544256708E+02 -0.20929753990E+02  0.46142317746E+02  0.99999998579E+01 0.  0.
        -12    1    1    2    0    0 -0.52259591562E+01  0.39544256708E+02  0.20929753990E+02  0.45045682254E+02  0.00000000000E+00 0.  1.
         11    1    3    3    0    0  0.99179273659E+00 -0.18313414116E+02 -0.11858947948E+02  0.21840316759E+02  0.51100000000E-03 0. -1.
        -11    1    3    3    0    0 -0.86383243560E+00 -0.25421139399E+01  0.44151501981E+00  0.27209346802E+01  0.51100000000E-03 0.  1.
         12    1    3    3    0    0  0.50979988552E+01 -0.18688728652E+02 -0.95123210624E+01  0.21581066307E+02  0.00000000000E+00 0. -1.
</event>
<event>
 7    1  0.1563903E-008  0.4614232E+02  0.7816164E-02  0.1320468E+00
        -11   -1    0    0    0    0  0.00000000000E+00  0.00000000000E+00  0.45593999997E+02  0.45594000000E+02  0.51100000000E-03 0. -1.
         11   -1    0    0    0    0 -0.00000000000E+00 -0.00000000000E+00 -0.45593999997E+02  0.45594000000E+02  0.51100000000E-03 0.  1.
    9900012    2    1    2    0    0 -0.29558359590E+02  0.32055238179E+02  0.11308325769E+02  0.46142321539E+02  0.10000034448E+02 0.  0.
        -12    1    1    2    0    0  0.29558359590E+02 -0.32055238179E+02 -0.11308325769E+02  0.45045678461E+02  0.00000000000E+00 0.  1.
         11    1    3    3    0    0 -0.49393333986E+01  0.45651409644E+01 -0.12277017622E+01  0.68370153082E+01  0.51100000000E-03 0. -1.
        -11    1    3    3    0    0 -0.36967439061E+00  0.19897062236E+01  0.28240829697E+00  0.20433660266E+01  0.51100000000E-03 0.  1.
         12    1    3    3    0    0 -0.24249351801E+02  0.25500390991E+02  0.12253619234E+02  0.37261940204E+02  0.00000000000E+00 0. -1.
</event>
<event>
 7    1  0.1563903E-008  0.4614231E+02  0.7816164E-02  0.1320468E+00
        -11   -1    0    0    0    0  0.00000000000E+00  0.00000000000E+00  0.45593999997E+02  0.45594000000E+02  0.51100000000E-03 0.  1.
         11   -1    0    0    0    0 -0.00000000000E+00 -0.00000000000E+00 -0.45593999997E+02  0.45594000000E+02  0.51100000000E-03 0. -1.
    9900012    2    1    2    0    0  0.20645798145E+02 -0.10248436034E+02 -0.38701868799E+02  0.46142311297E+02  0.99999410530E+01 0.  0.
        -12    1    1    2    0    0 -0.20645798145E+02  0.10248436034E+02  0.38701868799E+02  0.45045688703E+02  0.00000000000E+00 0.  1.
         11    1    3    3    0    0 -0.90273258660E-01  0.87969858129E+00 -0.17788586069E+01  0.19865439989E+01  0.51100000000E-03 0.  1.
        -11    1    3    3    0    0  0.19855142676E+02 -0.11039343963E+02 -0.32548475450E+02  0.39692531542E+02  0.51100000000E-03 0. -1.
         12    1    3    3    0    0  0.88092872840E+00 -0.88790651990E-01 -0.43745347421E+01  0.44632357561E+01  0.00000000000E+00 0. -1.
</event>
<event>
 7    1  0.1563903E-008  0.4614232E+02  0.7816164E-02  0.1320468E+00
        -11   -1    0    0    0    0  0.00000000000E+00  0.00000000000E+00  0.45593999997E+02  0.45594000000E+02  0.51100000000E-03 0.  1.
         11   -1    0    0    0    0 -0.00000000000E+00 -0.00000000000E+00 -0.45593999997E+02  0.45594000000E+02  0.51100000000E-03 0. -1.
    9900012    2    1    2    0    0 -0.28340398351E+02 -0.21713408402E+02 -0.27467496736E+02  0.46142315855E+02  0.99999826209E+01 0.  0.
        -12    1    1    2    0    0  0.28340398351E+02  0.21713408402E+02  0.27467496736E+02  0.45045684145E+02  0.00000000000E+00 0.  1.
         11    1    3    3    0    0 -0.16304125320E+02 -0.16384527129E+02 -0.13258101138E+02  0.26646847426E+02  0.51100000000E-03 0. -1.
        -11    1    3    3    0    0 -0.30447318346E+01 -0.68369001535E+00 -0.44564085925E+01  0.54403494176E+01  0.51100000000E-03 0.  1.
         12    1    3    3    0    0 -0.89915411965E+01 -0.46451912576E+01 -0.97529870051E+01  0.14055119012E+02  0.00000000000E+00 0. -1.
</event>
<event>
 7    1  0.1563903E-008  0.4614232E+02  0.7816164E-02  0.1320468E+00
        -11   -1    0    0    0    0  0.00000000000E+00  0.00000000000E+00  0.45593999997E+02  0.45594000000E+02  0.51100000000E-03 0.  1.
         11   -1    0    0    0    0 -0.00000000000E+00 -0.00000000000E+00 -0.45593999997E+02  0.45594000000E+02  0.51100000000E-03 0. -1.
    9900012    2    1    2    0    0 -0.85273461094E+01 -0.20358417919E+02 -0.39267450209E+02  0.46142318101E+02  0.10000003099E+02 0.  0.
        -12    1    1    2    0    0  0.85273461094E+01  0.20358417919E+02  0.39267450209E+02  0.45045681899E+02  0.00000000000E+00 0.  1.
         11    1    3    3    0    0 -0.18480443936E+01 -0.38370171065E+00 -0.63798033588E+01  0.66531485961E+01  0.51100000000E-03 0. -1.
        -11    1    3    3    0    0 -0.31073163741E+01 -0.53236826574E+01 -0.56814232591E+01  0.83830532979E+01  0.51100000000E-03 0.  1.
        -12    1    3    3    0    0 -0.35719853418E+01 -0.14651033551E+02 -0.27206223591E+02  0.31106116207E+02  0.00000000000E+00 0.  1.
</event>
<event>
 7    1  0.1563903E-008  0.4614232E+02  0.7816164E-02  0.1320468E+00
        -11   -1    0    0    0    0  0.00000000000E+00  0.00000000000E+00  0.45593999997E+02  0.45594000000E+02  0.51100000000E-03 0. -1.
         11   -1    0    0    0    0 -0.00000000000E+00 -0.00000000000E+00 -0.45593999997E+02  0.45594000000E+02  0.51100000000E-03 0.  1.
    9900012    2    1    2    0    0 -0.98108769326E+01  0.43233463853E+02 -0.79829680091E+01  0.46142317841E+02  0.10000000731E+02 0.  0.
        -12    1    1    2    0    0  0.98108769326E+01 -0.43233463853E+02  0.79829680091E+01  0.45045682159E+02  0.00000000000E+00 0.  1.
         11    1    3    3    0    0 -0.54409916207E+01  0.15176749899E+02 -0.58894604816E+01  0.17164611045E+02  0.51100000000E-03 0. -1.
        -11    1    3    3    0    0 -0.37413264800E+01  0.25818128614E+02 -0.38206029869E+00  0.26090597143E+02  0.51100000000E-03 0.  1.
        -12    1    3    3    0    0 -0.62855883196E+00  0.22385853401E+01 -0.17114472288E+01  0.28871096528E+01  0.00000000000E+00 0.  1.
</event>
<event>
 7    1  0.1563903E-008  0.4614232E+02  0.7816164E-02  0.1320468E+00
        -11   -1    0    0    0    0  0.00000000000E+00  0.00000000000E+00  0.45593999997E+02  0.45594000000E+02  0.51100000000E-03 0.  1.
         11   -1    0    0    0    0 -0.00000000000E+00 -0.00000000000E+00 -0.45593999997E+02  0.45594000000E+02  0.51100000000E-03 0. -1.
    9900012    2    1    2    0    0 -0.17216248478E+02  0.22874551948E+02 -0.34777420311E+02  0.46142319830E+02  0.10000018863E+02 0.  0.
        -12    1    1    2    0    0  0.17216248478E+02 -0.22874551948E+02  0.34777420311E+02  0.45045680170E+02  0.00000000000E+00 0.  1.
         11    1    3    3    0    0 -0.11491395731E+02  0.18447625333E+02 -0.27643757414E+02  0.35164532991E+02  0.51100000000E-03 0. -1.
        -11    1    3    3    0    0 -0.57993605246E+01  0.34997564142E+01 -0.43677522560E+01  0.80596611271E+01  0.51100000000E-03 0.  1.
        -12    1    3    3    0    0  0.74507777314E-01  0.92717020136E+00 -0.27659106416E+01  0.29181257115E+01  0.00000000000E+00 0.  1.
</event>
<event>
 7    1  0.1563903E-008  0.4614232E+02  0.7816164E-02  0.1320468E+00
        -11   -1    0    0    0    0  0.00000000000E+00  0.00000000000E+00  0.45593999997E+02  0.45594000000E+02  0.51100000000E-03 0. -1.
         11   -1    0    0    0    0 -0.00000000000E+00 -0.00000000000E+00 -0.45593999997E+02  0.45594000000E+02  0.51100000000E-03 0.  1.
    9900012    2    1    2    0    0 -0.39485800906E+02  0.17628710665E+02 -0.12617975721E+02  0.46142320693E+02  0.10000026733E+02 0.  0.
        -12    1    1    2    0    0  0.39485800906E+02 -0.17628710665E+02  0.12617975721E+02  0.45045679307E+02  0.00000000000E+00 0.  1.
         11    1    3    3    0    0 -0.79360529787E+01  0.43841761140E+01 -0.20204221823E+01  0.92889204505E+01  0.51100000000E-03 0. -1.
        -11    1    3    3    0    0 -0.52467039897E+01 -0.61625939885E+00 -0.33356248054E+01  0.62477253065E+01  0.51100000000E-03 0.  1.
        -12    1    3    3    0    0 -0.26303043938E+02  0.13860793950E+02 -0.72619287338E+01  0.30605674936E+02  0.00000000000E+00 0.  1.
</event>
<event>
 7    1  0.1563903E-008  0.4614232E+02  0.7816164E-02  0.1320468E+00
        -11   -1    0    0    0    0  0.00000000000E+00  0.00000000000E+00  0.45593999997E+02  0.45594000000E+02  0.51100000000E-03 0.  1.
         11   -1    0    0    0    0 -0.00000000000E+00 -0.00000000000E+00 -0.45593999997E+02  0.45594000000E+02  0.51100000000E-03 0. -1.
    9900012    2    1    2    0    0 -0.51959723475E+01 -0.19676427310E+02 -0.40186484528E+02  0.46142318087E+02  0.10000002974E+02 0.  0.
        -12    1    1    2    0    0  0.51959723475E+01  0.19676427310E+02  0.40186484528E+02  0.45045681913E+02  0.00000000000E+00 0.  1.
         11    1    3    3    0    0 -0.50260458025E+01 -0.11653302036E+02 -0.21606758592E+02  0.25058184329E+02  0.51100000000E-03 0. -1.
        -11    1    3    3    0    0  0.10579360452E+01 -0.35724997879E+00 -0.20322305042E+00  0.11349696439E+01  0.51100000000E-03 0.  1.
         12    1    3    3    0    0 -0.12278625902E+01 -0.76658752945E+01 -0.18376502885E+02  0.19949164114E+02  0.00000000000E+00 0. -1.
</event>
<event>
 7    1  0.1563903E-008  0.4614232E+02  0.7816164E-02  0.1320468E+00
        -11   -1    0    0    0    0  0.00000000000E+00  0.00000000000E+00  0.45593999997E+02  0.45594000000E+02  0.51100000000E-03 0. -1.
         11   -1    0    0    0    0 -0.00000000000E+00 -0.00000000000E+00 -0.45593999997E+02  0.45594000000E+02  0.51100000000E-03 0.  1.
    9900012    2    1    2    0    0  0.93694225382E+01 -0.28436762912E+01  0.43968635228E+02  0.46142318105E+02  0.10000003137E+02 0.  0.
        -12    1    1    2    0    0 -0.93694225382E+01  0.28436762912E+01 -0.43968635228E+02  0.45045681895E+02  0.00000000000E+00 0.  1.
         11    1    3    3    0    0  0.85196529798E+01 -0.18889669118E+01  0.29480876666E+02  0.30745321142E+02  0.51100000000E-03 0. -1.
        -11    1    3    3    0    0 -0.15689574840E+01 -0.15931758378E+01  0.37015537301E+01  0.43245042624E+01  0.51100000000E-03 0.  1.
        -12    1    3    3    0    0  0.24187270424E+01  0.63846645836E+00  0.10786204832E+02  0.11072492701E+02  0.00000000000E+00 0.  1.
</event>
<event>
 7    1  0.2509494E-008  0.4614232E+02  0.7816164E-02  0.1320468E+00
        -11   -1    0    0    0    0  0.00000000000E+00  0.00000000000E+00  0.45593999997E+02  0.45594000000E+02  0.51100000000E-03 0. -1.
         11   -1    0    0    0    0 -0.00000000000E+00 -0.00000000000E+00 -0.45593999997E+02  0.45594000000E+02  0.51100000000E-03 0.  1.
    9900012    2    1    2    0    0 -0.15969903754E+02 -0.38515128559E+02 -0.17048768667E+02  0.46142317999E+02  0.10000002171E+02 0.  0.
        -12    1    1    2    0    0  0.15969903754E+02  0.38515128559E+02  0.17048768667E+02  0.45045682001E+02  0.00000000000E+00 0.  1.
         11    1    3    3    0    0 -0.13537213193E+02 -0.35288532641E+02 -0.13134227195E+02  0.40013055385E+02  0.51100000000E-03 0. -1.
        -11    1    3    3    0    0 -0.55158341881E+00  0.30919154923E+00 -0.97152102713E+00  0.11591794724E+01  0.51100000000E-03 0.  1.
         12    1    3    3    0    0 -0.18811071419E+01 -0.35357874676E+01 -0.29430204448E+01  0.49700831415E+01  0.00000000000E+00 0. -1.
</event>
<event>
 7    1  0.1563903E-008  0.4614232E+02  0.7816164E-02  0.1320468E+00
        -11   -1    0    0    0    0  0.00000000000E+00  0.00000000000E+00  0.45593999997E+02  0.45594000000E+02  0.51100000000E-03 0.  1.
         11   -1    0    0    0    0 -0.00000000000E+00 -0.00000000000E+00 -0.45593999997E+02  0.45594000000E+02  0.51100000000E-03 0. -1.
    9900012    2    1    2    0    0  0.18588907518E+01 -0.40241623027E+02 -0.20156135566E+02  0.46142317636E+02  0.99999988622E+01 0.  0.
        -12    1    1    2    0    0 -0.18588907518E+01  0.40241623027E+02  0.20156135566E+02  0.45045682364E+02  0.00000000000E+00 0.  1.
         11    1    3    3    0    0  0.39782987354E+01 -0.15017597924E+02 -0.75949204414E+01  0.17292713061E+02  0.51100000000E-03 0. -1.
        -11    1    3    3    0    0 -0.10787159057E+01 -0.23841845310E+02 -0.12833901429E+02  0.27098085577E+02  0.51100000000E-03 0.  1.
        -12    1    3    3    0    0 -0.10406920779E+01 -0.13821797928E+01  0.27268630470E+00  0.17515189983E+01  0.00000000000E+00 0.  1.
</event>
<event>
 7    1  0.1563903E-008  0.4614232E+02  0.7816164E-02  0.1320468E+00
        -11   -1    0    0    0    0  0.00000000000E+00  0.00000000000E+00  0.45593999997E+02  0.45594000000E+02  0.51100000000E-03 0.  1.
         11   -1    0    0    0    0 -0.00000000000E+00 -0.00000000000E+00 -0.45593999997E+02  0.45594000000E+02  0.51100000000E-03 0. -1.
    9900012    2    1    2    0    0 -0.11322926518E+02 -0.41372920498E+02 -0.13754499408E+02  0.46142317972E+02  0.10000001920E+02 0.  0.
        -12    1    1    2    0    0  0.11322926518E+02  0.41372920498E+02  0.13754499408E+02  0.45045682028E+02  0.00000000000E+00 0.  1.
         11    1    3    3    0    0 -0.50616985284E+01 -0.19658266915E+02 -0.25200889352E+01  0.20455295124E+02  0.51100000000E-03 0. -1.
        -11    1    3    3    0    0 -0.31560048213E+01 -0.40093395224E+01 -0.29552110982E+01  0.58964771460E+01  0.51100000000E-03 0.  1.
         12    1    3    3    0    0 -0.31052231688E+01 -0.17705314060E+02 -0.82791993743E+01  0.19790545702E+02  0.00000000000E+00 0. -1.
</event>
<event>
 7    1  0.1563903E-008  0.4614232E+02  0.7816164E-02  0.1320468E+00
        -11   -1    0    0    0    0  0.00000000000E+00  0.00000000000E+00  0.45593999997E+02  0.45594000000E+02  0.51100000000E-03 0.  1.
         11   -1    0    0    0    0 -0.00000000000E+00 -0.00000000000E+00 -0.45593999997E+02  0.45594000000E+02  0.51100000000E-03 0. -1.
    9900012    2    1    2    0    0  0.16552633792E+02 -0.41852637082E+02 -0.18656018754E+01  0.46142318892E+02  0.10000010309E+02 0.  0.
        -12    1    1    2    0    0 -0.16552633792E+02  0.41852637082E+02  0.18656018754E+01  0.45045681108E+02  0.00000000000E+00 0.  1.
         11    1    3    3    0    0  0.17740763605E+01 -0.82915615767E+01 -0.30880082683E+01  0.90240310083E+01  0.51100000000E-03 0. -1.
        -11    1    3    3    0    0  0.61586700221E+01 -0.11104027516E+02 -0.19816417654E+01  0.12851285845E+02  0.51100000000E-03 0.  1.
         12    1    3    3    0    0  0.86198874095E+01 -0.22457047989E+02  0.32040481583E+01  0.24267002038E+02  0.00000000000E+00 0. -1.
</event>
<event>
 7    1  0.1563903E-008  0.4614232E+02  0.7816164E-02  0.1320468E+00
        -11   -1    0    0    0    0  0.00000000000E+00  0.00000000000E+00  0.45593999997E+02  0.45594000000E+02  0.51100000000E-03 0. -1.
         11   -1    0    0    0    0 -0.00000000000E+00 -0.00000000000E+00 -0.45593999997E+02  0.45594000000E+02  0.51100000000E-03 0.  1.
    9900012    2    1    2    0    0  0.32343681670E+02 -0.25896601540E+02  0.17673872238E+02  0.46142317908E+02  0.10000001339E+02 0.  0.
        -12    1    1    2    0    0 -0.32343681670E+02  0.25896601540E+02 -0.17673872238E+02  0.45045682092E+02  0.00000000000E+00 0.  1.
         11    1    3    3    0    0  0.93721250529E+01 -0.58898587703E+01  0.67846438308E+01  0.12983010302E+02  0.51100000000E-03 0. -1.
        -11    1    3    3    0    0  0.17715048374E+02 -0.17860819261E+02  0.64985116849E+01  0.25981964090E+02  0.51100000000E-03 0.  1.
        -12    1    3    3    0    0  0.52565082430E+01 -0.21459235079E+01  0.43907167221E+01  0.71773435159E+01  0.00000000000E+00 0.  1.
</event>
<event>
 7    1  0.1563903E-008  0.4614232E+02  0.7816164E-02  0.1320468E+00
        -11   -1    0    0    0    0  0.00000000000E+00  0.00000000000E+00  0.45593999997E+02  0.45594000000E+02  0.51100000000E-03 0. -1.
         11   -1    0    0    0    0 -0.00000000000E+00 -0.00000000000E+00 -0.45593999997E+02  0.45594000000E+02  0.51100000000E-03 0.  1.
    9900012    2    1    2    0    0  0.44454675960E+02  0.53878628232E+01  0.48853043150E+01  0.46142317868E+02  0.10000000976E+02 0.  0.
        -12    1    1    2    0    0 -0.44454675960E+02 -0.53878628232E+01 -0.48853043150E+01  0.45045682132E+02  0.00000000000E+00 0.  1.
         11    1    3    3    0    0  0.29246297670E+02 -0.52456549694E+00  0.37088733834E+01  0.29485196937E+02  0.51100000000E-03 0. -1.
        -11    1    3    3    0    0  0.12118928436E+02  0.57187295222E+01  0.17327197080E+01  0.13512017305E+02  0.51100000000E-03 0.  1.
        -12    1    3    3    0    0  0.30894498529E+01  0.19369879791E+00 -0.55628877636E+00  0.31451036264E+01  0.00000000000E+00 0.  1.
</event>
<event>
 7    1  0.1563903E-008  0.4614232E+02  0.7816164E-02  0.1320468E+00
        -11   -1    0    0    0    0  0.00000000000E+00  0.00000000000E+00  0.45593999997E+02  0.45594000000E+02  0.51100000000E-03 0.  1.
         11   -1    0    0    0    0 -0.00000000000E+00 -0.00000000000E+00 -0.45593999997E+02  0.45594000000E+02  0.51100000000E-03 0. -1.
    9900012    2    1    2    0    0 -0.20309432436E+02  0.37232277033E+02 -0.15178867031E+02  0.46142317596E+02  0.99999984905E+01 0.  0.
        -12    1    1    2    0    0  0.20309432436E+02 -0.37232277033E+02  0.15178867031E+02  0.45045682404E+02  0.00000000000E+00 0.  1.
         11    1    3    3    0    0 -0.72381061596E+01  0.88757974491E+01 -0.18994996341E+01  0.11609395344E+02  0.51100000000E-03 0. -1.
        -11    1    3    3    0    0 -0.72702428738E+01  0.22437583430E+02 -0.10061284782E+02  0.25642367936E+02  0.51100000000E-03 0.  1.
        -12    1    3    3    0    0 -0.58010834025E+01  0.59188961536E+01 -0.32180826152E+01  0.88905543155E+01  0.00000000000E+00 0.  1.
</event>
<event>
 7    1  0.1563903E-008  0.4614232E+02  0.7816164E-02  0.1320468E+00
        -11   -1    0    0    0    0  0.00000000000E+00  0.00000000000E+00  0.45593999997E+02  0.45594000000E+02  0.51100000000E-03 0.  1.
         11   -1    0    0    0    0 -0.00000000000E+00 -0.00000000000E+00 -0.45593999997E+02  0.45594000000E+02  0.51100000000E-03 0. -1.
    9900012    2    1    2    0    0 -0.12503779151E+02 -0.40493910994E+02 -0.15264736340E+02  0.46142317675E+02  0.99999992134E+01 0.  0.
        -12    1    1    2    0    0  0.12503779151E+02  0.40493910994E+02  0.15264736340E+02  0.45045682325E+02  0.00000000000E+00 0.  1.
         11    1    3    3    0    0  0.11362205553E+01 -0.28441126771E+01 -0.87965468960E+00  0.31864975607E+01  0.51100000000E-03 0. -1.
        -11    1    3    3    0    0 -0.11386970396E+02 -0.23129206083E+02 -0.90217304980E+01  0.27313273152E+02  0.51100000000E-03 0.  1.
        -12    1    3    3    0    0 -0.22530293101E+01 -0.14520592233E+02 -0.53633511523E+01  0.15642546962E+02  0.00000000000E+00 0.  1.
</event>
<event>
 7    1  0.1563903E-008  0.4614232E+02  0.7816164E-02  0.1320468E+00
        -11   -1    0    0    0    0  0.00000000000E+00  0.00000000000E+00  0.45593999997E+02  0.45594000000E+02  0.51100000000E-03 0.  1.
         11   -1    0    0    0    0 -0.00000000000E+00 -0.00000000000E+00 -0.45593999997E+02  0.45594000000E+02  0.51100000000E-03 0. -1.
    9900012    2    1    2    0    0  0.22853292796E+02 -0.38579873698E+02  0.42934584979E+01  0.46142318386E+02  0.10000005699E+02 0.  0.
        -12    1    1    2    0    0 -0.22853292796E+02  0.38579873698E+02 -0.42934584979E+01  0.45045681614E+02  0.00000000000E+00 0.  1.
         11    1    3    3    0    0 -0.54632852762E+00 -0.13773085318E+01 -0.89894008475E+00  0.17330744903E+01  0.51100000000E-03 0. -1.
        -11    1    3    3    0    0  0.37566710701E+01 -0.52250461633E+01  0.20279438515E+01  0.67473136479E+01  0.51100000000E-03 0.  1.
         12    1    3    3    0    0  0.19642950253E+02 -0.31977519003E+02  0.31644547311E+01  0.37661930248E+02  0.00000000000E+00 0. -1.
</event>
<event>
 7    1  0.1563903E-008  0.4614232E+02  0.7816164E-02  0.1320468E+00
        -11   -1    0    0    0    0  0.00000000000E+00  0.00000000000E+00  0.45593999997E+02  0.45594000000E+02  0.51100000000E-03 0. -1.
         11   -1    0    0    0    0 -0.00000000000E+00 -0.00000000000E+00 -0.45593999997E+02  0.45594000000E+02  0.51100000000E-03 0.  1.
    9900012    2    1    2    0    0  0.37351387832E+02  0.20242978728E+02  0.14973614481E+02  0.46142317728E+02  0.99999996965E+01 0.  0.
        -12    1    1    2    0    0 -0.37351387832E+02 -0.20242978728E+02 -0.14973614481E+02  0.45045682272E+02  0.00000000000E+00 0.  1.
         11    1    3    3    0    0  0.19730298011E+02  0.14841828486E+02  0.12004537183E+02  0.27453113587E+02  0.51100000000E-03 0. -1.
        -11    1    3    3    0    0  0.15085221001E+02  0.47608918699E+01  0.22595342916E+01  0.15979220241E+02  0.51100000000E-03 0.  1.
         12    1    3    3    0    0  0.25358688209E+01  0.64025837184E+00  0.70954300666E+00  0.27099838999E+01  0.00000000000E+00 0. -1.
</event>
<event>
 7    1  0.1563903E-008  0.4614232E+02  0.7816164E-02  0.1320468E+00
        -11   -1    0    0    0    0  0.00000000000E+00  0.00000000000E+00  0.45593999997E+02  0.45594000000E+02  0.51100000000E-03 0.  1.
         11   -1    0    0    0    0 -0.00000000000E+00 -0.00000000000E+00 -0.45593999997E+02  0.45594000000E+02  0.51100000000E-03 0. -1.
    9900012    2    1    2    0    0 -0.73312421970E+00 -0.44859823577E+02 -0.40214980098E+01  0.46142315537E+02  0.99999797168E+01 0.  0.
        -12    1    1    2    0    0  0.73312421970E+00  0.44859823577E+02  0.40214980098E+01  0.45045684463E+02  0.00000000000E+00 0.  1.
         11    1    3    3    0    0 -0.34495919701E+01 -0.15981995017E+02 -0.17225213038E+01  0.16440527041E+02  0.51100000000E-03 0. -1.
        -11    1    3    3    0    0  0.24866878067E+01 -0.24662320594E+02  0.21479813762E+00  0.24788299898E+02  0.51100000000E-03 0.  1.
        -12    1    3    3    0    0  0.22977994363E+00 -0.42155079670E+01 -0.25137748436E+01  0.49134885984E+01  0.00000000000E+00 0.  1.
</event>
<event>
 7    1  0.1563903E-008  0.4614232E+02  0.7816164E-02  0.1320468E+00
        -11   -1    0    0    0    0  0.00000000000E+00  0.00000000000E+00  0.45593999997E+02  0.45594000000E+02  0.51100000000E-03 0.  1.
         11   -1    0    0    0    0 -0.00000000000E+00 -0.00000000000E+00 -0.45593999997E+02  0.45594000000E+02  0.51100000000E-03 0. -1.
    9900012    2    1    2    0    0  0.29642224600E+02  0.19743505479E+02 -0.27579809796E+02  0.46142318784E+02  0.10000009329E+02 0.  0.
        -12    1    1    2    0    0 -0.29642224600E+02 -0.19743505479E+02  0.27579809796E+02  0.45045681216E+02  0.00000000000E+00 0.  1.
         11    1    3    3    0    0  0.25479972125E+02  0.15482957511E+02 -0.25771604822E+02  0.39409726821E+02  0.51100000000E-03 0. -1.
        -11    1    3    3    0    0  0.17829787083E+01  0.93592439153E+00  0.44818885776E+00  0.20629689901E+01  0.51100000000E-03 0.  1.
         12    1    3    3    0    0  0.23792737662E+01  0.33246235771E+01 -0.22563938318E+01  0.46696229728E+01  0.00000000000E+00 0. -1.
</event>
<event>
 7    1  0.1563903E-008  0.4614232E+02  0.7816164E-02  0.1320468E+00
        -11   -1    0    0    0    0  0.00000000000E+00  0.00000000000E+00  0.45593999997E+02  0.45594000000E+02  0.51100000000E-03 0.  1.
         11   -1    0    0    0    0 -0.00000000000E+00 -0.00000000000E+00 -0.45593999997E+02  0.45594000000E+02  0.51100000000E-03 0. -1.
    9900012    2    1    2    0    0  0.27728894437E+02  0.14850772441E+02 -0.32244012992E+02  0.46142318713E+02  0.10000008682E+02 0.  0.
        -12    1    1    2    0    0 -0.27728894437E+02 -0.14850772441E+02  0.32244012992E+02  0.45045681287E+02  0.00000000000E+00 0.  1.
         11    1    3    3    0    0  0.91242948686E+01  0.32597832157E+01 -0.11832497972E+02  0.15293363004E+02  0.51100000000E-03 0.  1.
        -11    1    3    3    0    0  0.16296295829E+02  0.66924469057E+01 -0.16774728809E+02  0.24325904510E+02  0.51100000000E-03 0. -1.
        -12    1    3    3    0    0  0.23083037393E+01  0.48985423192E+01 -0.36367862109E+01  0.65230511994E+01  0.00000000000E+00 0.  1.
</event>
<event>
 7    1  0.1563903E-008  0.4614232E+02  0.7816164E-02  0.1320468E+00
        -11   -1    0    0    0    0  0.00000000000E+00  0.00000000000E+00  0.45593999997E+02  0.45594000000E+02  0.51100000000E-03 0.  1.
         11   -1    0    0    0    0 -0.00000000000E+00 -0.00000000000E+00 -0.45593999997E+02  0.45594000000E+02  0.51100000000E-03 0. -1.
    9900012    2    1    2    0    0 -0.24035298274E+02 -0.35704579600E+02  0.13289127342E+02  0.46142317932E+02  0.10000001554E+02 0.  0.
        -12    1    1    2    0    0  0.24035298274E+02  0.35704579600E+02 -0.13289127342E+02  0.45045682068E+02  0.00000000000E+00 0.  1.
         11    1    3    3    0    0 -0.95453958551E+01 -0.17637433190E+02  0.88426457283E+01  0.21917710083E+02  0.51100000000E-03 0. -1.
        -11    1    3    3    0    0 -0.26508928189E+01 -0.65293980900E+01  0.29028072291E+01  0.76214540755E+01  0.51100000000E-03 0.  1.
        -12    1    3    3    0    0 -0.11839009600E+02 -0.11537748320E+02  0.15436743849E+01  0.16603153773E+02  0.00000000000E+00 0.  1.
</event>
<event>
 7    1  0.1563903E-008  0.4614232E+02  0.7816164E-02  0.1320468E+00
        -11   -1    0    0    0    0  0.00000000000E+00  0.00000000000E+00  0.45593999997E+02  0.45594000000E+02  0.51100000000E-03 0. -1.
         11   -1    0    0    0    0 -0.00000000000E+00 -0.00000000000E+00 -0.45593999997E+02  0.45594000000E+02  0.51100000000E-03 0.  1.
    9900012    2    1    2    0    0 -0.80189384801E+01  0.44244098910E+02  0.26962638788E+01  0.46142317614E+02  0.99999986572E+01 0.  0.
        -12    1    1    2    0    0  0.80189384801E+01 -0.44244098910E+02 -0.26962638788E+01  0.45045682386E+02  0.00000000000E+00 0.  1.
         11    1    3    3    0    0 -0.29747832754E+01  0.26989237457E+02  0.20741538684E+00  0.27153476674E+02  0.51100000000E-03 0. -1.
        -11    1    3    3    0    0 -0.26745574757E+01  0.10822789065E+02  0.42176749899E+01  0.11919513556E+02  0.51100000000E-03 0.  1.
        -12    1    3    3    0    0 -0.23695977290E+01  0.64320723879E+01 -0.17288264980E+01  0.70693273839E+01  0.00000000000E+00 0.  1.
</event>
<event>
 7    1  0.1563903E-008  0.4614232E+02  0.7816164E-02  0.1320468E+00
        -11   -1    0    0    0    0  0.00000000000E+00  0.00000000000E+00  0.45593999997E+02  0.45594000000E+02  0.51100000000E-03 0. -1.
         11   -1    0    0    0    0 -0.00000000000E+00 -0.00000000000E+00 -0.45593999997E+02  0.45594000000E+02  0.51100000000E-03 0.  1.
    9900012    2    1    2    0    0 -0.34479828054E+02  0.25593501727E+02  0.13609834595E+02  0.46142317954E+02  0.10000001759E+02 0.  0.
        -12    1    1    2    0    0  0.34479828054E+02 -0.25593501727E+02 -0.13609834595E+02  0.45045682046E+02  0.00000000000E+00 0.  1.
         11    1    3    3    0    0 -0.14201438490E+02  0.11375831885E+02  0.45944312129E+01  0.18766971111E+02  0.51100000000E-03 0. -1.
        -11    1    3    3    0    0 -0.34307449009E+01  0.36631139012E+00  0.34208340612E+01  0.48586315507E+01  0.51100000000E-03 0.  1.
        -12    1    3    3    0    0 -0.16847644663E+02  0.13851358452E+02  0.55945693208E+01  0.22516715292E+02  0.00000000000E+00 0.  1.
</event>
<event>
 7    1  0.1563903E-008  0.4614232E+02  0.7816164E-02  0.1320468E+00
        -11   -1    0    0    0    0  0.00000000000E+00  0.00000000000E+00  0.45593999997E+02  0.45594000000E+02  0.51100000000E-03 0.  1.
         11   -1    0    0    0    0 -0.00000000000E+00 -0.00000000000E+00 -0.45593999997E+02  0.45594000000E+02  0.51100000000E-03 0. -1.
    9900012    2    1    2    0    0  0.43049749814E+02  0.12932389100E+02 -0.29301724848E+01  0.46142316992E+02  0.99999929826E+01 0.  0.
        -12    1    1    2    0    0 -0.43049749814E+02 -0.12932389100E+02  0.29301724848E+01  0.45045683008E+02  0.00000000000E+00 0.  1.
         11    1    3    3    0    0  0.86504804646E+01  0.34938020399E+01 -0.21970417002E+01  0.95845947987E+01  0.51100000000E-03 0. -1.
        -11    1    3    3    0    0  0.11955705994E+02  0.26201995157E+01  0.34830086475E+01  0.12725395900E+02  0.51100000000E-03 0.  1.
        -12    1    3    3    0    0  0.22443563356E+02  0.68183875440E+01 -0.42161394322E+01  0.23832326293E+02  0.00000000000E+00 0.  1.
</event>
<event>
 7    1  0.1563903E-008  0.4614232E+02  0.7816164E-02  0.1320468E+00
        -11   -1    0    0    0    0  0.00000000000E+00  0.00000000000E+00  0.45593999997E+02  0.45594000000E+02  0.51100000000E-03 0.  1.
         11   -1    0    0    0    0 -0.00000000000E+00 -0.00000000000E+00 -0.45593999997E+02  0.45594000000E+02  0.51100000000E-03 0. -1.
    9900012    2    1    2    0    0  0.18966098472E+02 -0.23731168400E+02 -0.33260071390E+02  0.46142316591E+02  0.99999893346E+01 0.  0.
        -12    1    1    2    0    0 -0.18966098472E+02  0.23731168400E+02  0.33260071390E+02  0.45045683409E+02  0.00000000000E+00 0.  1.
         11    1    3    3    0    0  0.10521417157E+02 -0.67920793322E+01 -0.12750708337E+02  0.17872132610E+02  0.51100000000E-03 0. -1.
        -11    1    3    3    0    0  0.15480844807E+01 -0.42176248693E+01 -0.24135780675E+01  0.51000278869E+01  0.51100000000E-03 0.  1.
        -12    1    3    3    0    0  0.68965968343E+01 -0.12721464198E+02 -0.18095784985E+02  0.23170156095E+02  0.00000000000E+00 0.  1.
</event>
<event>
 7    1  0.1563903E-008  0.4614232E+02  0.7816164E-02  0.1320468E+00
        -11   -1    0    0    0    0  0.00000000000E+00  0.00000000000E+00  0.45593999997E+02  0.45594000000E+02  0.51100000000E-03 0.  1.
         11   -1    0    0    0    0 -0.00000000000E+00 -0.00000000000E+00 -0.45593999997E+02  0.45594000000E+02  0.51100000000E-03 0. -1.
    9900012    2    1    2    0    0  0.26440738103E+02 -0.32176482746E+02 -0.17166096218E+02  0.46142317269E+02  0.99999955128E+01 0.  0.
        -12    1    1    2    0    0 -0.26440738103E+02  0.32176482746E+02  0.17166096218E+02  0.45045682731E+02  0.00000000000E+00 0.  1.
         11    1    3    3    0    0  0.17444901680E+02 -0.24257353249E+02 -0.12241855015E+02  0.32289422350E+02  0.51100000000E-03 0. -1.
        -11    1    3    3    0    0  0.18419065078E+01  0.18650654074E+00 -0.18406399544E+01  0.26106244418E+01  0.51100000000E-03 0.  1.
         12    1    3    3    0    0  0.71539299160E+01 -0.81056360375E+01 -0.30836012489E+01  0.11242270477E+02  0.00000000000E+00 0. -1.
</event>
<event>
 7    1  0.1563903E-008  0.4614231E+02  0.7816164E-02  0.1320468E+00
        -11   -1    0    0    0    0  0.00000000000E+00  0.00000000000E+00  0.45593999997E+02  0.45594000000E+02  0.51100000000E-03 0. -1.
         11   -1    0    0    0    0 -0.00000000000E+00 -0.00000000000E+00 -0.45593999997E+02  0.45594000000E+02  0.51100000000E-03 0.  1.
    9900012    2    1    2    0    0 -0.33898826540E+02 -0.25319201576E+02 -0.15457088785E+02  0.46142312049E+02  0.99999479117E+01 0.  0.
        -12    1    1    2    0    0  0.33898826540E+02  0.25319201576E+02  0.15457088785E+02  0.45045687951E+02  0.00000000000E+00 0.  1.
         11    1    3    3    0    0 -0.31237754129E+02 -0.21237511444E+02 -0.11462188310E+02  0.39474180631E+02  0.51100000000E-03 0. -1.
        -11    1    3    3    0    0 -0.25722378944E+01 -0.43415392465E+01 -0.38994964009E+01  0.63774166600E+01  0.51100000000E-03 0.  1.
        -12    1    3    3    0    0 -0.88834517163E-01  0.25984911385E+00 -0.95404073515E-01  0.29071475822E+00  0.00000000000E+00 0.  1.
</event>
<event>
 7    1  0.1563903E-008  0.4614232E+02  0.7816164E-02  0.1320468E+00
        -11   -1    0    0    0    0  0.00000000000E+00  0.00000000000E+00  0.45593999997E+02  0.45594000000E+02  0.51100000000E-03 0.  1.
         11   -1    0    0    0    0 -0.00000000000E+00 -0.00000000000E+00 -0.45593999997E+02  0.45594000000E+02  0.51100000000E-03 0. -1.
    9900012    2    1    2    0    0 -0.39094244523E+02  0.16781433860E+02 -0.14803277661E+02  0.46142317557E+02  0.99999981427E+01 0.  0.
        -12    1    1    2    0    0  0.39094244523E+02 -0.16781433860E+02  0.14803277661E+02  0.45045682443E+02  0.00000000000E+00 0.  1.
         11    1    3    3    0    0 -0.14701980827E+02  0.86246633949E+01 -0.51802842907E+01  0.17814836640E+02  0.51100000000E-03 0. -1.
        -11    1    3    3    0    0 -0.37344678263E+01  0.65341197527E+00  0.99375693956E+00  0.39192793050E+01  0.51100000000E-03 0.  1.
        -12    1    3    3    0    0 -0.20657795870E+02  0.75033584895E+01 -0.10616750309E+02  0.24408201612E+02  0.00000000000E+00 0.  1.
</event>
<event>
 7    1  0.1563903E-008  0.4614232E+02  0.7816164E-02  0.1320468E+00
        -11   -1    0    0    0    0  0.00000000000E+00  0.00000000000E+00  0.45593999997E+02  0.45594000000E+02  0.51100000000E-03 0.  1.
         11   -1    0    0    0    0 -0.00000000000E+00 -0.00000000000E+00 -0.45593999997E+02  0.45594000000E+02  0.51100000000E-03 0. -1.
    9900012    2    1    2    0    0  0.20773474171E+02 -0.16335201973E+02 -0.36479270511E+02  0.46142320633E+02  0.10000026188E+02 0.  0.
        -12    1    1    2    0    0 -0.20773474171E+02  0.16335201973E+02  0.36479270511E+02  0.45045679367E+02  0.00000000000E+00 0.  1.
         11    1    3    3    0    0  0.10920108775E+02 -0.11403282049E+02 -0.28179990417E+02  0.32301632734E+02  0.51100000000E-03 0. -1.
        -11    1    3    3    0    0  0.46313996998E+01 -0.17705390749E+01 -0.33780573263E+01  0.59996619368E+01  0.51100000000E-03 0.  1.
         12    1    3    3    0    0  0.52219656963E+01 -0.31613808491E+01 -0.49212227675E+01  0.78410259618E+01  0.00000000000E+00 0. -1.
</event>
<event>
 7    1  0.1563903E-008  0.4614232E+02  0.7816164E-02  0.1320468E+00
        -11   -1    0    0    0    0  0.00000000000E+00  0.00000000000E+00  0.45593999997E+02  0.45594000000E+02  0.51100000000E-03 0.  1.
         11   -1    0    0    0    0 -0.00000000000E+00 -0.00000000000E+00 -0.45593999997E+02  0.45594000000E+02  0.51100000000E-03 0. -1.
    9900012    2    1    2    0    0  0.11569720114E+02 -0.21235412563E+02 -0.38004110184E+02  0.46142316954E+02  0.99999926362E+01 0.  0.
        -12    1    1    2    0    0 -0.11569720114E+02  0.21235412563E+02  0.38004110184E+02  0.45045683046E+02  0.00000000000E+00 0.  1.
         11    1    3    3    0    0  0.57250805110E+01 -0.15850047559E+02 -0.21241053198E+02  0.27114256318E+02  0.51100000000E-03 0.  1.
        -11    1    3    3    0    0  0.37568040837E+01 -0.22157640633E+01 -0.48390242756E+01  0.65145486036E+01  0.51100000000E-03 0. -1.
        -12    1    3    3    0    0  0.20878355197E+01 -0.31696009402E+01 -0.11924032711E+02  0.12513512032E+02  0.00000000000E+00 0.  1.
</event>
<event>
 7    1  0.1563903E-008  0.4614232E+02  0.7816164E-02  0.1320468E+00
        -11   -1    0    0    0    0  0.00000000000E+00  0.00000000000E+00  0.45593999997E+02  0.45594000000E+02  0.51100000000E-03 0.  1.
         11   -1    0    0    0    0 -0.00000000000E+00 -0.00000000000E+00 -0.45593999997E+02  0.45594000000E+02  0.51100000000E-03 0. -1.
    9900012    2    1    2    0    0  0.15268900487E+02  0.31600115702E+02 -0.28238392336E+02  0.46142318341E+02  0.10000005284E+02 0.  0.
        -12    1    1    2    0    0 -0.15268900487E+02 -0.31600115702E+02  0.28238392336E+02  0.45045681659E+02  0.00000000000E+00 0.  1.
         11    1    3    3    0    0  0.77609134340E+01  0.15446364132E+02 -0.12040492942E+02  0.21066452306E+02  0.51100000000E-03 0. -1.
        -11    1    3    3    0    0  0.31159696955E+01  0.88398447228E+00 -0.23847272048E+01  0.40221411950E+01  0.51100000000E-03 0.  1.
        -12    1    3    3    0    0  0.43920173577E+01  0.15269767097E+02 -0.13813172189E+02  0.21053724839E+02  0.00000000000E+00 0.  1.
</event>
<event>
 7    1  0.1563903E-008  0.4614232E+02  0.7816164E-02  0.1320468E+00
        -11   -1    0    0    0    0  0.00000000000E+00  0.00000000000E+00  0.45593999997E+02  0.45594000000E+02  0.51100000000E-03 0. -1.
         11   -1    0    0    0    0 -0.00000000000E+00 -0.00000000000E+00 -0.45593999997E+02  0.45594000000E+02  0.51100000000E-03 0.  1.
    9900012    2    1    2    0    0 -0.36159489380E+02  0.22516200822E+02  0.14650101576E+02  0.46142318211E+02  0.10000004101E+02 0.  0.
        -12    1    1    2    0    0  0.36159489380E+02 -0.22516200822E+02 -0.14650101576E+02  0.45045681789E+02  0.00000000000E+00 0.  1.
         11    1    3    3    0    0 -0.17519130246E+02  0.12282683685E+02  0.54521219736E+01  0.22079625843E+02  0.51100000000E-03 0. -1.
        -11    1    3    3    0    0 -0.12327848539E-01 -0.45789500601E+00 -0.33150992590E+00  0.56543691466E+00  0.51100000000E-03 0.  1.
         12    1    3    3    0    0 -0.18628031285E+02  0.10691412143E+02  0.95294895281E+01  0.23497255453E+02  0.00000000000E+00 0. -1.
</event>
<event>
 7    1  0.1563903E-008  0.4614232E+02  0.7816164E-02  0.1320468E+00
        -11   -1    0    0    0    0  0.00000000000E+00  0.00000000000E+00  0.45593999997E+02  0.45594000000E+02  0.51100000000E-03 0.  1.
         11   -1    0    0    0    0 -0.00000000000E+00 -0.00000000000E+00 -0.45593999997E+02  0.45594000000E+02  0.51100000000E-03 0. -1.
    9900012    2    1    2    0    0  0.34633471597E+02 -0.23902011392E+02 -0.16072652214E+02  0.46142315938E+02  0.99999833737E+01 0.  0.
        -12    1    1    2    0    0 -0.34633471597E+02  0.23902011392E+02  0.16072652214E+02  0.45045684062E+02  0.00000000000E+00 0.  1.
         11    1    3    3    0    0  0.20309896670E+01 -0.46913965765E+01 -0.75602114208E+00  0.51677547440E+01  0.51100000000E-03 0.  1.
        -11    1    3    3    0    0  0.11669327181E+02 -0.50385577504E+01 -0.56548527308E+01  0.13911779927E+02  0.51100000000E-03 0. -1.
         12    1    3    3    0    0  0.20933154749E+02 -0.14172057065E+02 -0.96617783407E+01  0.27062781267E+02  0.00000000000E+00 0. -1.
</event>
<event>
 7    1  0.1563903E-008  0.4614232E+02  0.7816164E-02  0.1320468E+00
        -11   -1    0    0    0    0  0.00000000000E+00  0.00000000000E+00  0.45593999997E+02  0.45594000000E+02  0.51100000000E-03 0.  1.
         11   -1    0    0    0    0 -0.00000000000E+00 -0.00000000000E+00 -0.45593999997E+02  0.45594000000E+02  0.51100000000E-03 0. -1.
    9900012    2    1    2    0    0 -0.76901882020E+01 -0.29019649066E+02 -0.33583244670E+02  0.46142319308E+02  0.10000014102E+02 0.  0.
        -12    1    1    2    0    0  0.76901882020E+01  0.29019649066E+02  0.33583244670E+02  0.45045680692E+02  0.00000000000E+00 0.  1.
         11    1    3    3    0    0 -0.37524554318E+01 -0.13093878414E+02 -0.10274537113E+02  0.17061555815E+02  0.51100000000E-03 0. -1.
        -11    1    3    3    0    0 -0.18087950218E+01 -0.62397977769E+00 -0.31045998787E+01  0.36468658958E+01  0.51100000000E-03 0.  1.
        -12    1    3    3    0    0 -0.21289377485E+01 -0.15301790875E+02 -0.20204107678E+02  0.25433897597E+02  0.00000000000E+00 0.  1.
</event>
<event>
 7    1  0.1563903E-008  0.4614232E+02  0.7816164E-02  0.1320468E+00
        -11   -1    0    0    0    0  0.00000000000E+00  0.00000000000E+00  0.45593999997E+02  0.45594000000E+02  0.51100000000E-03 0. -1.
         11   -1    0    0    0    0 -0.00000000000E+00 -0.00000000000E+00 -0.45593999997E+02  0.45594000000E+02  0.51100000000E-03 0.  1.
    9900012    2    1    2    0    0  0.29096847702E+02 -0.32664690360E+02  0.10747323143E+02  0.46142317663E+02  0.99999991024E+01 0.  0.
        -12    1    1    2    0    0 -0.29096847702E+02  0.32664690360E+02 -0.10747323143E+02  0.45045682337E+02  0.00000000000E+00 0.  1.
         11    1    3    3    0    0  0.12788232744E+02 -0.18665562896E+02  0.62414325791E+01  0.23471208232E+02  0.51100000000E-03 0. -1.
        -11    1    3    3    0    0  0.15011903141E+02 -0.10503752935E+02  0.47735013821E+01  0.18933366773E+02  0.51100000000E-03 0.  1.
        -12    1    3    3    0    0  0.12967118162E+01 -0.34953745284E+01 -0.26761081795E+00  0.37377426581E+01  0.00000000000E+00 0.  1.
</event>
<event>
 7    1  0.1563903E-008  0.4614232E+02  0.7816164E-02  0.1320468E+00
        -11   -1    0    0    0    0  0.00000000000E+00  0.00000000000E+00  0.45593999997E+02  0.45594000000E+02  0.51100000000E-03 0.  1.
         11   -1    0    0    0    0 -0.00000000000E+00 -0.00000000000E+00 -0.45593999997E+02  0.45594000000E+02  0.51100000000E-03 0. -1.
    9900012    2    1    2    0    0  0.16689551910E+02 -0.31549444755E+02 -0.27480990284E+02  0.46142318361E+02  0.10000005470E+02 0.  0.
        -12    1    1    2    0    0 -0.16689551910E+02  0.31549444755E+02  0.27480990284E+02  0.45045681639E+02  0.00000000000E+00 0.  1.
         11    1    3    3    0    0  0.38370551569E+01 -0.17615488444E+01 -0.14115889504E+01  0.44518120169E+01  0.51100000000E-03 0. -1.
        -11    1    3    3    0    0  0.68282948423E+01 -0.18004463332E+02 -0.16514924631E+02  0.25367874293E+02  0.51100000000E-03 0.  1.
         12    1    3    3    0    0  0.60242019112E+01 -0.11783432579E+02 -0.95544767031E+01  0.16322632051E+02  0.00000000000E+00 0. -1.
</event>
<event>
 7    1  0.1563903E-008  0.4614231E+02  0.7816164E-02  0.1320468E+00
        -11   -1    0    0    0    0  0.00000000000E+00  0.00000000000E+00  0.45593999997E+02  0.45594000000E+02  0.51100000000E-03 0.  1.
         11   -1    0    0    0    0 -0.00000000000E+00 -0.00000000000E+00 -0.45593999997E+02  0.45594000000E+02  0.51100000000E-03 0. -1.
    9900012    2    1    2    0    0  0.91812364846E+00 -0.42393586647E+02  0.15200498306E+02  0.46142308878E+02  0.99999190003E+01 0.  0.
        -12    1    1    2    0    0 -0.91812364846E+00  0.42393586647E+02 -0.15200498306E+02  0.45045691122E+02  0.00000000000E+00 0.  1.
         11    1    3    3    0    0 -0.17438213509E+01 -0.17240940220E+02  0.34240069914E+01  0.17663939445E+02  0.51100000000E-03 0. -1.
        -11    1    3    3    0    0  0.73398826022E+00 -0.84838396302E+01  0.70234478660E+01  0.11038255923E+02  0.51100000000E-03 0.  1.
        -12    1    3    3    0    0  0.19279567392E+01 -0.16668806797E+02  0.47530434485E+01  0.17440113510E+02  0.00000000000E+00 0.  1.
</event>
<event>
 7    1  0.1563903E-008  0.4614232E+02  0.7816164E-02  0.1320468E+00
        -11   -1    0    0    0    0  0.00000000000E+00  0.00000000000E+00  0.45593999997E+02  0.45594000000E+02  0.51100000000E-03 0.  1.
         11   -1    0    0    0    0 -0.00000000000E+00 -0.00000000000E+00 -0.45593999997E+02  0.45594000000E+02  0.51100000000E-03 0. -1.
    9900012    2    1    2    0    0 -0.33372100026E+02  0.13555501300E+02 -0.27049303772E+02  0.46142317519E+02  0.99999977921E+01 0.  0.
        -12    1    1    2    0    0  0.33372100026E+02 -0.13555501300E+02  0.27049303772E+02  0.45045682481E+02  0.00000000000E+00 0.  1.
         11    1    3    3    0    0 -0.97751438600E+01  0.68553493367E+01 -0.47559623458E+01  0.12851787039E+02  0.51100000000E-03 0. -1.
        -11    1    3    3    0    0 -0.11166695669E+02  0.44392292870E+01 -0.12145684907E+02  0.17085652196E+02  0.51100000000E-03 0.  1.
         12    1    3    3    0    0 -0.12430260497E+02  0.22609226765E+01 -0.10147656519E+02  0.16204878284E+02  0.00000000000E+00 0. -1.
</event>
<event>
 7    1  0.1563903E-008  0.4614232E+02  0.7816164E-02  0.1320468E+00
        -11   -1    0    0    0    0  0.00000000000E+00  0.00000000000E+00  0.45593999997E+02  0.45594000000E+02  0.51100000000E-03 0. -1.
         11   -1    0    0    0    0 -0.00000000000E+00 -0.00000000000E+00 -0.45593999997E+02  0.45594000000E+02  0.51100000000E-03 0.  1.
    9900012    2    1    2    0    0  0.11276551735E+02 -0.42951280575E+02  0.75591220278E+01  0.46142318211E+02  0.10000004100E+02 0.  0.
        -12    1    1    2    0    0 -0.11276551735E+02  0.42951280575E+02 -0.75591220278E+01  0.45045681789E+02  0.00000000000E+00 0.  1.
         11    1    3    3    0    0  0.73603348750E+01 -0.24114620235E+02  0.92538159780E+00  0.25229858698E+02  0.51100000000E-03 0. -1.
        -11    1    3    3    0    0 -0.99061028717E-01 -0.96594083913E+01  0.45632962795E+01  0.10683522675E+02  0.51100000000E-03 0.  1.
        -12    1    3    3    0    0  0.40152778886E+01 -0.91772519486E+01  0.20704441505E+01  0.10228936838E+02  0.00000000000E+00 0.  1.
</event>
<event>
 7    1  0.1563903E-008  0.4614232E+02  0.7816164E-02  0.1320468E+00
        -11   -1    0    0    0    0  0.00000000000E+00  0.00000000000E+00  0.45593999997E+02  0.45594000000E+02  0.51100000000E-03 0.  1.
         11   -1    0    0    0    0 -0.00000000000E+00 -0.00000000000E+00 -0.45593999997E+02  0.45594000000E+02  0.51100000000E-03 0. -1.
    9900012    2    1    2    0    0  0.60228757525E+01  0.32454862600E+02 -0.30651593755E+02  0.46142319425E+02  0.10000015175E+02 0.  0.
        -12    1    1    2    0    0 -0.60228757525E+01 -0.32454862600E+02  0.30651593755E+02  0.45045680575E+02  0.00000000000E+00 0.  1.
         11    1    3    3    0    0  0.63800937638E+01  0.17230912100E+02 -0.16811969988E+02  0.24904864252E+02  0.51100000000E-03 0. -1.
        -11    1    3    3    0    0  0.25831479399E+00  0.54793789007E+01 -0.18808959388E+01  0.57989731387E+01  0.51100000000E-03 0.  1.
         12    1    3    3    0    0 -0.61553280527E+00  0.97445715994E+01 -0.11958727828E+02  0.15438482035E+02  0.00000000000E+00 0. -1.
</event>
<event>
 7    1  0.1563903E-008  0.4614232E+02  0.7816164E-02  0.1320468E+00
        -11   -1    0    0    0    0  0.00000000000E+00  0.00000000000E+00  0.45593999997E+02  0.45594000000E+02  0.51100000000E-03 0. -1.
         11   -1    0    0    0    0 -0.00000000000E+00 -0.00000000000E+00 -0.45593999997E+02  0.45594000000E+02  0.51100000000E-03 0.  1.
    9900012    2    1    2    0    0  0.29921131862E+02 -0.22491764582E+02  0.25059127478E+02  0.46142317900E+02  0.10000001264E+02 0.  0.
        -12    1    1    2    0    0 -0.29921131862E+02  0.22491764582E+02 -0.25059127478E+02  0.45045682100E+02  0.00000000000E+00 0.  1.
         11    1    3    3    0    0  0.15486990729E+02 -0.10161630287E+02  0.15201727765E+02  0.23962431830E+02  0.51100000000E-03 0. -1.
        -11    1    3    3    0    0  0.67449325099E+01 -0.95478950566E+01  0.56473330422E+01  0.12982633990E+02  0.51100000000E-03 0.  1.
         12    1    3    3    0    0  0.76892086231E+01 -0.27822392381E+01  0.42100666714E+01  0.91972520790E+01  0.00000000000E+00 0. -1.
</event>
<event>
 7    1  0.1563903E-008  0.4614231E+02  0.7816164E-02  0.1320468E+00
        -11   -1    0    0    0    0  0.00000000000E+00  0.00000000000E+00  0.45593999997E+02  0.45594000000E+02  0.51100000000E-03 0.  1.
         11   -1    0    0    0    0 -0.00000000000E+00 -0.00000000000E+00 -0.45593999997E+02  0.45594000000E+02  0.51100000000E-03 0. -1.
    9900012    2    1    2    0    0  0.18598238347E+02 -0.91795716661E+01 -0.39986932734E+02  0.46142314357E+02  0.99999689556E+01 0.  0.
        -12    1    1    2    0    0 -0.18598238347E+02  0.91795716661E+01  0.39986932734E+02  0.45045685643E+02  0.00000000000E+00 0.  1.
         11    1    3    3    0    0  0.14703601859E+02 -0.84540948174E+01 -0.26095379323E+02  0.31122924815E+02  0.51100000000E-03 0. -1.
        -11    1    3    3    0    0  0.20105828040E+01  0.16889083648E+01 -0.57610317448E+01  0.63312196062E+01  0.51100000000E-03 0.  1.
         12    1    3    3    0    0  0.18840536833E+01 -0.24143852135E+01 -0.81305216671E+01  0.86881699350E+01  0.00000000000E+00 0. -1.
</event>
<event>
 7    1  0.1563903E-008  0.4614232E+02  0.7816164E-02  0.1320468E+00
        -11   -1    0    0    0    0  0.00000000000E+00  0.00000000000E+00  0.45593999997E+02  0.45594000000E+02  0.51100000000E-03 0. -1.
         11   -1    0    0    0    0 -0.00000000000E+00 -0.00000000000E+00 -0.45593999997E+02  0.45594000000E+02  0.51100000000E-03 0.  1.
    9900012    2    1    2    0    0 -0.18044846615E+02 -0.39592912899E+02  0.11657542928E+02  0.46142317095E+02  0.99999939285E+01 0.  0.
        -12    1    1    2    0    0  0.18044846615E+02  0.39592912899E+02 -0.11657542928E+02  0.45045682905E+02  0.00000000000E+00 0.  1.
         11    1    3    3    0    0 -0.56180371629E+01 -0.19127763544E+02  0.16752922358E+01  0.20006006200E+02  0.51100000000E-03 0. -1.
        -11    1    3    3    0    0 -0.15602909484E+01 -0.50906519134E+01  0.23868090261E+01  0.58349037983E+01  0.51100000000E-03 0.  1.
         12    1    3    3    0    0 -0.10866518504E+02 -0.15374497442E+02  0.75954416666E+01  0.20301407097E+02  0.00000000000E+00 0. -1.
</event>
<event>
 7    1  0.1563903E-008  0.4614232E+02  0.7816164E-02  0.1320468E+00
        -11   -1    0    0    0    0  0.00000000000E+00  0.00000000000E+00  0.45593999997E+02  0.45594000000E+02  0.51100000000E-03 0.  1.
         11   -1    0    0    0    0 -0.00000000000E+00 -0.00000000000E+00 -0.45593999997E+02  0.45594000000E+02  0.51100000000E-03 0. -1.
    9900012    2    1    2    0    0  0.12859939387E+02 -0.11157643070E+02 -0.41704221218E+02  0.46142321991E+02  0.10000038571E+02 0.  0.
        -12    1    1    2    0    0 -0.12859939387E+02  0.11157643070E+02  0.41704221218E+02  0.45045678009E+02  0.00000000000E+00 0.  1.
         11    1    3    3    0    0  0.23463863787E+01 -0.61689244411E+01 -0.92100135174E+01  0.11330732856E+02  0.51100000000E-03 0. -1.
        -11    1    3    3    0    0  0.31852649833E+01 -0.86676818341E+00 -0.15543250480E+02  0.15889928756E+02  0.51100000000E-03 0.  1.
         12    1    3    3    0    0  0.73282880249E+01 -0.41219504455E+01 -0.16950957220E+02  0.18921660380E+02  0.00000000000E+00 0. -1.
</event>
<event>
 7    1  0.1563903E-008  0.4614232E+02  0.7816164E-02  0.1320468E+00
        -11   -1    0    0    0    0  0.00000000000E+00  0.00000000000E+00  0.45593999997E+02  0.45594000000E+02  0.51100000000E-03 0.  1.
         11   -1    0    0    0    0 -0.00000000000E+00 -0.00000000000E+00 -0.45593999997E+02  0.45594000000E+02  0.51100000000E-03 0. -1.
    9900012    2    1    2    0    0  0.34656304313E+02 -0.11393347727E+02 -0.26424338546E+02  0.46142317980E+02  0.10000001992E+02 0.  0.
        -12    1    1    2    0    0 -0.34656304313E+02  0.11393347727E+02  0.26424338546E+02  0.45045682020E+02  0.00000000000E+00 0.  1.
         11    1    3    3    0    0  0.94483223465E+01 -0.21296325227E+01 -0.36254750001E+01  0.10341672934E+02  0.51100000000E-03 0. -1.
        -11    1    3    3    0    0  0.75082966202E+01 -0.23739140111E+01 -0.10684131138E+02  0.13272552290E+02  0.51100000000E-03 0.  1.
        -12    1    3    3    0    0  0.17699685346E+02 -0.68898011929E+01 -0.12114732408E+02  0.22528092755E+02  0.00000000000E+00 0.  1.
</event>
<event>
 7    1  0.1563903E-008  0.4614232E+02  0.7816164E-02  0.1320468E+00
        -11   -1    0    0    0    0  0.00000000000E+00  0.00000000000E+00  0.45593999997E+02  0.45594000000E+02  0.51100000000E-03 0.  1.
         11   -1    0    0    0    0 -0.00000000000E+00 -0.00000000000E+00 -0.45593999997E+02  0.45594000000E+02  0.51100000000E-03 0. -1.
    9900012    2    1    2    0    0 -0.41984100839E+01 -0.43908690461E+02 -0.91385899087E+01  0.46142316847E+02  0.99999916613E+01 0.  0.
        -12    1    1    2    0    0  0.41984100839E+01  0.43908690461E+02  0.91385899087E+01  0.45045683153E+02  0.00000000000E+00 0.  1.
         11    1    3    3    0    0 -0.25794622083E+01 -0.12227168580E+02 -0.61143974884E+01  0.13911978065E+02  0.51100000000E-03 0. -1.
        -11    1    3    3    0    0  0.10791377909E+01 -0.21909813359E+02 -0.25170330881E+01  0.22080306059E+02  0.51100000000E-03 0.  1.
        -12    1    3    3    0    0 -0.26980856665E+01 -0.97717085212E+01 -0.50715933210E+00  0.10150032723E+02  0.00000000000E+00 0.  1.
</event>
<event>
 7    1  0.1563903E-008  0.4614232E+02  0.7816164E-02  0.1320468E+00
        -11   -1    0    0    0    0  0.00000000000E+00  0.00000000000E+00  0.45593999997E+02  0.45594000000E+02  0.51100000000E-03 0. -1.
         11   -1    0    0    0    0 -0.00000000000E+00 -0.00000000000E+00 -0.45593999997E+02  0.45594000000E+02  0.51100000000E-03 0.  1.
    9900012    2    1    2    0    0 -0.18848286387E+01 -0.42605010837E+02  0.14504263491E+02  0.46142321108E+02  0.10000030523E+02 0.  0.
        -12    1    1    2    0    0  0.18848286387E+01  0.42605010837E+02 -0.14504263491E+02  0.45045678892E+02  0.00000000000E+00 0.  1.
         11    1    3    3    0    0  0.31896730868E+01 -0.21260598921E+02  0.77856978289E+01  0.22864911367E+02  0.51100000000E-03 0.  1.
        -11    1    3    3    0    0 -0.35661604793E+01 -0.78551322872E+01  0.36163368867E+01  0.93540631040E+01  0.51100000000E-03 0. -1.
         12    1    3    3    0    0 -0.15083412462E+01 -0.13489279628E+02  0.31022287751E+01  0.13923346637E+02  0.00000000000E+00 0. -1.
</event>
<event>
 7    1  0.1563903E-008  0.4614232E+02  0.7816164E-02  0.1320468E+00
        -11   -1    0    0    0    0  0.00000000000E+00  0.00000000000E+00  0.45593999997E+02  0.45594000000E+02  0.51100000000E-03 0.  1.
         11   -1    0    0    0    0 -0.00000000000E+00 -0.00000000000E+00 -0.45593999997E+02  0.45594000000E+02  0.51100000000E-03 0. -1.
    9900012    2    1    2    0    0  0.12938863757E+02  0.35388657537E+02 -0.24684855082E+02  0.46142319319E+02  0.10000014207E+02 0.  0.
        -12    1    1    2    0    0 -0.12938863757E+02 -0.35388657537E+02  0.24684855082E+02  0.45045680681E+02  0.00000000000E+00 0.  1.
         11    1    3    3    0    0  0.64876814805E+01  0.74388853111E+01 -0.73530245309E+01  0.12308289714E+02  0.51100000000E-03 0.  1.
        -11    1    3    3    0    0  0.66925987101E+00  0.11774150355E+02 -0.57823047784E+01  0.13134442286E+02  0.51100000000E-03 0. -1.
         12    1    3    3    0    0  0.57819224051E+01  0.16175621871E+02 -0.11549525772E+02  0.20699587319E+02  0.00000000000E+00 0. -1.
</event>
<event>
 7    1  0.1563903E-008  0.4614232E+02  0.7816164E-02  0.1320468E+00
        -11   -1    0    0    0    0  0.00000000000E+00  0.00000000000E+00  0.45593999997E+02  0.45594000000E+02  0.51100000000E-03 0.  1.
         11   -1    0    0    0    0 -0.00000000000E+00 -0.00000000000E+00 -0.45593999997E+02  0.45594000000E+02  0.51100000000E-03 0. -1.
    9900012    2    1    2    0    0  0.19619299107E+02 -0.58992447829E+01 -0.40117272667E+02  0.46142317047E+02  0.99999934884E+01 0.  0.
        -12    1    1    2    0    0 -0.19619299107E+02  0.58992447829E+01  0.40117272667E+02  0.45045682953E+02  0.00000000000E+00 0.  1.
         11    1    3    3    0    0  0.75949208466E+01 -0.60469854216E+01 -0.12346317850E+02  0.15706063162E+02  0.51100000000E-03 0. -1.
        -11    1    3    3    0    0  0.11326270569E+02 -0.65327503955E+00 -0.26056754204E+02  0.28419458355E+02  0.51100000000E-03 0.  1.
        -12    1    3    3    0    0  0.69810769100E+00  0.80101567823E+00 -0.17142006139E+01  0.20167955300E+01  0.00000000000E+00 0.  1.
</event>
<event>
 7    1  0.1563903E-008  0.4614232E+02  0.7816164E-02  0.1320468E+00
        -11   -1    0    0    0    0  0.00000000000E+00  0.00000000000E+00  0.45593999997E+02  0.45594000000E+02  0.51100000000E-03 0.  1.
         11   -1    0    0    0    0 -0.00000000000E+00 -0.00000000000E+00 -0.45593999997E+02  0.45594000000E+02  0.51100000000E-03 0. -1.
    9900012    2    1    2    0    0 -0.17346708965E+02  0.26374332328E+02 -0.32134088244E+02  0.46142319354E+02  0.10000014521E+02 0.  0.
        -12    1    1    2    0    0  0.17346708965E+02 -0.26374332328E+02  0.32134088244E+02  0.45045680646E+02  0.00000000000E+00 0.  1.
         11    1    3    3    0    0 -0.45812173623E+01  0.87807227860E+01 -0.15824213134E+02  0.18668003823E+02  0.51100000000E-03 0. -1.
        -11    1    3    3    0    0 -0.10318095269E+02  0.16404826376E+02 -0.14044541115E+02  0.23933878787E+02  0.51100000000E-03 0.  1.
        -12    1    3    3    0    0 -0.24473963330E+01  0.11887831662E+01 -0.22653339949E+01  0.35404367436E+01  0.00000000000E+00 0.  1.
</event>
<event>
 7    1  0.1563903E-008  0.4614232E+02  0.7816164E-02  0.1320468E+00
        -11   -1    0    0    0    0  0.00000000000E+00  0.00000000000E+00  0.45593999997E+02  0.45594000000E+02  0.51100000000E-03 0.  1.
         11   -1    0    0    0    0 -0.00000000000E+00 -0.00000000000E+00 -0.45593999997E+02  0.45594000000E+02  0.51100000000E-03 0. -1.
    9900012    2    1    2    0    0 -0.15485073143E+02 -0.35080599359E+02 -0.23636360693E+02  0.46142317760E+02  0.99999999864E+01 0.  0.
        -12    1    1    2    0    0  0.15485073143E+02  0.35080599359E+02  0.23636360693E+02  0.45045682240E+02  0.00000000000E+00 0.  1.
         11    1    3    3    0    0 -0.52395302344E+01 -0.14242248961E+02 -0.93704875651E+01  0.17835368514E+02  0.51100000000E-03 0. -1.
        -11    1    3    3    0    0 -0.90658290333E+01 -0.14078016463E+02 -0.65479458562E+01  0.17979304736E+02  0.51100000000E-03 0.  1.
        -12    1    3    3    0    0 -0.11797138754E+01 -0.67603339353E+01 -0.77179272722E+01  0.10327644510E+02  0.00000000000E+00 0.  1.
</event>
<event>
 7    1  0.1563903E-008  0.4614233E+02  0.7816164E-02  0.1320468E+00
        -11   -1    0    0    0    0  0.00000000000E+00  0.00000000000E+00  0.45593999997E+02  0.45594000000E+02  0.51100000000E-03 0.  1.
         11   -1    0    0    0    0 -0.00000000000E+00 -0.00000000000E+00 -0.45593999997E+02  0.45594000000E+02  0.51100000000E-03 0. -1.
    9900012    2    1    2    0    0  0.36873645752E+01  0.40759541787E+02 -0.18819559969E+02  0.46142326050E+02  0.10000075582E+02 0.  0.
        -12    1    1    2    0    0 -0.36873645752E+01 -0.40759541787E+02  0.18819559969E+02  0.45045673950E+02  0.00000000000E+00 0.  1.
         11    1    3    3    0    0  0.22495188589E+01  0.37456520917E+01 -0.38075081314E+01  0.57954605616E+01  0.51100000000E-03 0. -1.
        -11    1    3    3    0    0  0.42927824343E+00  0.51826922131E+01 -0.15013521648E+00  0.52026069648E+01  0.51100000000E-03 0.  1.
         12    1    3    3    0    0  0.10085674729E+01  0.31831197482E+02 -0.14861916621E+02  0.35144258523E+02  0.00000000000E+00 0. -1.
</event>
<event>
 7    1  0.1563903E-008  0.4614232E+02  0.7816164E-02  0.1320468E+00
        -11   -1    0    0    0    0  0.00000000000E+00  0.00000000000E+00  0.45593999997E+02  0.45594000000E+02  0.51100000000E-03 0.  1.
         11   -1    0    0    0    0 -0.00000000000E+00 -0.00000000000E+00 -0.45593999997E+02  0.45594000000E+02  0.51100000000E-03 0. -1.
    9900012    2    1    2    0    0 -0.24606491983E+02  0.33052337475E+02 -0.18198269941E+02  0.46142317753E+02  0.99999999265E+01 0.  0.
        -12    1    1    2    0    0  0.24606491983E+02 -0.33052337475E+02  0.18198269941E+02  0.45045682247E+02  0.00000000000E+00 0.  1.
         11    1    3    3    0    0 -0.20590832685E+02  0.21480549025E+02 -0.14348904109E+02  0.33034639796E+02  0.51100000000E-03 0. -1.
        -11    1    3    3    0    0 -0.40235043121E+01  0.11279047750E+02 -0.32000748902E+01  0.12395401755E+02  0.51100000000E-03 0.  1.
        -12    1    3    3    0    0  0.78450140581E-02  0.29274069980E+00 -0.64929094127E+00  0.71227620203E+00  0.00000000000E+00 0.  1.
</event>
<event>
 7    1  0.1563903E-008  0.4614232E+02  0.7816164E-02  0.1320468E+00
        -11   -1    0    0    0    0  0.00000000000E+00  0.00000000000E+00  0.45593999997E+02  0.45594000000E+02  0.51100000000E-03 0.  1.
         11   -1    0    0    0    0 -0.00000000000E+00 -0.00000000000E+00 -0.45593999997E+02  0.45594000000E+02  0.51100000000E-03 0. -1.
    9900012    2    1    2    0    0  0.29751803705E+02 -0.13233082665E+02 -0.31126020084E+02  0.46142318445E+02  0.10000006233E+02 0.  0.
        -12    1    1    2    0    0 -0.29751803705E+02  0.13233082665E+02  0.31126020084E+02  0.45045681555E+02  0.00000000000E+00 0.  1.
         11    1    3    3    0    0  0.74303771542E+01 -0.59134683714E+01 -0.12352989429E+02  0.15581269554E+02  0.51100000000E-03 0. -1.
        -11    1    3    3    0    0  0.68502659553E+01  0.31230665338E+00 -0.56697786787E+01  0.88977564381E+01  0.51100000000E-03 0.  1.
         12    1    3    3    0    0  0.15471160596E+02 -0.76319209471E+01 -0.13103251976E+02  0.21663292452E+02  0.00000000000E+00 0. -1.
</event>
<event>
 7    1  0.1563903E-008  0.4614232E+02  0.7816164E-02  0.1320468E+00
        -11   -1    0    0    0    0  0.00000000000E+00  0.00000000000E+00  0.45593999997E+02  0.45594000000E+02  0.51100000000E-03 0.  1.
         11   -1    0    0    0    0 -0.00000000000E+00 -0.00000000000E+00 -0.45593999997E+02  0.45594000000E+02  0.51100000000E-03 0. -1.
    9900012    2    1    2    0    0  0.29974907156E+02  0.39201219220E+01 -0.33395373986E+02  0.46142318536E+02  0.10000007068E+02 0.  0.
        -12    1    1    2    0    0 -0.29974907156E+02 -0.39201219220E+01  0.33395373986E+02  0.45045681464E+02  0.00000000000E+00 0.  1.
         11    1    3    3    0    0  0.12786401671E+02 -0.78999127001E-02 -0.12635449411E+02  0.17976281934E+02  0.51100000000E-03 0. -1.
        -11    1    3    3    0    0  0.64765214328E+00  0.13071615659E+01  0.43271675119E-01  0.14594510465E+01  0.51100000000E-03 0.  1.
        -12    1    3    3    0    0  0.16540853342E+02  0.26208602688E+01 -0.20803196250E+02  0.26706585555E+02  0.00000000000E+00 0.  1.
</event>
<event>
 7    1  0.1563903E-008  0.4614232E+02  0.7816164E-02  0.1320468E+00
        -11   -1    0    0    0    0  0.00000000000E+00  0.00000000000E+00  0.45593999997E+02  0.45594000000E+02  0.51100000000E-03 0.  1.
         11   -1    0    0    0    0 -0.00000000000E+00 -0.00000000000E+00 -0.45593999997E+02  0.45594000000E+02  0.51100000000E-03 0. -1.
    9900012    2    1    2    0    0 -0.14867114261E+02  0.12559078147E+02 -0.40624516786E+02  0.46142324354E+02  0.10000060119E+02 0.  0.
        -12    1    1    2    0    0  0.14867114261E+02 -0.12559078147E+02  0.40624516786E+02  0.45045675646E+02  0.00000000000E+00 0.  1.
         11    1    3    3    0    0 -0.13412770828E+02  0.11322285762E+02 -0.31887354004E+02  0.36399174740E+02  0.51100000000E-03 0. -1.
        -11    1    3    3    0    0 -0.23960540240E+01 -0.92636951165E-01 -0.68089512887E+01  0.72188277721E+01  0.51100000000E-03 0.  1.
        -12    1    3    3    0    0  0.94171059110E+00  0.13294293362E+01 -0.19282114931E+01  0.25243218415E+01  0.00000000000E+00 0.  1.
</event>
<event>
 7    1  0.1563903E-008  0.4614232E+02  0.7816164E-02  0.1320468E+00
        -11   -1    0    0    0    0  0.00000000000E+00  0.00000000000E+00  0.45593999997E+02  0.45594000000E+02  0.51100000000E-03 0.  1.
         11   -1    0    0    0    0 -0.00000000000E+00 -0.00000000000E+00 -0.45593999997E+02  0.45594000000E+02  0.51100000000E-03 0. -1.
    9900012    2    1    2    0    0  0.78202963880E+01  0.33874380209E+01 -0.44232134638E+02  0.46142317559E+02  0.99999981556E+01 0.  0.
        -12    1    1    2    0    0 -0.78202963880E+01 -0.33874380209E+01  0.44232134638E+02  0.45045682441E+02  0.00000000000E+00 0.  1.
         11    1    3    3    0    0  0.24257119732E+01  0.20558260144E+01 -0.65713340393E+01  0.73002007161E+01  0.51100000000E-03 0. -1.
        -11    1    3    3    0    0  0.27477417785E+01 -0.20388312980E+01 -0.28765902641E+02  0.28968673994E+02  0.51100000000E-03 0.  1.
        -12    1    3    3    0    0  0.26468426364E+01  0.33704433046E+01 -0.88948979575E+01  0.98734428486E+01  0.00000000000E+00 0.  1.
</event>
<event>
 7    1  0.1706755E-008  0.4614232E+02  0.7816164E-02  0.1320468E+00
        -11   -1    0    0    0    0  0.00000000000E+00  0.00000000000E+00  0.45593999997E+02  0.45594000000E+02  0.51100000000E-03 0.  1.
         11   -1    0    0    0    0 -0.00000000000E+00 -0.00000000000E+00 -0.45593999997E+02  0.45594000000E+02  0.51100000000E-03 0. -1.
    9900012    2    1    2    0    0  0.23636760127E+02  0.35024551812E+02 -0.15610812023E+02  0.46142321950E+02  0.10000038196E+02 0.  0.
        -12    1    1    2    0    0 -0.23636760127E+02 -0.35024551812E+02  0.15610812023E+02  0.45045678050E+02  0.00000000000E+00 0.  1.
         11    1    3    3    0    0  0.15287011827E+02  0.15132702254E+02 -0.92061835214E+01  0.23397547380E+02  0.51100000000E-03 0. -1.
        -11    1    3    3    0    0  0.82776303895E+00  0.41681774514E+01 -0.23227323426E+01  0.48429310042E+01  0.51100000000E-03 0.  1.
         12    1    3    3    0    0  0.75219852612E+01  0.15723672107E+02 -0.40818961593E+01  0.17901843565E+02  0.00000000000E+00 0. -1.
</event>
<event>
 7    1  0.1563903E-008  0.4614232E+02  0.7816164E-02  0.1320468E+00
        -11   -1    0    0    0    0  0.00000000000E+00  0.00000000000E+00  0.45593999997E+02  0.45594000000E+02  0.51100000000E-03 0. -1.
         11   -1    0    0    0    0 -0.00000000000E+00 -0.00000000000E+00 -0.45593999997E+02  0.45594000000E+02  0.51100000000E-03 0.  1.
    9900012    2    1    2    0    0  0.39158467712E+02  0.21856689992E+02  0.42441873056E+01  0.46142316335E+02  0.99999869972E+01 0.  0.
        -12    1    1    2    0    0 -0.39158467712E+02 -0.21856689992E+02 -0.42441873056E+01  0.45045683665E+02  0.00000000000E+00 0.  1.
         11    1    3    3    0    0  0.29399949340E+02  0.14603941773E+02  0.28441243744E+01  0.32950283461E+02  0.51100000000E-03 0. -1.
        -11    1    3    3    0    0 -0.35347936779E+00 -0.29045572520E+00 -0.15030046970E+00  0.48156275195E+00  0.51100000000E-03 0.  1.
         12    1    3    3    0    0  0.10111997740E+02  0.75432039442E+01  0.15503634010E+01  0.12710470122E+02  0.00000000000E+00 0. -1.
</event>
<event>
 7    1  0.1563903E-008  0.4614232E+02  0.7816164E-02  0.1320468E+00
        -11   -1    0    0    0    0  0.00000000000E+00  0.00000000000E+00  0.45593999997E+02  0.45594000000E+02  0.51100000000E-03 0.  1.
         11   -1    0    0    0    0 -0.00000000000E+00 -0.00000000000E+00 -0.45593999997E+02  0.45594000000E+02  0.51100000000E-03 0. -1.
    9900012    2    1    2    0    0 -0.31939649034E+02  0.10524663313E+02 -0.29970046011E+02  0.46142319007E+02  0.10000011358E+02 0.  0.
        -12    1    1    2    0    0  0.31939649034E+02 -0.10524663313E+02  0.29970046011E+02  0.45045680993E+02  0.00000000000E+00 0.  1.
         11    1    3    3    0    0 -0.24484945178E+02  0.91925957035E+01 -0.25785321223E+02  0.36727362374E+02  0.51100000000E-03 0. -1.
        -11    1    3    3    0    0 -0.84185410723E+00 -0.71975914260E+00 -0.17586355191E+01  0.20783576958E+01  0.51100000000E-03 0.  1.
         12    1    3    3    0    0 -0.66128497485E+01  0.20518267523E+01 -0.24260892689E+01  0.73365989367E+01  0.00000000000E+00 0. -1.
</event>
<event>
 7    1  0.1563903E-008  0.4614232E+02  0.7816164E-02  0.1320468E+00
        -11   -1    0    0    0    0  0.00000000000E+00  0.00000000000E+00  0.45593999997E+02  0.45594000000E+02  0.51100000000E-03 0.  1.
         11   -1    0    0    0    0 -0.00000000000E+00 -0.00000000000E+00 -0.45593999997E+02  0.45594000000E+02  0.51100000000E-03 0. -1.
    9900012    2    1    2    0    0 -0.14161232096E+02  0.22132268009E+02 -0.36588733120E+02  0.46142321262E+02  0.10000031922E+02 0.  0.
        -12    1    1    2    0    0  0.14161232096E+02 -0.22132268009E+02  0.36588733120E+02  0.45045678738E+02  0.00000000000E+00 0.  1.
         11    1    3    3    0    0 -0.56710366529E+01  0.18497065062E+01 -0.95901122217E+01  0.11293906479E+02  0.51100000000E-03 0.  1.
        -11    1    3    3    0    0 -0.46345329664E+01  0.96343717513E+01 -0.13813019964E+02  0.17467098661E+02  0.51100000000E-03 0. -1.
        -12    1    3    3    0    0 -0.38556624768E+01  0.10648189751E+02 -0.13185600934E+02  0.17381316121E+02  0.00000000000E+00 0.  1.
</event>
<event>
 7    1  0.1563903E-008  0.4614232E+02  0.7816164E-02  0.1320468E+00
        -11   -1    0    0    0    0  0.00000000000E+00  0.00000000000E+00  0.45593999997E+02  0.45594000000E+02  0.51100000000E-03 0.  1.
         11   -1    0    0    0    0 -0.00000000000E+00 -0.00000000000E+00 -0.45593999997E+02  0.45594000000E+02  0.51100000000E-03 0. -1.
    9900012    2    1    2    0    0 -0.20736013109E+02 -0.26418728867E+02 -0.30019693787E+02  0.46142317746E+02  0.99999998651E+01 0.  0.
        -12    1    1    2    0    0  0.20736013109E+02  0.26418728867E+02  0.30019693787E+02  0.45045682254E+02  0.00000000000E+00 0.  1.
         11    1    3    3    0    0 -0.50000235452E+00 -0.33812062676E+01 -0.18616905351E+01  0.38921009864E+01  0.51100000000E-03 0. -1.
        -11    1    3    3    0    0 -0.11133431857E+02 -0.17613970440E+02 -0.17355593217E+02  0.27118662868E+02  0.51100000000E-03 0.  1.
        -12    1    3    3    0    0 -0.91025788982E+01 -0.54235521597E+01 -0.10802410035E+02  0.15131553892E+02  0.00000000000E+00 0.  1.
</event>
<event>
 7    1  0.1563903E-008  0.4614232E+02  0.7816164E-02  0.1320468E+00
        -11   -1    0    0    0    0  0.00000000000E+00  0.00000000000E+00  0.45593999997E+02  0.45594000000E+02  0.51100000000E-03 0.  1.
         11   -1    0    0    0    0 -0.00000000000E+00 -0.00000000000E+00 -0.45593999997E+02  0.45594000000E+02  0.51100000000E-03 0. -1.
    9900012    2    1    2    0    0  0.18203319590E+02  0.34907829104E+02 -0.21890538205E+02  0.46142322741E+02  0.10000045407E+02 0.  0.
        -12    1    1    2    0    0 -0.18203319590E+02 -0.34907829104E+02  0.21890538205E+02  0.45045677259E+02  0.00000000000E+00 0.  1.
         11    1    3    3    0    0  0.83980620268E+01  0.25529091753E+02 -0.14619725127E+02  0.30594089864E+02  0.51100000000E-03 0. -1.
        -11    1    3    3    0    0  0.98556522314E+00  0.42141036977E+00 -0.11312667491E+01  0.15584255605E+01  0.51100000000E-03 0.  1.
         12    1    3    3    0    0  0.88196923405E+01  0.89573269811E+01 -0.61395463290E+01  0.13989807317E+02  0.00000000000E+00 0. -1.
</event>
<event>
 7    1  0.1563903E-008  0.4614232E+02  0.7816164E-02  0.1320468E+00
        -11   -1    0    0    0    0  0.00000000000E+00  0.00000000000E+00  0.45593999997E+02  0.45594000000E+02  0.51100000000E-03 0. -1.
         11   -1    0    0    0    0 -0.00000000000E+00 -0.00000000000E+00 -0.45593999997E+02  0.45594000000E+02  0.51100000000E-03 0.  1.
    9900012    2    1    2    0    0  0.43068850645E+02  0.13187964166E+02 -0.51494231100E+00  0.46142318073E+02  0.10000002840E+02 0.  0.
        -12    1    1    2    0    0 -0.43068850645E+02 -0.13187964166E+02  0.51494231100E+00  0.45045681927E+02  0.00000000000E+00 0.  1.
         11    1    3    3    0    0  0.25902887574E+02  0.12016109320E+02  0.22099199143E+01  0.28639661557E+02  0.51100000000E-03 0. -1.
        -11    1    3    3    0    0  0.76718189741E+01 -0.29143629398E+00 -0.14327614916E+01  0.78099005907E+01  0.51100000000E-03 0.  1.
         12    1    3    3    0    0  0.94941440975E+01  0.14632911399E+01 -0.12921007338E+01  0.96927559244E+01  0.00000000000E+00 0. -1.
</event>
<event>
 7    1  0.1563903E-008  0.4614232E+02  0.7816164E-02  0.1320468E+00
        -11   -1    0    0    0    0  0.00000000000E+00  0.00000000000E+00  0.45593999997E+02  0.45594000000E+02  0.51100000000E-03 0.  1.
         11   -1    0    0    0    0 -0.00000000000E+00 -0.00000000000E+00 -0.45593999997E+02  0.45594000000E+02  0.51100000000E-03 0. -1.
    9900012    2    1    2    0    0  0.14821571739E+02 -0.36374159829E+02 -0.22053458160E+02  0.46142317533E+02  0.99999979177E+01 0.  0.
        -12    1    1    2    0    0 -0.14821571739E+02  0.36374159829E+02  0.22053458160E+02  0.45045682467E+02  0.00000000000E+00 0.  1.
         11    1    3    3    0    0  0.44773778173E+01 -0.19021874916E+02 -0.81613893276E+01  0.21177509614E+02  0.51100000000E-03 0.  1.
        -11    1    3    3    0    0  0.47455886907E+01 -0.62762153611E+01 -0.80193112426E+01  0.11234805043E+02  0.51100000000E-03 0. -1.
         12    1    3    3    0    0  0.55986052310E+01 -0.11076069552E+02 -0.58727575902E+01  0.13730002876E+02  0.00000000000E+00 0. -1.
</event>
<event>
 7    1  0.1563903E-008  0.4614232E+02  0.7816164E-02  0.1320468E+00
        -11   -1    0    0    0    0  0.00000000000E+00  0.00000000000E+00  0.45593999997E+02  0.45594000000E+02  0.51100000000E-03 0.  1.
         11   -1    0    0    0    0 -0.00000000000E+00 -0.00000000000E+00 -0.45593999997E+02  0.45594000000E+02  0.51100000000E-03 0. -1.
    9900012    2    1    2    0    0  0.94506070477E+01 -0.42631173219E+01 -0.43836347393E+02  0.46142317681E+02  0.99999992688E+01 0.  0.
        -12    1    1    2    0    0 -0.94506070477E+01  0.42631173219E+01  0.43836347393E+02  0.45045682319E+02  0.00000000000E+00 0.  1.
         11    1    3    3    0    0  0.14385861230E+00  0.20178980019E+01 -0.31730557962E+01  0.37630959320E+01  0.51100000000E-03 0.  1.
        -11    1    3    3    0    0  0.80316799645E+01 -0.57042596955E+01 -0.38900418892E+02  0.40128407045E+02  0.51100000000E-03 0. -1.
         12    1    3    3    0    0  0.12750684709E+01 -0.57675562824E+00 -0.17628727041E+01  0.22508147039E+01  0.00000000000E+00 0. -1.
</event>
<event>
 7    1  0.1563903E-008  0.4614232E+02  0.7816164E-02  0.1320468E+00
        -11   -1    0    0    0    0  0.00000000000E+00  0.00000000000E+00  0.45593999997E+02  0.45594000000E+02  0.51100000000E-03 0.  1.
         11   -1    0    0    0    0 -0.00000000000E+00 -0.00000000000E+00 -0.45593999997E+02  0.45594000000E+02  0.51100000000E-03 0. -1.
    9900012    2    1    2    0    0  0.14432978473E+02 -0.42323969205E+02 -0.54299390115E+01  0.46142317915E+02  0.10000001402E+02 0.  0.
        -12    1    1    2    0    0 -0.14432978473E+02  0.42323969205E+02  0.54299390115E+01  0.45045682085E+02  0.00000000000E+00 0.  1.
         11    1    3    3    0    0 -0.10956824046E+01 -0.41481079399E+01  0.46480429953E-01  0.42906270060E+01  0.51100000000E-03 0. -1.
        -11    1    3    3    0    0  0.11357472782E+02 -0.24537256296E+02 -0.16676160267E+01  0.27089667366E+02  0.51100000000E-03 0.  1.
         12    1    3    3    0    0  0.41711880954E+01 -0.13638604969E+02 -0.38088034147E+01  0.14762023543E+02  0.00000000000E+00 0. -1.
</event>
<event>
 7    1  0.1563903E-008  0.4614231E+02  0.7816164E-02  0.1320468E+00
        -11   -1    0    0    0    0  0.00000000000E+00  0.00000000000E+00  0.45593999997E+02  0.45594000000E+02  0.51100000000E-03 0.  1.
         11   -1    0    0    0    0 -0.00000000000E+00 -0.00000000000E+00 -0.45593999997E+02  0.45594000000E+02  0.51100000000E-03 0. -1.
    9900012    2    1    2    0    0 -0.18100735077E+02 -0.15149319629E+02 -0.38366330529E+02  0.46142314148E+02  0.99999670562E+01 0.  0.
        -12    1    1    2    0    0  0.18100735077E+02  0.15149319629E+02  0.38366330529E+02  0.45045685852E+02  0.00000000000E+00 0.  1.
         11    1    3    3    0    0 -0.24411624471E+01 -0.17375757245E+01 -0.58264439081E+01  0.65517854336E+01  0.51100000000E-03 0. -1.
        -11    1    3    3    0    0 -0.58543026971E+01 -0.10898447408E+02 -0.19298321351E+02  0.22923224537E+02  0.51100000000E-03 0.  1.
        -12    1    3    3    0    0 -0.98052699327E+01 -0.25132964972E+01 -0.13241565270E+02  0.16667304177E+02  0.00000000000E+00 0.  1.
</event>
<event>
 7    1  0.1563903E-008  0.4614232E+02  0.7816164E-02  0.1320468E+00
        -11   -1    0    0    0    0  0.00000000000E+00  0.00000000000E+00  0.45593999997E+02  0.45594000000E+02  0.51100000000E-03 0. -1.
         11   -1    0    0    0    0 -0.00000000000E+00 -0.00000000000E+00 -0.45593999997E+02  0.45594000000E+02  0.51100000000E-03 0.  1.
    9900012    2    1    2    0    0  0.20420271749E+02 -0.22485221990E+02  0.33264709411E+02  0.46142316539E+02  0.99999888545E+01 0.  0.
        -12    1    1    2    0    0 -0.20420271749E+02  0.22485221990E+02 -0.33264709411E+02  0.45045683461E+02  0.00000000000E+00 0.  1.
         11    1    3    3    0    0  0.46141686388E+01 -0.71112803531E+01  0.96346716854E+01  0.12833072868E+02  0.51100000000E-03 0. -1.
        -11    1    3    3    0    0  0.29691336037E+01 -0.23030024792E+01  0.48169287486E+00  0.37883509688E+01  0.51100000000E-03 0.  1.
        -12    1    3    3    0    0  0.12836969507E+02 -0.13070939158E+02  0.23148344851E+02  0.29520892702E+02  0.00000000000E+00 0.  1.
</event>
<event>
 7    1  0.1563903E-008  0.4614232E+02  0.7816164E-02  0.1320468E+00
        -11   -1    0    0    0    0  0.00000000000E+00  0.00000000000E+00  0.45593999997E+02  0.45594000000E+02  0.51100000000E-03 0. -1.
         11   -1    0    0    0    0 -0.00000000000E+00 -0.00000000000E+00 -0.45593999997E+02  0.45594000000E+02  0.51100000000E-03 0.  1.
    9900012    2    1    2    0    0  0.14565729318E+02 -0.34960381398E+01  0.42482123317E+02  0.46142317025E+02  0.99999932848E+01 0.  0.
        -12    1    1    2    0    0 -0.14565729318E+02  0.34960381398E+01 -0.42482123317E+02  0.45045682975E+02  0.00000000000E+00 0.  1.
         11    1    3    3    0    0  0.84895204038E+01 -0.22938939313E+01  0.25605590387E+02  0.27073606435E+02  0.51100000000E-03 0. -1.
        -11    1    3    3    0    0  0.39026430977E+01  0.14757346892E+01  0.41565229260E+01  0.58894056675E+01  0.51100000000E-03 0.  1.
        -12    1    3    3    0    0  0.21735658160E+01 -0.26778788978E+01  0.12720010003E+02  0.13179304922E+02  0.00000000000E+00 0.  1.
</event>
<event>
 7    1  0.1563903E-008  0.4614232E+02  0.7816164E-02  0.1320468E+00
        -11   -1    0    0    0    0  0.00000000000E+00  0.00000000000E+00  0.45593999997E+02  0.45594000000E+02  0.51100000000E-03 0.  1.
         11   -1    0    0    0    0 -0.00000000000E+00 -0.00000000000E+00 -0.45593999997E+02  0.45594000000E+02  0.51100000000E-03 0. -1.
    9900012    2    1    2    0    0  0.70653015339E+01  0.43431901172E+02 -0.96366489036E+01  0.46142317329E+02  0.99999960630E+01 0.  0.
        -12    1    1    2    0    0 -0.70653015339E+01 -0.43431901172E+02  0.96366489036E+01  0.45045682671E+02  0.00000000000E+00 0.  1.
         11    1    3    3    0    0  0.74404140082E+00  0.10604417302E+02  0.14063056867E+00  0.10631417645E+02  0.51100000000E-03 0. -1.
        -11    1    3    3    0    0  0.39516259849E+01  0.17264439388E+02 -0.86981385674E+01  0.19731544038E+02  0.51100000000E-03 0.  1.
        -12    1    3    3    0    0  0.23696341482E+01  0.15563044482E+02 -0.10791409049E+01  0.15779355647E+02  0.00000000000E+00 0.  1.
</event>
<event>
 7    1  0.1563903E-008  0.4614232E+02  0.7816164E-02  0.1320468E+00
        -11   -1    0    0    0    0  0.00000000000E+00  0.00000000000E+00  0.45593999997E+02  0.45594000000E+02  0.51100000000E-03 0.  1.
         11   -1    0    0    0    0 -0.00000000000E+00 -0.00000000000E+00 -0.45593999997E+02  0.45594000000E+02  0.51100000000E-03 0. -1.
    9900012    2    1    2    0    0 -0.21967202392E+02  0.32719780354E+02 -0.21816766234E+02  0.46142319894E+02  0.10000019448E+02 0.  0.
        -12    1    1    2    0    0  0.21967202392E+02 -0.32719780354E+02  0.21816766234E+02  0.45045680106E+02  0.00000000000E+00 0.  1.
         11    1    3    3    0    0 -0.12781265745E+02  0.25340242267E+02 -0.15249183141E+02  0.32218414283E+02  0.51100000000E-03 0. -1.
        -11    1    3    3    0    0 -0.87381081194E+01  0.55974495335E+01 -0.60622575843E+01  0.12018192130E+02  0.51100000000E-03 0.  1.
        -12    1    3    3    0    0 -0.44782852689E+00  0.17820885534E+01 -0.50532550921E+00  0.19057134810E+01  0.00000000000E+00 0.  1.
</event>
<event>
 7    1  0.1563903E-008  0.4614232E+02  0.7816164E-02  0.1320468E+00
        -11   -1    0    0    0    0  0.00000000000E+00  0.00000000000E+00  0.45593999997E+02  0.45594000000E+02  0.51100000000E-03 0.  1.
         11   -1    0    0    0    0 -0.00000000000E+00 -0.00000000000E+00 -0.45593999997E+02  0.45594000000E+02  0.51100000000E-03 0. -1.
    9900012    2    1    2    0    0 -0.27410837648E+02 -0.34484463886E+02 -0.94117589539E+01  0.46142317890E+02  0.10000001179E+02 0.  0.
        -12    1    1    2    0    0  0.27410837648E+02  0.34484463886E+02  0.94117589539E+01  0.45045682110E+02  0.00000000000E+00 0.  1.
         11    1    3    3    0    0 -0.17749391554E+02 -0.21887594500E+02 -0.52569205916E+01  0.28666058465E+02  0.51100000000E-03 0. -1.
        -11    1    3    3    0    0 -0.27109989660E+01 -0.23502461755E+01 -0.35995191849E+01  0.50822938819E+01  0.51100000000E-03 0.  1.
         12    1    3    3    0    0 -0.69504471289E+01 -0.10246623211E+02 -0.55531917739E+00  0.12393965544E+02  0.00000000000E+00 0. -1.
</event>
<event>
 7    1  0.1563903E-008  0.4614232E+02  0.7816164E-02  0.1320468E+00
        -11   -1    0    0    0    0  0.00000000000E+00  0.00000000000E+00  0.45593999997E+02  0.45594000000E+02  0.51100000000E-03 0. -1.
         11   -1    0    0    0    0 -0.00000000000E+00 -0.00000000000E+00 -0.45593999997E+02  0.45594000000E+02  0.51100000000E-03 0.  1.
    9900012    2    1    2    0    0  0.44328732485E+02 -0.77053181289E+01  0.21691132884E+01  0.46142317591E+02  0.99999984495E+01 0.  0.
        -12    1    1    2    0    0 -0.44328732485E+02  0.77053181289E+01 -0.21691132884E+01  0.45045682409E+02  0.00000000000E+00 0.  1.
         11    1    3    3    0    0  0.75662921745E+01 -0.50241337476E+01 -0.51772717501E+00  0.90971830186E+01  0.51100000000E-03 0. -1.
        -11    1    3    3    0    0  0.35447035961E+02 -0.27507849611E+01  0.30342397727E+01  0.35682850049E+02  0.51100000000E-03 0.  1.
        -12    1    3    3    0    0  0.13154043498E+01  0.69600579887E-01 -0.34739930927E+00  0.13622845239E+01  0.00000000000E+00 0.  1.
</event>
<event>
 7    1  0.1563903E-008  0.4614232E+02  0.7816164E-02  0.1320468E+00
        -11   -1    0    0    0    0  0.00000000000E+00  0.00000000000E+00  0.45593999997E+02  0.45594000000E+02  0.51100000000E-03 0. -1.
         11   -1    0    0    0    0 -0.00000000000E+00 -0.00000000000E+00 -0.45593999997E+02  0.45594000000E+02  0.51100000000E-03 0.  1.
    9900012    2    1    2    0    0  0.22904865030E+02 -0.97555942574E+01  0.37540764671E+02  0.46142317927E+02  0.10000001512E+02 0.  0.
        -12    1    1    2    0    0 -0.22904865030E+02  0.97555942574E+01 -0.37540764671E+02  0.45045682073E+02  0.00000000000E+00 0.  1.
         11    1    3    3    0    0  0.13449063242E+02 -0.95643997434E+01  0.18220017907E+02  0.24583004237E+02  0.51100000000E-03 0. -1.
        -11    1    3    3    0    0  0.80877985974E+01 -0.62362679559E+00  0.15894119531E+02  0.17844451027E+02  0.51100000000E-03 0.  1.
         12    1    3    3    0    0  0.13680031906E+01  0.43243228165E+00  0.34266272329E+01  0.37148626625E+01  0.00000000000E+00 0. -1.
</event>
<event>
 7    1  0.1563903E-008  0.4614232E+02  0.7816164E-02  0.1320468E+00
        -11   -1    0    0    0    0  0.00000000000E+00  0.00000000000E+00  0.45593999997E+02  0.45594000000E+02  0.51100000000E-03 0.  1.
         11   -1    0    0    0    0 -0.00000000000E+00 -0.00000000000E+00 -0.45593999997E+02  0.45594000000E+02  0.51100000000E-03 0. -1.
    9900012    2    1    2    0    0 -0.31041306764E+02 -0.86904775116E+01 -0.31464684615E+02  0.46142317600E+02  0.99999985310E+01 0.  0.
        -12    1    1    2    0    0  0.31041306764E+02  0.86904775116E+01  0.31464684615E+02  0.45045682400E+02  0.00000000000E+00 0.  1.
         11    1    3    3    0    0 -0.18600994116E+02 -0.21665328919E+01 -0.15974983240E+02  0.24614851953E+02  0.51100000000E-03 0. -1.
        -11    1    3    3    0    0 -0.60809684812E+01 -0.51985776493E+01 -0.58820695743E+01  0.99298605219E+01  0.51100000000E-03 0.  1.
         12    1    3    3    0    0 -0.63593441666E+01 -0.13253669705E+01 -0.96076318004E+01  0.11597605126E+02  0.00000000000E+00 0. -1.
</event>
<event>
 7    1  0.1563903E-008  0.4614232E+02  0.7816164E-02  0.1320468E+00
        -11   -1    0    0    0    0  0.00000000000E+00  0.00000000000E+00  0.45593999997E+02  0.45594000000E+02  0.51100000000E-03 0.  1.
         11   -1    0    0    0    0 -0.00000000000E+00 -0.00000000000E+00 -0.45593999997E+02  0.45594000000E+02  0.51100000000E-03 0. -1.
    9900012    2    1    2    0    0  0.30495530211E+02 -0.29522523374E+02  0.15084983447E+02  0.46142317912E+02  0.10000001375E+02 0.  0.
        -12    1    1    2    0    0 -0.30495530211E+02  0.29522523374E+02 -0.15084983447E+02  0.45045682088E+02  0.00000000000E+00 0.  1.
         11    1    3    3    0    0  0.17014366444E+02 -0.19474376204E+02  0.63228957557E+01  0.26621776895E+02  0.51100000000E-03 0. -1.
        -11    1    3    3    0    0  0.11996778134E+02 -0.67457198935E+01  0.62639002103E+01  0.15121635777E+02  0.51100000000E-03 0.  1.
         12    1    3    3    0    0  0.14843856329E+01 -0.33024272760E+01  0.24981874806E+01  0.43989052398E+01  0.00000000000E+00 0. -1.
</event>
<event>
 7    1  0.1563903E-008  0.4614232E+02  0.7816164E-02  0.1320468E+00
        -11   -1    0    0    0    0  0.00000000000E+00  0.00000000000E+00  0.45593999997E+02  0.45594000000E+02  0.51100000000E-03 0. -1.
         11   -1    0    0    0    0 -0.00000000000E+00 -0.00000000000E+00 -0.45593999997E+02  0.45594000000E+02  0.51100000000E-03 0.  1.
    9900012    2    1    2    0    0 -0.13038990922E+02  0.42871780807E+02 -0.45944082759E+01  0.46142318062E+02  0.10000002747E+02 0.  0.
        -12    1    1    2    0    0  0.13038990922E+02 -0.42871780807E+02  0.45944082759E+01  0.45045681938E+02  0.00000000000E+00 0.  1.
         11    1    3    3    0    0 -0.82135647541E+01  0.24170961498E+02 -0.37103467794E+01  0.25796602474E+02  0.51100000000E-03 0. -1.
        -11    1    3    3    0    0 -0.51455541477E+01  0.17123523568E+02 -0.25131431731E+01  0.18055682644E+02  0.51100000000E-03 0.  1.
        -12    1    3    3    0    0  0.32012797961E+00  0.15772957405E+01  0.16290816767E+01  0.22900329442E+01  0.00000000000E+00 0.  1.
</event>
<event>
 7    1  0.1563903E-008  0.4614232E+02  0.7816164E-02  0.1320468E+00
        -11   -1    0    0    0    0  0.00000000000E+00  0.00000000000E+00  0.45593999997E+02  0.45594000000E+02  0.51100000000E-03 0.  1.
         11   -1    0    0    0    0 -0.00000000000E+00 -0.00000000000E+00 -0.45593999997E+02  0.45594000000E+02  0.51100000000E-03 0. -1.
    9900012    2    1    2    0    0 -0.30282418306E+02 -0.54548442695E+01 -0.32898834409E+02  0.46142317743E+02  0.99999998386E+01 0.  0.
        -12    1    1    2    0    0  0.30282418306E+02  0.54548442695E+01  0.32898834409E+02  0.45045682257E+02  0.00000000000E+00 0.  1.
         11    1    3    3    0    0 -0.16879716607E+02  0.59649834001E+00 -0.18606015834E+02  0.25128956773E+02  0.51100000000E-03 0. -1.
        -11    1    3    3    0    0 -0.49917183361E+01 -0.19504988317E+00 -0.33175093090E+01  0.59967628501E+01  0.51100000000E-03 0.  1.
         12    1    3    3    0    0 -0.84109833634E+01 -0.58562927263E+01 -0.10975309266E+02  0.15016598121E+02  0.00000000000E+00 0. -1.
</event>
<event>
 7    1  0.1563903E-008  0.4614232E+02  0.7816164E-02  0.1320468E+00
        -11   -1    0    0    0    0  0.00000000000E+00  0.00000000000E+00  0.45593999997E+02  0.45594000000E+02  0.51100000000E-03 0.  1.
         11   -1    0    0    0    0 -0.00000000000E+00 -0.00000000000E+00 -0.45593999997E+02  0.45594000000E+02  0.51100000000E-03 0. -1.
    9900012    2    1    2    0    0 -0.14804794778E+02 -0.27653843803E+02 -0.32329495690E+02  0.46142319662E+02  0.10000017338E+02 0.  0.
        -12    1    1    2    0    0  0.14804794778E+02  0.27653843803E+02  0.32329495690E+02  0.45045680338E+02  0.00000000000E+00 0.  1.
         11    1    3    3    0    0 -0.10195347159E+02 -0.19901836982E+02 -0.21578616108E+02  0.31075149112E+02  0.51100000000E-03 0. -1.
        -11    1    3    3    0    0 -0.31555439089E+01 -0.52213306764E+01 -0.30274124789E+01  0.68106518023E+01  0.51100000000E-03 0.  1.
         12    1    3    3    0    0 -0.14539037110E+01 -0.25306761449E+01 -0.77234671025E+01  0.82565187479E+01  0.00000000000E+00 0. -1.
</event>
<event>
 7    1  0.1563903E-008  0.4614232E+02  0.7816164E-02  0.1320468E+00
        -11   -1    0    0    0    0  0.00000000000E+00  0.00000000000E+00  0.45593999997E+02  0.45594000000E+02  0.51100000000E-03 0. -1.
         11   -1    0    0    0    0 -0.00000000000E+00 -0.00000000000E+00 -0.45593999997E+02  0.45594000000E+02  0.51100000000E-03 0.  1.
    9900012    2    1    2    0    0 -0.45478288264E+01  0.44584965296E+02  0.45400122020E+01  0.46142316652E+02  0.99999898905E+01 0.  0.
        -12    1    1    2    0    0  0.45478288264E+01 -0.44584965296E+02 -0.45400122020E+01  0.45045683348E+02  0.00000000000E+00 0.  1.
         11    1    3    3    0    0 -0.51932209591E+01  0.12910336834E+02  0.16419827398E+01  0.14012224972E+02  0.51100000000E-03 0. -1.
        -11    1    3    3    0    0  0.23421803481E+01  0.20004931899E+02  0.83724390050E+00  0.20158970377E+02  0.51100000000E-03 0.  1.
        -12    1    3    3    0    0 -0.16967882154E+01  0.11669696563E+02  0.20607855618E+01  0.11971121303E+02  0.00000000000E+00 0.  1.
</event>
<event>
 7    1  0.1563903E-008  0.4614232E+02  0.7816164E-02  0.1320468E+00
        -11   -1    0    0    0    0  0.00000000000E+00  0.00000000000E+00  0.45593999997E+02  0.45594000000E+02  0.51100000000E-03 0.  1.
         11   -1    0    0    0    0 -0.00000000000E+00 -0.00000000000E+00 -0.45593999997E+02  0.45594000000E+02  0.51100000000E-03 0. -1.
    9900012    2    1    2    0    0  0.58024926763E+01 -0.76847221739E+01 -0.44004427941E+02  0.46142317026E+02  0.99999933002E+01 0.  0.
        -12    1    1    2    0    0 -0.58024926763E+01  0.76847221739E+01  0.44004427941E+02  0.45045682974E+02  0.00000000000E+00 0.  1.
         11    1    3    3    0    0  0.30530753382E+01  0.16242498467E+01 -0.70763426324E+01  0.78761717793E+01  0.51100000000E-03 0. -1.
        -11    1    3    3    0    0  0.61599982788E+00 -0.51041611528E+00 -0.55742496991E+01  0.56313622124E+01  0.51100000000E-03 0.  1.
         12    1    3    3    0    0  0.21334175102E+01 -0.87985559053E+01 -0.31353835609E+02  0.32634783035E+02  0.00000000000E+00 0. -1.
</event>
<event>
 7    1  0.1563903E-008  0.4614232E+02  0.7816164E-02  0.1320468E+00
        -11   -1    0    0    0    0  0.00000000000E+00  0.00000000000E+00  0.45593999997E+02  0.45594000000E+02  0.51100000000E-03 0. -1.
         11   -1    0    0    0    0 -0.00000000000E+00 -0.00000000000E+00 -0.45593999997E+02  0.45594000000E+02  0.51100000000E-03 0.  1.
    9900012    2    1    2    0    0 -0.13484038126E+02  0.23040339709E+02  0.36282736537E+02  0.46142317535E+02  0.99999979355E+01 0.  0.
        -12    1    1    2    0    0  0.13484038126E+02 -0.23040339709E+02 -0.36282736537E+02  0.45045682465E+02  0.00000000000E+00 0.  1.
         11    1    3    3    0    0 -0.29540845783E+01  0.36194817084E+01  0.87052765206E+01  0.98797319343E+01  0.51100000000E-03 0. -1.
        -11    1    3    3    0    0 -0.10939026970E+02  0.15616268868E+02  0.19230361054E+02  0.27080194809E+02  0.51100000000E-03 0.  1.
        -12    1    3    3    0    0  0.40907342182E+00  0.38045891334E+01  0.83470989632E+01  0.91823907911E+01  0.00000000000E+00 0.  1.
</event>
<event>
 7    1  0.1563903E-008  0.4614232E+02  0.7816164E-02  0.1320468E+00
        -11   -1    0    0    0    0  0.00000000000E+00  0.00000000000E+00  0.45593999997E+02  0.45594000000E+02  0.51100000000E-03 0.  1.
         11   -1    0    0    0    0 -0.00000000000E+00 -0.00000000000E+00 -0.45593999997E+02  0.45594000000E+02  0.51100000000E-03 0. -1.
    9900012    2    1    2    0    0  0.23975652597E+02  0.50201162955E+01 -0.37803174779E+02  0.46142317539E+02  0.99999979720E+01 0.  0.
        -12    1    1    2    0    0 -0.23975652597E+02 -0.50201162955E+01  0.37803174779E+02  0.45045682461E+02  0.00000000000E+00 0.  1.
         11    1    3    3    0    0  0.53589978438E+01  0.34597522090E+01 -0.12271790008E+02  0.13830602789E+02  0.51100000000E-03 0. -1.
        -11    1    3    3    0    0  0.79364163874E+01 -0.22957923756E+01 -0.12978690039E+02  0.15385179982E+02  0.51100000000E-03 0.  1.
        -12    1    3    3    0    0  0.10680238366E+02  0.38561564622E+01 -0.12552694731E+02  0.16926534767E+02  0.00000000000E+00 0.  1.
</event>
<event>
 7    1  0.1563903E-008  0.4614232E+02  0.7816164E-02  0.1320468E+00
        -11   -1    0    0    0    0  0.00000000000E+00  0.00000000000E+00  0.45593999997E+02  0.45594000000E+02  0.51100000000E-03 0.  1.
         11   -1    0    0    0    0 -0.00000000000E+00 -0.00000000000E+00 -0.45593999997E+02  0.45594000000E+02  0.51100000000E-03 0. -1.
    9900012    2    1    2    0    0 -0.38957868277E+02  0.11380833542E+02 -0.19541612083E+02  0.46142317903E+02  0.10000001295E+02 0.  0.
        -12    1    1    2    0    0  0.38957868277E+02 -0.11380833542E+02  0.19541612083E+02  0.45045682097E+02  0.00000000000E+00 0.  1.
         11    1    3    3    0    0 -0.10901021008E+02  0.60359518206E+01 -0.79763367636E+01  0.14794827536E+02  0.51100000000E-03 0. -1.
        -11    1    3    3    0    0 -0.80033121679E+00 -0.58118203536E+00  0.30270649388E+00  0.10343761875E+01  0.51100000000E-03 0.  1.
        -12    1    3    3    0    0 -0.27256516052E+02  0.59260637564E+01 -0.11867981813E+02  0.30313114179E+02  0.00000000000E+00 0.  1.
</event>
<event>
 7    1  0.1563903E-008  0.4614232E+02  0.7816164E-02  0.1320468E+00
        -11   -1    0    0    0    0  0.00000000000E+00  0.00000000000E+00  0.45593999997E+02  0.45594000000E+02  0.51100000000E-03 0. -1.
         11   -1    0    0    0    0 -0.00000000000E+00 -0.00000000000E+00 -0.45593999997E+02  0.45594000000E+02  0.51100000000E-03 0.  1.
    9900012    2    1    2    0    0 -0.22970270120E+02 -0.17067966462E+02  0.34787424014E+02  0.46142315878E+02  0.99999828291E+01 0.  0.
        -12    1    1    2    0    0  0.22970270120E+02  0.17067966462E+02 -0.34787424014E+02  0.45045684122E+02  0.00000000000E+00 0.  1.
         11    1    3    3    0    0 -0.10140544143E+02 -0.23780741238E+01  0.88893850285E+01  0.13693320945E+02  0.51100000000E-03 0. -1.
        -11    1    3    3    0    0 -0.24427841917E+00 -0.64636054526E+00  0.10026125196E+01  0.12176559556E+01  0.51100000000E-03 0.  1.
         12    1    3    3    0    0 -0.12585447557E+02 -0.14043531792E+02  0.24895426466E+02  0.31231338977E+02  0.00000000000E+00 0. -1.
</event>
<event>
 7    1  0.1563903E-008  0.4614232E+02  0.7816164E-02  0.1320468E+00
        -11   -1    0    0    0    0  0.00000000000E+00  0.00000000000E+00  0.45593999997E+02  0.45594000000E+02  0.51100000000E-03 0. -1.
         11   -1    0    0    0    0 -0.00000000000E+00 -0.00000000000E+00 -0.45593999997E+02  0.45594000000E+02  0.51100000000E-03 0.  1.
    9900012    2    1    2    0    0  0.24153508077E+02 -0.26439058129E+02  0.27325770839E+02  0.46142317642E+02  0.99999989161E+01 0.  0.
        -12    1    1    2    0    0 -0.24153508077E+02  0.26439058129E+02 -0.27325770839E+02  0.45045682358E+02  0.00000000000E+00 0.  1.
         11    1    3    3    0    0  0.59616565470E+00 -0.14323289758E+01  0.36889330776E+01  0.40019004604E+01  0.51100000000E-03 0. -1.
        -11    1    3    3    0    0  0.13983998610E+02 -0.13975149662E+02  0.99894935082E+01  0.22150553176E+02  0.51100000000E-03 0.  1.
         12    1    3    3    0    0  0.95733438122E+01 -0.11031579491E+02  0.13647344253E+02  0.19989864006E+02  0.00000000000E+00 0. -1.
</event>
<event>
 7    1  0.1563903E-008  0.4614232E+02  0.7816164E-02  0.1320468E+00
        -11   -1    0    0    0    0  0.00000000000E+00  0.00000000000E+00  0.45593999997E+02  0.45594000000E+02  0.51100000000E-03 0.  1.
         11   -1    0    0    0    0 -0.00000000000E+00 -0.00000000000E+00 -0.45593999997E+02  0.45594000000E+02  0.51100000000E-03 0. -1.
    9900012    2    1    2    0    0 -0.84413466568E+01 -0.24166411510E+02 -0.37065370593E+02  0.46142317900E+02  0.10000001266E+02 0.  0.
        -12    1    1    2    0    0  0.84413466568E+01  0.24166411510E+02  0.37065370593E+02  0.45045682100E+02  0.00000000000E+00 0.  1.
         11    1    3    3    0    0 -0.24327361797E+01 -0.15755622760E+02 -0.20398502836E+02  0.25889317722E+02  0.51100000000E-03 0. -1.
        -11    1    3    3    0    0 -0.64938825039E+01 -0.75682572058E+01 -0.12586022247E+02  0.16057925874E+02  0.51100000000E-03 0.  1.
        -12    1    3    3    0    0  0.48527202675E+00 -0.84253154427E+00 -0.40808455104E+01  0.41950743048E+01  0.00000000000E+00 0.  1.
</event>
<event>
 7    1  0.1563903E-008  0.4614232E+02  0.7816164E-02  0.1320468E+00
        -11   -1    0    0    0    0  0.00000000000E+00  0.00000000000E+00  0.45593999997E+02  0.45594000000E+02  0.51100000000E-03 0.  1.
         11   -1    0    0    0    0 -0.00000000000E+00 -0.00000000000E+00 -0.45593999997E+02  0.45594000000E+02  0.51100000000E-03 0. -1.
    9900012    2    1    2    0    0 -0.20996434482E+02 -0.39771583096E+02  0.25464137165E+01  0.46142319788E+02  0.10000018486E+02 0.  0.
        -12    1    1    2    0    0  0.20996434482E+02  0.39771583096E+02 -0.25464137165E+01  0.45045680212E+02  0.00000000000E+00 0.  1.
         11    1    3    3    0    0 -0.25304875134E+01 -0.19432049768E+01 -0.20625496444E+00  0.31971790705E+01  0.51100000000E-03 0. -1.
        -11    1    3    3    0    0 -0.37156929426E+01 -0.32460886426E+01 -0.13768701197E+01  0.51224249245E+01  0.51100000000E-03 0.  1.
         12    1    3    3    0    0 -0.14750254026E+02 -0.34582289477E+02  0.41295388006E+01  0.37822715793E+02  0.00000000000E+00 0. -1.
</event>
<event>
 7    1  0.1563903E-008  0.4614232E+02  0.7816164E-02  0.1320468E+00
        -11   -1    0    0    0    0  0.00000000000E+00  0.00000000000E+00  0.45593999997E+02  0.45594000000E+02  0.51100000000E-03 0.  1.
         11   -1    0    0    0    0 -0.00000000000E+00 -0.00000000000E+00 -0.45593999997E+02  0.45594000000E+02  0.51100000000E-03 0. -1.
    9900012    2    1    2    0    0 -0.15600750650E+02 -0.35578956870E+02 -0.22800612246E+02  0.46142317503E+02  0.99999976497E+01 0.  0.
        -12    1    1    2    0    0  0.15600750650E+02  0.35578956870E+02  0.22800612246E+02  0.45045682497E+02  0.00000000000E+00 0.  1.
         11    1    3    3    0    0 -0.91643201639E+01 -0.11881144867E+02 -0.10400526334E+02  0.18256979918E+02  0.51100000000E-03 0. -1.
        -11    1    3    3    0    0 -0.12308581136E+01 -0.13198833717E+02 -0.67508507226E+01  0.14876095218E+02  0.51100000000E-03 0.  1.
         12    1    3    3    0    0 -0.52055723723E+01 -0.10498978285E+02 -0.56492351893E+01  0.13009242368E+02  0.00000000000E+00 0. -1.
</event>
<event>
 7    1  0.1563903E-008  0.4614232E+02  0.7816164E-02  0.1320468E+00
        -11   -1    0    0    0    0  0.00000000000E+00  0.00000000000E+00  0.45593999997E+02  0.45594000000E+02  0.51100000000E-03 0. -1.
         11   -1    0    0    0    0 -0.00000000000E+00 -0.00000000000E+00 -0.45593999997E+02  0.45594000000E+02  0.51100000000E-03 0.  1.
    9900012    2    1    2    0    0  0.23516672529E+02  0.30515588490E+02  0.23342627601E+02  0.46142319951E+02  0.10000019973E+02 0.  0.
        -12    1    1    2    0    0 -0.23516672529E+02 -0.30515588490E+02 -0.23342627601E+02  0.45045680049E+02  0.00000000000E+00 0.  1.
         11    1    3    3    0    0  0.42130410566E+01  0.10006587741E+02  0.69537262142E+01  0.12893247135E+02  0.51100000000E-03 0. -1.
        -11    1    3    3    0    0  0.41315928802E+01  0.54077637540E+01  0.98490539668E+00  0.68763367754E+01  0.51100000000E-03 0.  1.
        -12    1    3    3    0    0  0.15172038592E+02  0.15101236995E+02  0.15403995990E+02  0.26372736041E+02  0.00000000000E+00 0.  1.
</event>
<event>
 7    1  0.1563903E-008  0.4614232E+02  0.7816164E-02  0.1320468E+00
        -11   -1    0    0    0    0  0.00000000000E+00  0.00000000000E+00  0.45593999997E+02  0.45594000000E+02  0.51100000000E-03 0.  1.
         11   -1    0    0    0    0 -0.00000000000E+00 -0.00000000000E+00 -0.45593999997E+02  0.45594000000E+02  0.51100000000E-03 0. -1.
    9900012    2    1    2    0    0  0.64748161639E+01 -0.10808199021E+02 -0.43247810323E+02  0.46142317542E+02  0.99999979978E+01 0.  0.
        -12    1    1    2    0    0 -0.64748161639E+01  0.10808199021E+02  0.43247810323E+02  0.45045682458E+02  0.00000000000E+00 0.  1.
         11    1    3    3    0    0  0.50220241523E+00 -0.44779194592E+01 -0.15451013558E+02  0.16094650980E+02  0.51100000000E-03 0. -1.
        -11    1    3    3    0    0  0.74571621588E+01 -0.35870370524E+01 -0.20886222765E+02  0.22465760703E+02  0.51100000000E-03 0.  1.
        -12    1    3    3    0    0 -0.14845484101E+01 -0.27432425098E+01 -0.69105739990E+01  0.75819058584E+01  0.00000000000E+00 0.  1.
</event>
<event>
 7    1  0.1563903E-008  0.4614231E+02  0.7816164E-02  0.1320468E+00
        -11   -1    0    0    0    0  0.00000000000E+00  0.00000000000E+00  0.45593999997E+02  0.45594000000E+02  0.51100000000E-03 0.  1.
         11   -1    0    0    0    0 -0.00000000000E+00 -0.00000000000E+00 -0.45593999997E+02  0.45594000000E+02  0.51100000000E-03 0. -1.
    9900012    2    1    2    0    0 -0.33740352058E+02 -0.15658762645E+02  0.25406801503E+02  0.46142314666E+02  0.99999717775E+01 0.  0.
        -12    1    1    2    0    0  0.33740352058E+02  0.15658762645E+02 -0.25406801503E+02  0.45045685334E+02  0.00000000000E+00 0.  1.
         11    1    3    3    0    0 -0.20439070453E+02 -0.72142601065E+01  0.96586988776E+01  0.23729551495E+02  0.51100000000E-03 0. -1.
        -11    1    3    3    0    0 -0.10288424122E+02 -0.62911089864E+01  0.13401526598E+02  0.18028606120E+02  0.51100000000E-03 0.  1.
        -12    1    3    3    0    0 -0.30128574826E+01 -0.21533935524E+01  0.23465760274E+01  0.43841570518E+01  0.00000000000E+00 0.  1.
</event>
<event>
 7    1  0.1563903E-008  0.4614232E+02  0.7816164E-02  0.1320468E+00
        -11   -1    0    0    0    0  0.00000000000E+00  0.00000000000E+00  0.45593999997E+02  0.45594000000E+02  0.51100000000E-03 0. -1.
         11   -1    0    0    0    0 -0.00000000000E+00 -0.00000000000E+00 -0.45593999997E+02  0.45594000000E+02  0.51100000000E-03 0.  1.
    9900012    2    1    2    0    0 -0.35134145239E+02 -0.14244312535E+02  0.24327039276E+02  0.46142318285E+02  0.10000004776E+02 0.  0.
        -12    1    1    2    0    0  0.35134145239E+02  0.14244312535E+02 -0.24327039276E+02  0.45045681715E+02  0.00000000000E+00 0.  1.
         11    1    3    3    0    0 -0.15318821409E+02 -0.67656709354E+01  0.10408192685E+02  0.19717278408E+02  0.51100000000E-03 0. -1.
        -11    1    3    3    0    0 -0.59579001339E+01 -0.24597412594E+01  0.45329577229E+00  0.64616080342E+01  0.51100000000E-03 0.  1.
        -12    1    3    3    0    0 -0.13857423695E+02 -0.50189003404E+01  0.13465550819E+02  0.19963431843E+02  0.00000000000E+00 0.  1.
</event>
<event>
 7    1  0.1563903E-008  0.4614232E+02  0.7816164E-02  0.1320468E+00
        -11   -1    0    0    0    0  0.00000000000E+00  0.00000000000E+00  0.45593999997E+02  0.45594000000E+02  0.51100000000E-03 0.  1.
         11   -1    0    0    0    0 -0.00000000000E+00 -0.00000000000E+00 -0.45593999997E+02  0.45594000000E+02  0.51100000000E-03 0. -1.
    9900012    2    1    2    0    0 -0.21269141991E+02  0.10321762901E+02 -0.38343165383E+02  0.46142317388E+02  0.99999965977E+01 0.  0.
        -12    1    1    2    0    0  0.21269141991E+02 -0.10321762901E+02  0.38343165383E+02  0.45045682612E+02  0.00000000000E+00 0.  1.
         11    1    3    3    0    0 -0.34753330104E+01 -0.39261107318E+00 -0.21143949005E+01  0.40868996861E+01  0.51100000000E-03 0. -1.
        -11    1    3    3    0    0 -0.25040167042E+01 -0.95435422944E-01 -0.59251934229E+01  0.64332825940E+01  0.51100000000E-03 0.  1.
         12    1    3    3    0    0 -0.15289792277E+02  0.10809809397E+02 -0.30303577059E+02  0.35622135108E+02  0.00000000000E+00 0. -1.
</event>
<event>
 7    1  0.1563903E-008  0.4614232E+02  0.7816164E-02  0.1320468E+00
        -11   -1    0    0    0    0  0.00000000000E+00  0.00000000000E+00  0.45593999997E+02  0.45594000000E+02  0.51100000000E-03 0.  1.
         11   -1    0    0    0    0 -0.00000000000E+00 -0.00000000000E+00 -0.45593999997E+02  0.45594000000E+02  0.51100000000E-03 0. -1.
    9900012    2    1    2    0    0 -0.23838255502E+02  0.15591183934E+02 -0.34896505423E+02  0.46142317270E+02  0.99999955204E+01 0.  0.
        -12    1    1    2    0    0  0.23838255502E+02 -0.15591183934E+02  0.34896505423E+02  0.45045682730E+02  0.00000000000E+00 0.  1.
         11    1    3    3    0    0 -0.66327745130E+01 -0.17556987416E+00 -0.72862326326E+01  0.98546287986E+01  0.51100000000E-03 0. -1.
        -11    1    3    3    0    0 -0.17585390552E+01  0.27801453402E+01 -0.29141181693E+01  0.43947414813E+01  0.51100000000E-03 0.  1.
         12    1    3    3    0    0 -0.15446941934E+02  0.12986608468E+02 -0.24696154621E+02  0.31892946990E+02  0.00000000000E+00 0. -1.
</event>
<event>
 7    1  0.1563903E-008  0.4614232E+02  0.7816164E-02  0.1320468E+00
        -11   -1    0    0    0    0  0.00000000000E+00  0.00000000000E+00  0.45593999997E+02  0.45594000000E+02  0.51100000000E-03 0.  1.
         11   -1    0    0    0    0 -0.00000000000E+00 -0.00000000000E+00 -0.45593999997E+02  0.45594000000E+02  0.51100000000E-03 0. -1.
    9900012    2    1    2    0    0  0.35678862239E+02 -0.21174768478E+02 -0.17543129173E+02  0.46142318610E+02  0.10000007737E+02 0.  0.
        -12    1    1    2    0    0 -0.35678862239E+02  0.21174768478E+02  0.17543129173E+02  0.45045681390E+02  0.00000000000E+00 0.  1.
         11    1    3    3    0    0  0.15381143473E+02 -0.11997473077E+02 -0.55139727093E+01  0.20271231588E+02  0.51100000000E-03 0. -1.
        -11    1    3    3    0    0  0.40331781814E+01 -0.27028618119E+00 -0.39233786499E+01  0.56331590742E+01  0.51100000000E-03 0.  1.
         12    1    3    3    0    0  0.16264540585E+02 -0.89070092194E+01 -0.81057778134E+01  0.20237927948E+02  0.00000000000E+00 0. -1.
</event>
<event>
 7    1  0.1563903E-008  0.4614232E+02  0.7816164E-02  0.1320468E+00
        -11   -1    0    0    0    0  0.00000000000E+00  0.00000000000E+00  0.45593999997E+02  0.45594000000E+02  0.51100000000E-03 0.  1.
         11   -1    0    0    0    0 -0.00000000000E+00 -0.00000000000E+00 -0.45593999997E+02  0.45594000000E+02  0.51100000000E-03 0. -1.
    9900012    2    1    2    0    0 -0.42846633676E+02 -0.42012629334E+01 -0.13252501915E+02  0.46142318358E+02  0.10000005444E+02 0.  0.
        -12    1    1    2    0    0  0.42846633676E+02  0.42012629334E+01  0.13252501915E+02  0.45045681642E+02  0.00000000000E+00 0.  1.
         11    1    3    3    0    0 -0.22792542479E+02 -0.28843596534E+01 -0.94201731281E+01  0.24830609845E+02  0.51100000000E-03 0. -1.
        -11    1    3    3    0    0 -0.73920459327E+01 -0.21856178532E+01  0.91198066392E+00  0.77621503119E+01  0.51100000000E-03 0.  1.
        -12    1    3    3    0    0 -0.12662045264E+02  0.86871457315E+00 -0.47443094510E+01  0.13549558201E+02  0.00000000000E+00 0.  1.
</event>
<event>
 7    1  0.1563903E-008  0.4614232E+02  0.7816164E-02  0.1320468E+00
        -11   -1    0    0    0    0  0.00000000000E+00  0.00000000000E+00  0.45593999997E+02  0.45594000000E+02  0.51100000000E-03 0.  1.
         11   -1    0    0    0    0 -0.00000000000E+00 -0.00000000000E+00 -0.45593999997E+02  0.45594000000E+02  0.51100000000E-03 0. -1.
    9900012    2    1    2    0    0 -0.18702201985E+02  0.22368554009E+01 -0.40918670746E+02  0.46142317667E+02  0.99999991438E+01 0.  0.
        -12    1    1    2    0    0  0.18702201985E+02 -0.22368554009E+01  0.40918670746E+02  0.45045682333E+02  0.00000000000E+00 0.  1.
         11    1    3    3    0    0 -0.16257808655E+02  0.94731668575E+00 -0.34814511560E+02  0.38435191773E+02  0.51100000000E-03 0. -1.
        -11    1    3    3    0    0 -0.29168699975E+01  0.12055904270E+01 -0.23820387085E+01  0.39541987216E+01  0.51100000000E-03 0.  1.
         12    1    3    3    0    0  0.47247666711E+00  0.83948288139E-01 -0.37221204775E+01  0.37529271729E+01  0.00000000000E+00 0. -1.
</event>
<event>
 7    1  0.1563903E-008  0.4614232E+02  0.7816164E-02  0.1320468E+00
        -11   -1    0    0    0    0  0.00000000000E+00  0.00000000000E+00  0.45593999997E+02  0.45594000000E+02  0.51100000000E-03 0. -1.
         11   -1    0    0    0    0 -0.00000000000E+00 -0.00000000000E+00 -0.45593999997E+02  0.45594000000E+02  0.51100000000E-03 0.  1.
    9900012    2    1    2    0    0 -0.13547050704E+02  0.35229000542E+02  0.24586752325E+02  0.46142318167E+02  0.10000003697E+02 0.  0.
        -12    1    1    2    0    0  0.13547050704E+02 -0.35229000542E+02 -0.24586752325E+02  0.45045681833E+02  0.00000000000E+00 0.  1.
         11    1    3    3    0    0 -0.70848962209E+00  0.23376838183E+00  0.86732558744E+00  0.11440538172E+01  0.51100000000E-03 0. -1.
        -11    1    3    3    0    0 -0.28862633641E+01  0.10815730381E+02  0.28711294044E+01  0.11556553301E+02  0.51100000000E-03 0.  1.
        -12    1    3    3    0    0 -0.99522977180E+01  0.24179501779E+02  0.20848297333E+02  0.33441711048E+02  0.00000000000E+00 0.  1.
</event>
<event>
 7    1  0.1563903E-008  0.4614232E+02  0.7816164E-02  0.1320468E+00
        -11   -1    0    0    0    0  0.00000000000E+00  0.00000000000E+00  0.45593999997E+02  0.45594000000E+02  0.51100000000E-03 0.  1.
         11   -1    0    0    0    0 -0.00000000000E+00 -0.00000000000E+00 -0.45593999997E+02  0.45594000000E+02  0.51100000000E-03 0. -1.
    9900012    2    1    2    0    0  0.42693255052E+00  0.12629221166E+02 -0.43236950876E+02  0.46142318523E+02  0.10000006947E+02 0.  0.
        -12    1    1    2    0    0 -0.42693255052E+00 -0.12629221166E+02  0.43236950876E+02  0.45045681477E+02  0.00000000000E+00 0.  1.
         11    1    3    3    0    0 -0.21316213743E+01  0.26584955968E+01 -0.18615231497E+02  0.18924541011E+02  0.51100000000E-03 0. -1.
        -11    1    3    3    0    0  0.13702311014E+01  0.85728840485E+01 -0.14260078649E+02  0.16694960842E+02  0.51100000000E-03 0.  1.
        -12    1    3    3    0    0  0.11883228234E+01  0.13978415206E+01 -0.10361640730E+02  0.10522816670E+02  0.00000000000E+00 0.  1.
</event>
<event>
 7    1  0.1563903E-008  0.4614232E+02  0.7816164E-02  0.1320468E+00
        -11   -1    0    0    0    0  0.00000000000E+00  0.00000000000E+00  0.45593999997E+02  0.45594000000E+02  0.51100000000E-03 0. -1.
         11   -1    0    0    0    0 -0.00000000000E+00 -0.00000000000E+00 -0.45593999997E+02  0.45594000000E+02  0.51100000000E-03 0.  1.
    9900012    2    1    2    0    0  0.40219917541E+02 -0.18868116089E+02  0.74475388352E+01  0.46142318671E+02  0.10000008293E+02 0.  0.
        -12    1    1    2    0    0 -0.40219917541E+02  0.18868116089E+02 -0.74475388352E+01  0.45045681329E+02  0.00000000000E+00 0.  1.
         11    1    3    3    0    0  0.15412553250E+02 -0.69059304356E+01  0.43788917099E+01  0.17447445823E+02  0.51100000000E-03 0. -1.
        -11    1    3    3    0    0  0.20244403647E+02 -0.12519359389E+02  0.15479490074E+01  0.23853016264E+02  0.51100000000E-03 0.  1.
        -12    1    3    3    0    0  0.45629606437E+01  0.55717373521E+00  0.15206981179E+01  0.48418565833E+01  0.00000000000E+00 0.  1.
</event>
<event>
 7    1  0.1563903E-008  0.4614232E+02  0.7816164E-02  0.1320468E+00
        -11   -1    0    0    0    0  0.00000000000E+00  0.00000000000E+00  0.45593999997E+02  0.45594000000E+02  0.51100000000E-03 0.  1.
         11   -1    0    0    0    0 -0.00000000000E+00 -0.00000000000E+00 -0.45593999997E+02  0.45594000000E+02  0.51100000000E-03 0. -1.
    9900012    2    1    2    0    0  0.13093881558E+02 -0.16174459628E+00 -0.43100321359E+02  0.46142316557E+02  0.99999890238E+01 0.  0.
        -12    1    1    2    0    0 -0.13093881558E+02  0.16174459628E+00  0.43100321359E+02  0.45045683443E+02  0.00000000000E+00 0.  1.
         11    1    3    3    0    0  0.25196272092E+01 -0.28531597154E+01 -0.79080051677E+01  0.87764222568E+01  0.51100000000E-03 0. -1.
        -11    1    3    3    0    0  0.57982053884E+01  0.38953060811E+01 -0.14491019909E+02  0.16086710461E+02  0.51100000000E-03 0.  1.
        -12    1    3    3    0    0  0.47760489607E+01 -0.12038909620E+01 -0.20701296283E+02  0.21279183840E+02  0.00000000000E+00 0.  1.
</event>
<event>
 7    1  0.1563903E-008  0.4614232E+02  0.7816164E-02  0.1320468E+00
        -11   -1    0    0    0    0  0.00000000000E+00  0.00000000000E+00  0.45593999997E+02  0.45594000000E+02  0.51100000000E-03 0.  1.
         11   -1    0    0    0    0 -0.00000000000E+00 -0.00000000000E+00 -0.45593999997E+02  0.45594000000E+02  0.51100000000E-03 0. -1.
    9900012    2    1    2    0    0 -0.44546966575E+02 -0.24315574723E+01  0.62264274748E+01  0.46142322052E+02  0.10000039124E+02 0.  0.
        -12    1    1    2    0    0  0.44546966575E+02  0.24315574723E+01 -0.62264274748E+01  0.45045677948E+02  0.00000000000E+00 0.  1.
         11    1    3    3    0    0 -0.18199554085E+02 -0.11540846077E+01 -0.16432414205E+01  0.18309995161E+02  0.51100000000E-03 0. -1.
        -11    1    3    3    0    0 -0.12921820677E+02  0.86794100690E+00  0.53115363697E+01  0.13997828048E+02  0.51100000000E-03 0.  1.
         12    1    3    3    0    0 -0.13425591813E+02 -0.21454138715E+01  0.25581325256E+01  0.13834498843E+02  0.00000000000E+00 0. -1.
</event>
<event>
 7    1  0.1563903E-008  0.4614232E+02  0.7816164E-02  0.1320468E+00
        -11   -1    0    0    0    0  0.00000000000E+00  0.00000000000E+00  0.45593999997E+02  0.45594000000E+02  0.51100000000E-03 0.  1.
         11   -1    0    0    0    0 -0.00000000000E+00 -0.00000000000E+00 -0.45593999997E+02  0.45594000000E+02  0.51100000000E-03 0. -1.
    9900012    2    1    2    0    0 -0.44996521761E+02 -0.15557109485E+01 -0.14164283368E+01  0.46142317894E+02  0.10000001210E+02 0.  0.
        -12    1    1    2    0    0  0.44996521761E+02  0.15557109485E+01  0.14164283368E+01  0.45045682106E+02  0.00000000000E+00 0.  1.
         11    1    3    3    0    0 -0.84382836298E+01 -0.17414323593E+01 -0.30447725595E+00  0.86214803798E+01  0.51100000000E-03 0. -1.
        -11    1    3    3    0    0 -0.18383755678E+02  0.42569918431E+01 -0.14291358122E+00  0.18870741293E+02  0.51100000000E-03 0.  1.
        -12    1    3    3    0    0 -0.18174482454E+02 -0.40712704323E+01 -0.96903749962E+00  0.18650096221E+02  0.00000000000E+00 0.  1.
</event>
<event>
 7    1  0.1563903E-008  0.4614232E+02  0.7816164E-02  0.1320468E+00
        -11   -1    0    0    0    0  0.00000000000E+00  0.00000000000E+00  0.45593999997E+02  0.45594000000E+02  0.51100000000E-03 0. -1.
         11   -1    0    0    0    0 -0.00000000000E+00 -0.00000000000E+00 -0.45593999997E+02  0.45594000000E+02  0.51100000000E-03 0.  1.
    9900012    2    1    2    0    0 -0.28344663460E+02 -0.33012214710E+02  0.11657065385E+02  0.46142318297E+02  0.10000004889E+02 0.  0.
        -12    1    1    2    0    0  0.28344663460E+02  0.33012214710E+02 -0.11657065385E+02  0.45045681703E+02  0.00000000000E+00 0.  1.
         11    1    3    3    0    0 -0.23822676933E+02 -0.23530789028E+02  0.11660959379E+02  0.35456959013E+02  0.51100000000E-03 0. -1.
        -11    1    3    3    0    0 -0.27290556083E+01 -0.76482904171E+01 -0.50844809189E-01  0.81207558929E+01  0.51100000000E-03 0.  1.
         12    1    3    3    0    0 -0.17929309186E+01 -0.18331352640E+01  0.46950814797E-01  0.25646033912E+01  0.00000000000E+00 0. -1.
</event>
<event>
 7    1  0.1563903E-008  0.4614232E+02  0.7816164E-02  0.1320468E+00
        -11   -1    0    0    0    0  0.00000000000E+00  0.00000000000E+00  0.45593999997E+02  0.45594000000E+02  0.51100000000E-03 0.  1.
         11   -1    0    0    0    0 -0.00000000000E+00 -0.00000000000E+00 -0.45593999997E+02  0.45594000000E+02  0.51100000000E-03 0. -1.
    9900012    2    1    2    0    0 -0.10874731130E+02  0.22031496506E+01 -0.43657757936E+02  0.46142317926E+02  0.10000001499E+02 0.  0.
        -12    1    1    2    0    0  0.10874731130E+02 -0.22031496506E+01  0.43657757936E+02  0.45045682074E+02  0.00000000000E+00 0.  1.
         11    1    3    3    0    0 -0.72078268830E+01  0.19399832295E+01 -0.40019581758E+02  0.40709743645E+02  0.51100000000E-03 0. -1.
        -11    1    3    3    0    0 -0.19430824010E+01 -0.55280701028E+00 -0.12473858610E+01  0.23742654769E+01  0.51100000000E-03 0.  1.
         12    1    3    3    0    0 -0.17238218456E+01  0.81597343137E+00 -0.23907903174E+01  0.30583088036E+01  0.00000000000E+00 0. -1.
</event>
<event>
 7    1  0.1563903E-008  0.4614231E+02  0.7816164E-02  0.1320468E+00
        -11   -1    0    0    0    0  0.00000000000E+00  0.00000000000E+00  0.45593999997E+02  0.45594000000E+02  0.51100000000E-03 0. -1.
         11   -1    0    0    0    0 -0.00000000000E+00 -0.00000000000E+00 -0.45593999997E+02  0.45594000000E+02  0.51100000000E-03 0.  1.
    9900012    2    1    2    0    0  0.14804008766E+02 -0.42020742047E+02 -0.66492763785E+01  0.46142308596E+02  0.99999164248E+01 0.  0.
        -12    1    1    2    0    0 -0.14804008766E+02  0.42020742047E+02  0.66492763785E+01  0.45045691404E+02  0.00000000000E+00 0.  1.
         11    1    3    3    0    0  0.79398647410E+01 -0.27747316822E+02 -0.66554840009E+01  0.29618415056E+02  0.51100000000E-03 0. -1.
        -11    1    3    3    0    0  0.39082612663E+01 -0.45119420067E+01  0.16499103348E+01  0.61930873699E+01  0.51100000000E-03 0.  1.
        -12    1    3    3    0    0  0.29558827584E+01 -0.97614832186E+01 -0.16437027123E+01  0.10330806170E+02  0.00000000000E+00 0.  1.
</event>
<event>
 7    1  0.1563903E-008  0.4614232E+02  0.7816164E-02  0.1320468E+00
        -11   -1    0    0    0    0  0.00000000000E+00  0.00000000000E+00  0.45593999997E+02  0.45594000000E+02  0.51100000000E-03 0.  1.
         11   -1    0    0    0    0 -0.00000000000E+00 -0.00000000000E+00 -0.45593999997E+02  0.45594000000E+02  0.51100000000E-03 0. -1.
    9900012    2    1    2    0    0 -0.17460177765E+02 -0.41522625672E+02  0.35673151278E+00  0.46142317547E+02  0.99999980457E+01 0.  0.
        -12    1    1    2    0    0  0.17460177765E+02  0.41522625672E+02 -0.35673151278E+00  0.45045682453E+02  0.00000000000E+00 0.  1.
         11    1    3    3    0    0 -0.13888949651E+02 -0.23203161008E+02  0.20528887478E+01  0.27120176173E+02  0.51100000000E-03 0. -1.
        -11    1    3    3    0    0 -0.13221709724E+01 -0.12122590036E+02  0.79763390897E-01  0.12194740166E+02  0.51100000000E-03 0.  1.
        -12    1    3    3    0    0 -0.22490571423E+01 -0.61968746277E+01 -0.17759206259E+01  0.68274012077E+01  0.00000000000E+00 0.  1.
</event>
<event>
 7    1  0.1563903E-008  0.4614232E+02  0.7816164E-02  0.1320468E+00
        -11   -1    0    0    0    0  0.00000000000E+00  0.00000000000E+00  0.45593999997E+02  0.45594000000E+02  0.51100000000E-03 0.  1.
         11   -1    0    0    0    0 -0.00000000000E+00 -0.00000000000E+00 -0.45593999997E+02  0.45594000000E+02  0.51100000000E-03 0. -1.
    9900012    2    1    2    0    0  0.19230918954E+02 -0.13412096312E+02 -0.38462980728E+02  0.46142318101E+02  0.10000003096E+02 0.  0.
        -12    1    1    2    0    0 -0.19230918954E+02  0.13412096312E+02  0.38462980728E+02  0.45045681899E+02  0.00000000000E+00 0.  1.
         11    1    3    3    0    0  0.14189378920E+02 -0.88904006290E+01 -0.34264112158E+02  0.38136689418E+02  0.51100000000E-03 0. -1.
        -11    1    3    3    0    0  0.30994950490E+01 -0.32123611586E+01 -0.25453833292E+01  0.51385903053E+01  0.51100000000E-03 0.  1.
         12    1    3    3    0    0  0.19420449843E+01 -0.13093345241E+01 -0.16534852406E+01  0.28670383775E+01  0.00000000000E+00 0. -1.
</event>
<event>
 7    1  0.1563903E-008  0.4614231E+02  0.7816164E-02  0.1320468E+00
        -11   -1    0    0    0    0  0.00000000000E+00  0.00000000000E+00  0.45593999997E+02  0.45594000000E+02  0.51100000000E-03 0.  1.
         11   -1    0    0    0    0 -0.00000000000E+00 -0.00000000000E+00 -0.45593999997E+02  0.45594000000E+02  0.51100000000E-03 0. -1.
    9900012    2    1    2    0    0 -0.41451863964E+02 -0.11904946348E+02  0.13004959868E+02  0.46142314804E+02  0.99999730308E+01 0.  0.
        -12    1    1    2    0    0  0.41451863964E+02  0.11904946348E+02 -0.13004959868E+02  0.45045685196E+02  0.00000000000E+00 0.  1.
         11    1    3    3    0    0 -0.32023396060E+02 -0.11913227320E+02  0.10102652207E+02  0.35629853526E+02  0.51100000000E-03 0. -1.
        -11    1    3    3    0    0 -0.16885306492E+01 -0.14408793518E+01  0.83066132064E+00  0.23700775410E+01  0.51100000000E-03 0.  1.
         12    1    3    3    0    0 -0.77399372551E+01  0.14491603242E+01  0.20716463406E+01  0.81423837369E+01  0.00000000000E+00 0. -1.
</event>
<event>
 7    1  0.1563903E-008  0.4614232E+02  0.7816164E-02  0.1320468E+00
        -11   -1    0    0    0    0  0.00000000000E+00  0.00000000000E+00  0.45593999997E+02  0.45594000000E+02  0.51100000000E-03 0.  1.
         11   -1    0    0    0    0 -0.00000000000E+00 -0.00000000000E+00 -0.45593999997E+02  0.45594000000E+02  0.51100000000E-03 0. -1.
    9900012    2    1    2    0    0  0.38412704773E+01  0.78404912995E+01 -0.44191455885E+02  0.46142318343E+02  0.10000005308E+02 0.  0.
        -12    1    1    2    0    0 -0.38412704773E+01 -0.78404912995E+01  0.44191455885E+02  0.45045681657E+02  0.00000000000E+00 0.  1.
         11    1    3    3    0    0  0.26113047378E+01  0.25292702005E+01 -0.14115898051E+02  0.14576511868E+02  0.51100000000E-03 0. -1.
        -11    1    3    3    0    0 -0.26243501863E+01 -0.42397414815E+00 -0.91958708262E+01  0.95724087090E+01  0.51100000000E-03 0.  1.
        -12    1    3    3    0    0  0.38543159258E+01  0.57351952472E+01 -0.20879687008E+02  0.21993397767E+02  0.00000000000E+00 0.  1.
</event>
<event>
 7    1  0.1563903E-008  0.4614232E+02  0.7816164E-02  0.1320468E+00
        -11   -1    0    0    0    0  0.00000000000E+00  0.00000000000E+00  0.45593999997E+02  0.45594000000E+02  0.51100000000E-03 0.  1.
         11   -1    0    0    0    0 -0.00000000000E+00 -0.00000000000E+00 -0.45593999997E+02  0.45594000000E+02  0.51100000000E-03 0. -1.
    9900012    2    1    2    0    0 -0.17347235178E+02 -0.40468130535E+02 -0.95140597315E+01  0.46142317744E+02  0.99999998473E+01 0.  0.
        -12    1    1    2    0    0  0.17347235178E+02  0.40468130535E+02  0.95140597315E+01  0.45045682256E+02  0.00000000000E+00 0.  1.
         11    1    3    3    0    0 -0.76981626362E+01 -0.16915286005E+02 -0.19657462289E+01  0.18688305624E+02  0.51100000000E-03 0. -1.
        -11    1    3    3    0    0  0.18000898027E+00  0.21821916141E+00 -0.81734222625E+00  0.86491121586E+00  0.51100000000E-03 0.  1.
         12    1    3    3    0    0 -0.98290815216E+01 -0.23771063691E+02 -0.67309712763E+01  0.26589100904E+02  0.00000000000E+00 0. -1.
</event>
<event>
 7    1  0.1563903E-008  0.4614232E+02  0.7816164E-02  0.1320468E+00
        -11   -1    0    0    0    0  0.00000000000E+00  0.00000000000E+00  0.45593999997E+02  0.45594000000E+02  0.51100000000E-03 0. -1.
         11   -1    0    0    0    0 -0.00000000000E+00 -0.00000000000E+00 -0.45593999997E+02  0.45594000000E+02  0.51100000000E-03 0.  1.
    9900012    2    1    2    0    0 -0.80990356001E+01  0.43401724233E+02  0.89336152365E+01  0.46142317352E+02  0.99999962718E+01 0.  0.
        -12    1    1    2    0    0  0.80990356001E+01 -0.43401724233E+02 -0.89336152365E+01  0.45045682648E+02  0.00000000000E+00 0.  1.
         11    1    3    3    0    0  0.35672508764E+00  0.11882673053E+01 -0.78606693228E+00  0.14687183052E+01  0.51100000000E-03 0.  1.
        -11    1    3    3    0    0 -0.44297732390E+01  0.19073726633E+02  0.95650550144E+00  0.19604714782E+02  0.51100000000E-03 0. -1.
         12    1    3    3    0    0 -0.40259874487E+01  0.23139730294E+02  0.87631766674E+01  0.25068884265E+02  0.00000000000E+00 0. -1.
</event>
<event>
 7    1  0.1563903E-008  0.4614232E+02  0.7816164E-02  0.1320468E+00
        -11   -1    0    0    0    0  0.00000000000E+00  0.00000000000E+00  0.45593999997E+02  0.45594000000E+02  0.51100000000E-03 0.  1.
         11   -1    0    0    0    0 -0.00000000000E+00 -0.00000000000E+00 -0.45593999997E+02  0.45594000000E+02  0.51100000000E-03 0. -1.
    9900012    2    1    2    0    0 -0.19250126212E+02 -0.28154499411E+02 -0.29425673968E+02  0.46142317802E+02  0.10000000368E+02 0.  0.
        -12    1    1    2    0    0  0.19250126212E+02  0.28154499411E+02  0.29425673968E+02  0.45045682198E+02  0.00000000000E+00 0.  1.
         11    1    3    3    0    0 -0.11370057863E+02 -0.99637497583E+01 -0.14978259295E+02  0.21281512560E+02  0.51100000000E-03 0. -1.
        -11    1    3    3    0    0 -0.42719606786E+00 -0.26330790280E+01 -0.36090974567E+01  0.44878933099E+01  0.51100000000E-03 0.  1.
         12    1    3    3    0    0 -0.74528722810E+01 -0.15557670625E+02 -0.10838317216E+02  0.20372911932E+02  0.00000000000E+00 0. -1.
</event>
<event>
 7    1  0.1563903E-008  0.4614232E+02  0.7816164E-02  0.1320468E+00
        -11   -1    0    0    0    0  0.00000000000E+00  0.00000000000E+00  0.45593999997E+02  0.45594000000E+02  0.51100000000E-03 0. -1.
         11   -1    0    0    0    0 -0.00000000000E+00 -0.00000000000E+00 -0.45593999997E+02  0.45594000000E+02  0.51100000000E-03 0.  1.
    9900012    2    1    2    0    0  0.15627071709E+02  0.77847130845E+01  0.41524767477E+02  0.46142318276E+02  0.10000004691E+02 0.  0.
        -12    1    1    2    0    0 -0.15627071709E+02 -0.77847130845E+01 -0.41524767477E+02  0.45045681724E+02  0.00000000000E+00 0.  1.
         11    1    3    3    0    0  0.57850700835E+01  0.24963012573E+01  0.22862326078E+02  0.23714647579E+02  0.51100000000E-03 0. -1.
        -11    1    3    3    0    0  0.38775264951E+01  0.42132640705E+01  0.55121538621E+01  0.79479963707E+01  0.51100000000E-03 0.  1.
        -12    1    3    3    0    0  0.59644751301E+01  0.10751477566E+01  0.13150287537E+02  0.14479674326E+02  0.00000000000E+00 0.  1.
</event>
<event>
 7    1  0.1563903E-008  0.4614232E+02  0.7816164E-02  0.1320468E+00
        -11   -1    0    0    0    0  0.00000000000E+00  0.00000000000E+00  0.45593999997E+02  0.45594000000E+02  0.51100000000E-03 0.  1.
         11   -1    0    0    0    0 -0.00000000000E+00 -0.00000000000E+00 -0.45593999997E+02  0.45594000000E+02  0.51100000000E-03 0. -1.
    9900012    2    1    2    0    0  0.36312933760E+02 -0.26255075230E+02 -0.45995015175E+01  0.46142317101E+02  0.99999939844E+01 0.  0.
        -12    1    1    2    0    0 -0.36312933760E+02  0.26255075230E+02  0.45995015175E+01  0.45045682899E+02  0.00000000000E+00 0.  1.
         11    1    3    3    0    0  0.26780563224E+02 -0.16536251518E+02 -0.44860381940E+01  0.31792620525E+02  0.51100000000E-03 0. -1.
        -11    1    3    3    0    0  0.69260127336E+01 -0.65456262859E+01 -0.21452543121E+01  0.97681621704E+01  0.51100000000E-03 0.  1.
         12    1    3    3    0    0  0.26063578021E+01 -0.31731974258E+01  0.20317909886E+01  0.45815344064E+01  0.00000000000E+00 0. -1.
</event>
<event>
 7    1  0.1563903E-008  0.4614232E+02  0.7816164E-02  0.1320468E+00
        -11   -1    0    0    0    0  0.00000000000E+00  0.00000000000E+00  0.45593999997E+02  0.45594000000E+02  0.51100000000E-03 0.  1.
         11   -1    0    0    0    0 -0.00000000000E+00 -0.00000000000E+00 -0.45593999997E+02  0.45594000000E+02  0.51100000000E-03 0. -1.
    9900012    2    1    2    0    0  0.32828664112E+02 -0.24944594042E+02 -0.18142754564E+02  0.46142317605E+02  0.99999985745E+01 0.  0.
        -12    1    1    2    0    0 -0.32828664112E+02  0.24944594042E+02  0.18142754564E+02  0.45045682395E+02  0.00000000000E+00 0.  1.
         11    1    3    3    0    0  0.15127698111E+02 -0.11803702123E+02 -0.81889199506E+01  0.20862239673E+02  0.51100000000E-03 0. -1.
        -11    1    3    3    0    0 -0.23932577429E+00 -0.60975671230E+00  0.68485879987E+00  0.94768766549E+00  0.51100000000E-03 0.  1.
        -12    1    3    3    0    0  0.17940291775E+02 -0.12531135207E+02 -0.10638693413E+02  0.24332390267E+02  0.00000000000E+00 0.  1.
</event>
<event>
 7    1  0.1563903E-008  0.4614232E+02  0.7816164E-02  0.1320468E+00
        -11   -1    0    0    0    0  0.00000000000E+00  0.00000000000E+00  0.45593999997E+02  0.45594000000E+02  0.51100000000E-03 0.  1.
         11   -1    0    0    0    0 -0.00000000000E+00 -0.00000000000E+00 -0.45593999997E+02  0.45594000000E+02  0.51100000000E-03 0. -1.
    9900012    2    1    2    0    0  0.40625440734E+02  0.17306991775E+02  0.88969083210E+01  0.46142319000E+02  0.10000011296E+02 0.  0.
        -12    1    1    2    0    0 -0.40625440734E+02 -0.17306991775E+02 -0.88969083210E+01  0.45045681000E+02  0.00000000000E+00 0.  1.
         11    1    3    3    0    0  0.21605123258E+02  0.38364398289E+01  0.35351968794E+01  0.22226048655E+02  0.51100000000E-03 0. -1.
        -11    1    3    3    0    0  0.10146920371E+02  0.72372256431E+01  0.28315482226E+01  0.12781044309E+02  0.51100000000E-03 0.  1.
         12    1    3    3    0    0  0.88733971046E+01  0.62333263027E+01  0.25301632189E+01  0.11135226037E+02  0.00000000000E+00 0. -1.
</event>
<event>
 7    1  0.1563903E-008  0.4614232E+02  0.7816164E-02  0.1320468E+00
        -11   -1    0    0    0    0  0.00000000000E+00  0.00000000000E+00  0.45593999997E+02  0.45594000000E+02  0.51100000000E-03 0. -1.
         11   -1    0    0    0    0 -0.00000000000E+00 -0.00000000000E+00 -0.45593999997E+02  0.45594000000E+02  0.51100000000E-03 0.  1.
    9900012    2    1    2    0    0  0.28348556031E+02  0.17683819404E+02  0.30211841576E+02  0.46142317975E+02  0.10000001948E+02 0.  0.
        -12    1    1    2    0    0 -0.28348556031E+02 -0.17683819404E+02 -0.30211841576E+02  0.45045682025E+02  0.00000000000E+00 0.  1.
         11    1    3    3    0    0  0.39868794704E+01  0.20859328538E+01  0.13586290006E+01  0.47002336968E+01  0.51100000000E-03 0. -1.
        -11    1    3    3    0    0  0.12389631315E+01  0.23674133061E+00 -0.17870674150E+00  0.12739750623E+01  0.51100000000E-03 0.  1.
         12    1    3    3    0    0  0.23122713429E+02  0.15361145219E+02  0.29031919317E+02  0.40168109216E+02  0.00000000000E+00 0. -1.
</event>
<event>
 7    1  0.1563903E-008  0.4614232E+02  0.7816164E-02  0.1320468E+00
        -11   -1    0    0    0    0  0.00000000000E+00  0.00000000000E+00  0.45593999997E+02  0.45594000000E+02  0.51100000000E-03 0. -1.
         11   -1    0    0    0    0 -0.00000000000E+00 -0.00000000000E+00 -0.45593999997E+02  0.45594000000E+02  0.51100000000E-03 0.  1.
    9900012    2    1    2    0    0  0.27207061487E+02 -0.22111132075E+02  0.28284045091E+02  0.46142316931E+02  0.99999924341E+01 0.  0.
        -12    1    1    2    0    0 -0.27207061487E+02  0.22111132075E+02 -0.28284045091E+02  0.45045683069E+02  0.00000000000E+00 0.  1.
         11    1    3    3    0    0  0.20701136810E+02 -0.19569024905E+02  0.23098807312E+02  0.36674769263E+02  0.51100000000E-03 0. -1.
        -11    1    3    3    0    0  0.26819408699E+00  0.78352164604E+00  0.32806659040E+00  0.89076494484E+00  0.51100000000E-03 0.  1.
        -12    1    3    3    0    0  0.62377305908E+01 -0.33256288157E+01  0.48571711883E+01  0.85767827240E+01  0.00000000000E+00 0.  1.
</event>
<event>
 7    1  0.1563903E-008  0.4614232E+02  0.7816164E-02  0.1320468E+00
        -11   -1    0    0    0    0  0.00000000000E+00  0.00000000000E+00  0.45593999997E+02  0.45594000000E+02  0.51100000000E-03 0.  1.
         11   -1    0    0    0    0 -0.00000000000E+00 -0.00000000000E+00 -0.45593999997E+02  0.45594000000E+02  0.51100000000E-03 0. -1.
    9900012    2    1    2    0    0  0.18094314564E+02  0.10103275251E+02 -0.39995413080E+02  0.46142318101E+02  0.10000003099E+02 0.  0.
        -12    1    1    2    0    0 -0.18094314564E+02 -0.10103275251E+02  0.39995413080E+02  0.45045681899E+02  0.00000000000E+00 0.  1.
         11    1    3    3    0    0  0.57766417200E+01  0.65555055442E+01 -0.23405031118E+02  0.24982788564E+02  0.51100000000E-03 0.  1.
        -11    1    3    3    0    0  0.91010110967E+01  0.14099970592E+01 -0.10722663019E+02  0.14134779700E+02  0.51100000000E-03 0. -1.
        -12    1    3    3    0    0  0.32166617475E+01  0.21377726477E+01 -0.58677189418E+01  0.70247498369E+01  0.00000000000E+00 0.  1.
</event>
<event>
 7    1  0.1563903E-008  0.4614232E+02  0.7816164E-02  0.1320468E+00
        -11   -1    0    0    0    0  0.00000000000E+00  0.00000000000E+00  0.45593999997E+02  0.45594000000E+02  0.51100000000E-03 0. -1.
         11   -1    0    0    0    0 -0.00000000000E+00 -0.00000000000E+00 -0.45593999997E+02  0.45594000000E+02  0.51100000000E-03 0.  1.
    9900012    2    1    2    0    0  0.13421751901E+02  0.25611943485E+02  0.34539808965E+02  0.46142317893E+02  0.10000001199E+02 0.  0.
        -12    1    1    2    0    0 -0.13421751901E+02 -0.25611943485E+02 -0.34539808965E+02  0.45045682107E+02  0.00000000000E+00 0.  1.
         11    1    3    3    0    0  0.29722334374E+01  0.67314141444E+01  0.11832728476E+02  0.13934115380E+02  0.51100000000E-03 0. -1.
        -11    1    3    3    0    0  0.72724394522E+01  0.13903208911E+02  0.11210169391E+02  0.19283554953E+02  0.51100000000E-03 0.  1.
        -12    1    3    3    0    0  0.31770790115E+01  0.49773204291E+01  0.11496911099E+02  0.12924647559E+02  0.00000000000E+00 0.  1.
</event>
<event>
 7    1  0.1563903E-008  0.4614231E+02  0.7816164E-02  0.1320468E+00
        -11   -1    0    0    0    0  0.00000000000E+00  0.00000000000E+00  0.45593999997E+02  0.45594000000E+02  0.51100000000E-03 0.  1.
         11   -1    0    0    0    0 -0.00000000000E+00 -0.00000000000E+00 -0.45593999997E+02  0.45594000000E+02  0.51100000000E-03 0. -1.
    9900012    2    1    2    0    0 -0.17710074316E+02 -0.30068250957E+02 -0.28484512027E+02  0.46142313489E+02  0.99999610397E+01 0.  0.
        -12    1    1    2    0    0  0.17710074316E+02  0.30068250957E+02  0.28484512027E+02  0.45045686511E+02  0.00000000000E+00 0.  1.
         11    1    3    3    0    0 -0.11998389189E+02 -0.19071068496E+02 -0.21151077784E+02  0.30903641992E+02  0.51100000000E-03 0. -1.
        -11    1    3    3    0    0 -0.40693525327E+01 -0.46710869450E+01 -0.12710118155E+01  0.63240931823E+01  0.51100000000E-03 0.  1.
        -12    1    3    3    0    0 -0.16423325942E+01 -0.63260955165E+01 -0.60624224274E+01  0.89145783143E+01  0.00000000000E+00 0.  1.
</event>
<event>
 7    1  0.1563903E-008  0.4614232E+02  0.7816164E-02  0.1320468E+00
        -11   -1    0    0    0    0  0.00000000000E+00  0.00000000000E+00  0.45593999997E+02  0.45594000000E+02  0.51100000000E-03 0.  1.
         11   -1    0    0    0    0 -0.00000000000E+00 -0.00000000000E+00 -0.45593999997E+02  0.45594000000E+02  0.51100000000E-03 0. -1.
    9900012    2    1    2    0    0 -0.48100987092E+01  0.21116085863E+02  0.39497940021E+02  0.46142318768E+02  0.10000009182E+02 0.  0.
        -12    1    1    2    0    0  0.48100987092E+01 -0.21116085863E+02 -0.39497940021E+02  0.45045681232E+02  0.00000000000E+00 0.  1.
         11    1    3    3    0    0  0.74505577822E+00  0.95719028737E+01  0.20349328106E+02  0.22500479714E+02  0.51100000000E-03 0. -1.
        -11    1    3    3    0    0 -0.44053964350E+01  0.34897174555E+01  0.63906439583E+01  0.85103452417E+01  0.51100000000E-03 0.  1.
         12    1    3    3    0    0 -0.11497580524E+01  0.80544655334E+01  0.12757967957E+02  0.15131493812E+02  0.00000000000E+00 0. -1.
</event>
<event>
 7    1  0.1563903E-008  0.4614232E+02  0.7816164E-02  0.1320468E+00
        -11   -1    0    0    0    0  0.00000000000E+00  0.00000000000E+00  0.45593999997E+02  0.45594000000E+02  0.51100000000E-03 0.  1.
         11   -1    0    0    0    0 -0.00000000000E+00 -0.00000000000E+00 -0.45593999997E+02  0.45594000000E+02  0.51100000000E-03 0. -1.
    9900012    2    1    2    0    0  0.14353360675E+02  0.75649193100E+01 -0.42022210348E+02  0.46142321746E+02  0.10000036336E+02 0.  0.
        -12    1    1    2    0    0 -0.14353360675E+02 -0.75649193100E+01  0.42022210348E+02  0.45045678254E+02  0.00000000000E+00 0.  1.
         11    1    3    3    0    0  0.52301626620E+01  0.55400973121E+01 -0.22408884704E+02  0.23668658467E+02  0.51100000000E-03 0. -1.
        -11    1    3    3    0    0  0.80194445497E+01  0.29383005791E+01 -0.12014039991E+02  0.14740497222E+02  0.51100000000E-03 0.  1.
         12    1    3    3    0    0  0.11037534631E+01 -0.91347858125E+00 -0.75992856533E+01  0.77331660571E+01  0.00000000000E+00 0. -1.
</event>
<event>
 7    1  0.1563903E-008  0.4614232E+02  0.7816164E-02  0.1320468E+00
        -11   -1    0    0    0    0  0.00000000000E+00  0.00000000000E+00  0.45593999997E+02  0.45594000000E+02  0.51100000000E-03 0.  1.
         11   -1    0    0    0    0 -0.00000000000E+00 -0.00000000000E+00 -0.45593999997E+02  0.45594000000E+02  0.51100000000E-03 0. -1.
    9900012    2    1    2    0    0  0.27477578643E+02 -0.75320921600E+01 -0.34890738828E+02  0.46142318783E+02  0.10000009315E+02 0.  0.
        -12    1    1    2    0    0 -0.27477578643E+02  0.75320921600E+01  0.34890738828E+02  0.45045681217E+02  0.00000000000E+00 0.  1.
         11    1    3    3    0    0  0.17100783067E+02 -0.45919007388E+01 -0.25357725915E+02  0.30927925855E+02  0.51100000000E-03 0. -1.
        -11    1    3    3    0    0  0.17807521308E+00  0.73843628868E+00  0.26353885848E-01  0.76006165695E+00  0.51100000000E-03 0.  1.
         12    1    3    3    0    0  0.10198720363E+02 -0.36786277099E+01 -0.95593667990E+01  0.14454331270E+02  0.00000000000E+00 0. -1.
</event>
<event>
 7    1  0.1563903E-008  0.4614232E+02  0.7816164E-02  0.1320468E+00
        -11   -1    0    0    0    0  0.00000000000E+00  0.00000000000E+00  0.45593999997E+02  0.45594000000E+02  0.51100000000E-03 0.  1.
         11   -1    0    0    0    0 -0.00000000000E+00 -0.00000000000E+00 -0.45593999997E+02  0.45594000000E+02  0.51100000000E-03 0. -1.
    9900012    2    1    2    0    0 -0.43934686529E+02 -0.70370544469E+01 -0.70240052744E+01  0.46142318012E+02  0.10000002286E+02 0.  0.
        -12    1    1    2    0    0  0.43934686529E+02  0.70370544469E+01  0.70240052744E+01  0.45045681988E+02  0.00000000000E+00 0.  1.
         11    1    3    3    0    0 -0.10212806997E+01 -0.13136204069E+01 -0.53383006801E+00  0.17474517571E+01  0.51100000000E-03 0. -1.
        -11    1    3    3    0    0 -0.48162024495E+00 -0.10004918564E+01  0.33303311618E+00  0.11592468816E+01  0.51100000000E-03 0.  1.
         12    1    3    3    0    0 -0.42431785584E+02 -0.47229421837E+01 -0.68232083226E+01  0.43235619373E+02  0.00000000000E+00 0. -1.
</event>
<event>
 7    1  0.1563903E-008  0.4614232E+02  0.7816164E-02  0.1320468E+00
        -11   -1    0    0    0    0  0.00000000000E+00  0.00000000000E+00  0.45593999997E+02  0.45594000000E+02  0.51100000000E-03 0. -1.
         11   -1    0    0    0    0 -0.00000000000E+00 -0.00000000000E+00 -0.45593999997E+02  0.45594000000E+02  0.51100000000E-03 0.  1.
    9900012    2    1    2    0    0  0.44097023662E+02  0.22947446230E+01  0.89050593661E+01  0.46142318398E+02  0.10000005804E+02 0.  0.
        -12    1    1    2    0    0 -0.44097023662E+02 -0.22947446230E+01 -0.89050593661E+01  0.45045681602E+02  0.00000000000E+00 0.  1.
         11    1    3    3    0    0  0.14952914283E+02 -0.85216257026E+00 -0.81017573355E+00  0.14999073691E+02  0.51100000000E-03 0. -1.
        -11    1    3    3    0    0  0.24907772592E+02  0.12313347803E+01  0.83072278046E+01  0.26285420957E+02  0.51100000000E-03 0.  1.
        -12    1    3    3    0    0  0.42363367869E+01  0.19155724130E+01  0.14080072951E+01  0.48578237498E+01  0.00000000000E+00 0.  1.
</event>
<event>
 7    1  0.1563903E-008  0.4614232E+02  0.7816164E-02  0.1320468E+00
        -11   -1    0    0    0    0  0.00000000000E+00  0.00000000000E+00  0.45593999997E+02  0.45594000000E+02  0.51100000000E-03 0. -1.
         11   -1    0    0    0    0 -0.00000000000E+00 -0.00000000000E+00 -0.45593999997E+02  0.45594000000E+02  0.51100000000E-03 0.  1.
    9900012    2    1    2    0    0  0.44905023250E+02  0.87058099728E+00  0.34488359445E+01  0.46142317701E+02  0.99999994532E+01 0.  0.
        -12    1    1    2    0    0 -0.44905023250E+02 -0.87058099728E+00 -0.34488359445E+01  0.45045682299E+02  0.00000000000E+00 0.  1.
         11    1    3    3    0    0  0.20184633721E+02 -0.20343574430E+01  0.25630531083E+01  0.20448161046E+02  0.51100000000E-03 0. -1.
        -11    1    3    3    0    0  0.46491813758E+01 -0.56997029652E+00 -0.20517368131E+01  0.51136462349E+01  0.51100000000E-03 0.  1.
        -12    1    3    3    0    0  0.20071208154E+02  0.34749087368E+01  0.29375196494E+01  0.20580510420E+02  0.00000000000E+00 0.  1.
</event>
<event>
 7    1  0.1563903E-008  0.4614232E+02  0.7816164E-02  0.1320468E+00
        -11   -1    0    0    0    0  0.00000000000E+00  0.00000000000E+00  0.45593999997E+02  0.45594000000E+02  0.51100000000E-03 0. -1.
         11   -1    0    0    0    0 -0.00000000000E+00 -0.00000000000E+00 -0.45593999997E+02  0.45594000000E+02  0.51100000000E-03 0.  1.
    9900012    2    1    2    0    0  0.22320833209E+02  0.22911119946E+01  0.39059501196E+02  0.46142318486E+02  0.10000006614E+02 0.  0.
        -12    1    1    2    0    0 -0.22320833209E+02 -0.22911119946E+01 -0.39059501196E+02  0.45045681514E+02  0.00000000000E+00 0.  1.
         11    1    3    3    0    0  0.18489631757E+02  0.17097681095E+01  0.27385564557E+02  0.33087141548E+02  0.51100000000E-03 0. -1.
        -11    1    3    3    0    0 -0.31227293713E+00 -0.10844642200E+01  0.10958142453E+01  0.15730181668E+01  0.51100000000E-03 0.  1.
        -12    1    3    3    0    0  0.41434743892E+01  0.16658081052E+01  0.10578122395E+02  0.11482158771E+02  0.00000000000E+00 0.  1.
</event>
<event>
 7    1  0.1563903E-008  0.4614232E+02  0.7816164E-02  0.1320468E+00
        -11   -1    0    0    0    0  0.00000000000E+00  0.00000000000E+00  0.45593999997E+02  0.45594000000E+02  0.51100000000E-03 0.  1.
         11   -1    0    0    0    0 -0.00000000000E+00 -0.00000000000E+00 -0.45593999997E+02  0.45594000000E+02  0.51100000000E-03 0. -1.
    9900012    2    1    2    0    0  0.16340827939E+02 -0.22185419465E+02 -0.35635627334E+02  0.46142318408E+02  0.10000005901E+02 0.  0.
        -12    1    1    2    0    0 -0.16340827939E+02  0.22185419465E+02  0.35635627334E+02  0.45045681592E+02  0.00000000000E+00 0.  1.
         11    1    3    3    0    0  0.15532289597E+02 -0.22527100435E+02 -0.33472175240E+02  0.43233190834E+02  0.51100000000E-03 0. -1.
        -11    1    3    3    0    0  0.11399552017E+01  0.75241906185E+00 -0.12363790872E+01  0.18423533361E+01  0.51100000000E-03 0.  1.
         12    1    3    3    0    0 -0.33141685979E+00 -0.41073809211E+00 -0.92707300681E+00  0.10667742382E+01  0.00000000000E+00 0. -1.
</event>
<event>
 7    1  0.1563903E-008  0.4614231E+02  0.7816164E-02  0.1320468E+00
        -11   -1    0    0    0    0  0.00000000000E+00  0.00000000000E+00  0.45593999997E+02  0.45594000000E+02  0.51100000000E-03 0. -1.
         11   -1    0    0    0    0 -0.00000000000E+00 -0.00000000000E+00 -0.45593999997E+02  0.45594000000E+02  0.51100000000E-03 0.  1.
    9900012    2    1    2    0    0 -0.37865984018E+02  0.19803780431E+02  0.14251009800E+02  0.46142314909E+02  0.99999739941E+01 0.  0.
        -12    1    1    2    0    0  0.37865984018E+02 -0.19803780431E+02 -0.14251009800E+02  0.45045685091E+02  0.00000000000E+00 0.  1.
         11    1    3    3    0    0 -0.18848732225E+02  0.11907847052E+02  0.10359366618E+02  0.24584304035E+02  0.51100000000E-03 0. -1.
        -11    1    3    3    0    0 -0.17423579513E+02  0.56150755171E+01  0.25977433679E+01  0.18489414998E+02  0.51100000000E-03 0.  1.
        -12    1    3    3    0    0 -0.15936722795E+01  0.22808578619E+01  0.12938998136E+01  0.30685958756E+01  0.00000000000E+00 0.  1.
</event>
<event>
 7    1  0.1563903E-008  0.4614232E+02  0.7816164E-02  0.1320468E+00
        -11   -1    0    0    0    0  0.00000000000E+00  0.00000000000E+00  0.45593999997E+02  0.45594000000E+02  0.51100000000E-03 0. -1.
         11   -1    0    0    0    0 -0.00000000000E+00 -0.00000000000E+00 -0.45593999997E+02  0.45594000000E+02  0.51100000000E-03 0.  1.
    9900012    2    1    2    0    0  0.38688923774E+02  0.22786551942E+02  0.36129995258E+01  0.46142317212E+02  0.99999949955E+01 0.  0.
        -12    1    1    2    0    0 -0.38688923774E+02 -0.22786551942E+02 -0.36129995258E+01  0.45045682788E+02  0.00000000000E+00 0.  1.
         11    1    3    3    0    0  0.24142570485E+02  0.96653911626E+01  0.23898426945E+01  0.26115031003E+02  0.51100000000E-03 0. -1.
        -11    1    3    3    0    0  0.12657670022E+02  0.11565705635E+02 -0.29383809025E+00  0.17148425534E+02  0.51100000000E-03 0.  1.
        -12    1    3    3    0    0  0.18886832680E+01  0.15554551443E+01  0.15169949215E+01  0.28788606748E+01  0.00000000000E+00 0.  1.
</event>
<event>
 7    1  0.1563903E-008  0.4614232E+02  0.7816164E-02  0.1320468E+00
        -11   -1    0    0    0    0  0.00000000000E+00  0.00000000000E+00  0.45593999997E+02  0.45594000000E+02  0.51100000000E-03 0.  1.
         11   -1    0    0    0    0 -0.00000000000E+00 -0.00000000000E+00 -0.45593999997E+02  0.45594000000E+02  0.51100000000E-03 0. -1.
    9900012    2    1    2    0    0  0.20526225273E+02  0.84789321544E+01 -0.39190500062E+02  0.46142317526E+02  0.99999978518E+01 0.  0.
        -12    1    1    2    0    0 -0.20526225273E+02 -0.84789321544E+01  0.39190500062E+02  0.45045682474E+02  0.00000000000E+00 0.  1.
         11    1    3    3    0    0  0.50595030237E+01  0.32835914553E+01 -0.50262370411E+01  0.78513440089E+01  0.51100000000E-03 0. -1.
        -11    1    3    3    0    0  0.11381986431E+02  0.52854581665E+01 -0.29682720148E+02  0.32226535011E+02  0.51100000000E-03 0.  1.
        -12    1    3    3    0    0  0.40847358189E+01 -0.90117467424E-01 -0.44815428729E+01  0.60644385057E+01  0.00000000000E+00 0.  1.
</event>
<event>
 7    1  0.1563903E-008  0.4614232E+02  0.7816164E-02  0.1320468E+00
        -11   -1    0    0    0    0  0.00000000000E+00  0.00000000000E+00  0.45593999997E+02  0.45594000000E+02  0.51100000000E-03 0.  1.
         11   -1    0    0    0    0 -0.00000000000E+00 -0.00000000000E+00 -0.45593999997E+02  0.45594000000E+02  0.51100000000E-03 0. -1.
    9900012    2    1    2    0    0  0.39147429456E+02  0.12900902864E+02 -0.18170280752E+02  0.46142316185E+02  0.99999856321E+01 0.  0.
        -12    1    1    2    0    0 -0.39147429456E+02 -0.12900902864E+02  0.18170280752E+02  0.45045683815E+02  0.00000000000E+00 0.  1.
         11    1    3    3    0    0  0.39074897495E+02  0.13112868669E+02 -0.16998637078E+02  0.44584174342E+02  0.51100000000E-03 0. -1.
        -11    1    3    3    0    0  0.41193860243E+00 -0.45165541489E+00 -0.71745688192E+00  0.94256600007E+00  0.51100000000E-03 0.  1.
         12    1    3    3    0    0 -0.33940664130E+00  0.23968961026E+00 -0.45418679204E+00  0.61557584381E+00  0.00000000000E+00 0. -1.
</event>
<event>
 7    1  0.1563903E-008  0.4614231E+02  0.7816164E-02  0.1320468E+00
        -11   -1    0    0    0    0  0.00000000000E+00  0.00000000000E+00  0.45593999997E+02  0.45594000000E+02  0.51100000000E-03 0.  1.
         11   -1    0    0    0    0 -0.00000000000E+00 -0.00000000000E+00 -0.45593999997E+02  0.45594000000E+02  0.51100000000E-03 0. -1.
    9900012    2    1    2    0    0  0.43209984123E+01 -0.44830954352E+02  0.79316048722E+00  0.46142305434E+02  0.99998875906E+01 0.  0.
        -12    1    1    2    0    0 -0.43209984123E+01  0.44830954352E+02 -0.79316048722E+00  0.45045694566E+02  0.00000000000E+00 0.  1.
         11    1    3    3    0    0 -0.43376870249E+00 -0.49166980132E+01 -0.19949288938E+01  0.53237032405E+01  0.51100000000E-03 0. -1.
        -11    1    3    3    0    0  0.32421478401E+01 -0.25448972356E+02  0.49105392302E+01  0.26120396482E+02  0.51100000000E-03 0.  1.
        -12    1    3    3    0    0  0.15126192747E+01 -0.14465283983E+02 -0.21224498492E+01  0.14698205711E+02  0.00000000000E+00 0.  1.
</event>
<event>
 7    1  0.1563903E-008  0.4614232E+02  0.7816164E-02  0.1320468E+00
        -11   -1    0    0    0    0  0.00000000000E+00  0.00000000000E+00  0.45593999997E+02  0.45594000000E+02  0.51100000000E-03 0. -1.
         11   -1    0    0    0    0 -0.00000000000E+00 -0.00000000000E+00 -0.45593999997E+02  0.45594000000E+02  0.51100000000E-03 0.  1.
    9900012    2    1    2    0    0  0.33488186630E+02  0.85854125289E+01  0.28878115805E+02  0.46142317360E+02  0.99999963448E+01 0.  0.
        -12    1    1    2    0    0 -0.33488186630E+02 -0.85854125289E+01 -0.28878115805E+02  0.45045682640E+02  0.00000000000E+00 0.  1.
         11    1    3    3    0    0  0.95123263228E+00  0.13282046608E+01  0.20035684626E+01  0.25851997964E+01  0.51100000000E-03 0. -1.
        -11    1    3    3    0    0  0.98558414241E+01 -0.50672610982E-01  0.43721913452E+01  0.10782218478E+02  0.51100000000E-03 0.  1.
        -12    1    3    3    0    0  0.22681112573E+02  0.73078804791E+01  0.22502355997E+02  0.32774899086E+02  0.00000000000E+00 0.  1.
</event>
<event>
 7    1  0.1563903E-008  0.4614232E+02  0.7816164E-02  0.1320468E+00
        -11   -1    0    0    0    0  0.00000000000E+00  0.00000000000E+00  0.45593999997E+02  0.45594000000E+02  0.51100000000E-03 0.  1.
         11   -1    0    0    0    0 -0.00000000000E+00 -0.00000000000E+00 -0.45593999997E+02  0.45594000000E+02  0.51100000000E-03 0. -1.
    9900012    2    1    2    0    0 -0.49983651545E+01  0.88541691439E+01 -0.43883180275E+02  0.46142317892E+02  0.10000001197E+02 0.  0.
        -12    1    1    2    0    0  0.49983651545E+01 -0.88541691439E+01  0.43883180275E+02  0.45045682108E+02  0.00000000000E+00 0.  1.
         11    1    3    3    0    0 -0.11021647044E+01  0.73039881717E+01 -0.21842137989E+02  0.23057363302E+02  0.51100000000E-03 0. -1.
        -11    1    3    3    0    0 -0.38667748934E+01  0.96136095167E-02 -0.20650558076E+02  0.21009464286E+02  0.51100000000E-03 0.  1.
         12    1    3    3    0    0 -0.29425556661E-01  0.15405673627E+01 -0.13904842109E+01  0.20754903042E+01  0.00000000000E+00 0. -1.
</event>
<event>
 7    1  0.1563903E-008  0.4614232E+02  0.7816164E-02  0.1320468E+00
        -11   -1    0    0    0    0  0.00000000000E+00  0.00000000000E+00  0.45593999997E+02  0.45594000000E+02  0.51100000000E-03 0. -1.
         11   -1    0    0    0    0 -0.00000000000E+00 -0.00000000000E+00 -0.45593999997E+02  0.45594000000E+02  0.51100000000E-03 0.  1.
    9900012    2    1    2    0    0  0.34730314502E+02  0.54495596634E+01  0.28164181350E+02  0.46142316998E+02  0.99999930438E+01 0.  0.
        -12    1    1    2    0    0 -0.34730314502E+02 -0.54495596634E+01 -0.28164181350E+02  0.45045683002E+02  0.00000000000E+00 0.  1.
         11    1    3    3    0    0  0.27816389984E+02  0.24785271293E+01  0.22464166981E+02  0.35840388486E+02  0.51100000000E-03 0. -1.
        -11    1    3    3    0    0  0.71353413250E+01  0.33569714625E+01  0.58648305994E+01  0.98274407373E+01  0.51100000000E-03 0.  1.
         12    1    3    3    0    0 -0.22141680648E+00 -0.38593892832E+00 -0.16481622975E+00  0.47448777453E+00  0.00000000000E+00 0. -1.
</event>
<event>
 7    1  0.1563903E-008  0.4614232E+02  0.7816164E-02  0.1320468E+00
        -11   -1    0    0    0    0  0.00000000000E+00  0.00000000000E+00  0.45593999997E+02  0.45594000000E+02  0.51100000000E-03 0. -1.
         11   -1    0    0    0    0 -0.00000000000E+00 -0.00000000000E+00 -0.45593999997E+02  0.45594000000E+02  0.51100000000E-03 0.  1.
    9900012    2    1    2    0    0  0.98896410672E+00  0.10539385401E+02  0.43784207405E+02  0.46142317491E+02  0.99999975337E+01 0.  0.
        -12    1    1    2    0    0 -0.98896410672E+00 -0.10539385401E+02 -0.43784207405E+02  0.45045682509E+02  0.00000000000E+00 0.  1.
         11    1    3    3    0    0  0.10703126260E+01 -0.17258448429E+01  0.59421075776E+01  0.62795503234E+01  0.51100000000E-03 0.  1.
        -11    1    3    3    0    0 -0.10088918614E+01  0.10062710192E+02  0.31598078907E+02  0.33177019005E+02  0.51100000000E-03 0. -1.
        -12    1    3    3    0    0  0.92754334215E+00  0.22025200516E+01  0.62440209210E+01  0.66857481624E+01  0.00000000000E+00 0.  1.
</event>
<event>
 7    1  0.1563903E-008  0.4614232E+02  0.7816164E-02  0.1320468E+00
        -11   -1    0    0    0    0  0.00000000000E+00  0.00000000000E+00  0.45593999997E+02  0.45594000000E+02  0.51100000000E-03 0.  1.
         11   -1    0    0    0    0 -0.00000000000E+00 -0.00000000000E+00 -0.45593999997E+02  0.45594000000E+02  0.51100000000E-03 0. -1.
    9900012    2    1    2    0    0 -0.20162674916E+02  0.27567241371E+02 -0.29370516308E+02  0.46142317801E+02  0.10000000363E+02 0.  0.
        -12    1    1    2    0    0  0.20162674916E+02 -0.27567241371E+02  0.29370516308E+02  0.45045682199E+02  0.00000000000E+00 0.  1.
         11    1    3    3    0    0 -0.12092325938E+02  0.19245711803E+02 -0.20485738650E+02  0.30598811377E+02  0.51100000000E-03 0. -1.
        -11    1    3    3    0    0 -0.88594185535E+01  0.74745596087E+01 -0.79501767722E+01  0.14055733685E+02  0.51100000000E-03 0.  1.
         12    1    3    3    0    0  0.78906957548E+00  0.84696995914E+00 -0.93460088602E+00  0.14877727390E+01  0.00000000000E+00 0. -1.
</event>
<event>
 7    1  0.1563903E-008  0.4614232E+02  0.7816164E-02  0.1320468E+00
        -11   -1    0    0    0    0  0.00000000000E+00  0.00000000000E+00  0.45593999997E+02  0.45594000000E+02  0.51100000000E-03 0. -1.
         11   -1    0    0    0    0 -0.00000000000E+00 -0.00000000000E+00 -0.45593999997E+02  0.45594000000E+02  0.51100000000E-03 0.  1.
    9900012    2    1    2    0    0  0.41625875365E+02  0.17197468918E+02 -0.80434082235E+00  0.46142318729E+02  0.10000008823E+02 0.  0.
        -12    1    1    2    0    0 -0.41625875365E+02 -0.17197468918E+02  0.80434082235E+00  0.45045681271E+02  0.00000000000E+00 0.  1.
         11    1    3    3    0    0  0.37620080787E+02  0.14089873737E+02 -0.13128703140E+01  0.40193515013E+02  0.51100000000E-03 0. -1.
        -11    1    3    3    0    0  0.24907805366E+01  0.15501953398E+01  0.17798443847E+01  0.34314631818E+01  0.51100000000E-03 0.  1.
        -12    1    3    3    0    0  0.15150140410E+01  0.15573998407E+01 -0.12713148930E+01  0.25173405343E+01  0.00000000000E+00 0.  1.
</event>
<event>
 7    1  0.1563903E-008  0.4614232E+02  0.7816164E-02  0.1320468E+00
        -11   -1    0    0    0    0  0.00000000000E+00  0.00000000000E+00  0.45593999997E+02  0.45594000000E+02  0.51100000000E-03 0. -1.
         11   -1    0    0    0    0 -0.00000000000E+00 -0.00000000000E+00 -0.45593999997E+02  0.45594000000E+02  0.51100000000E-03 0.  1.
    9900012    2    1    2    0    0  0.37874677419E+02  0.19885650330E+02  0.14113229548E+02  0.46142317333E+02  0.99999960996E+01 0.  0.
        -12    1    1    2    0    0 -0.37874677419E+02 -0.19885650330E+02 -0.14113229548E+02  0.45045682667E+02  0.00000000000E+00 0.  1.
         11    1    3    3    0    0  0.30210583228E+02  0.16498554238E+02  0.12494023015E+02  0.36619424385E+02  0.51100000000E-03 0. -1.
        -11    1    3    3    0    0  0.20739226279E+01  0.70284855902E+00  0.24274703764E+01  0.32692145621E+01  0.51100000000E-03 0.  1.
         12    1    3    3    0    0  0.55901715630E+01  0.26842475326E+01 -0.80826384313E+00  0.62536783864E+01  0.00000000000E+00 0. -1.
</event>
<event>
 7    1  0.1563903E-008  0.4614232E+02  0.7816164E-02  0.1320468E+00
        -11   -1    0    0    0    0  0.00000000000E+00  0.00000000000E+00  0.45593999997E+02  0.45594000000E+02  0.51100000000E-03 0. -1.
         11   -1    0    0    0    0 -0.00000000000E+00 -0.00000000000E+00 -0.45593999997E+02  0.45594000000E+02  0.51100000000E-03 0.  1.
    9900012    2    1    2    0    0  0.40825036283E+02  0.11759879530E+01  0.19001236684E+02  0.46142317291E+02  0.99999957150E+01 0.  0.
        -12    1    1    2    0    0 -0.40825036283E+02 -0.11759879530E+01 -0.19001236684E+02  0.45045682709E+02  0.00000000000E+00 0.  1.
         11    1    3    3    0    0  0.88416527642E+01 -0.79118514611E+00  0.51111765242E+01  0.10243286741E+02  0.51100000000E-03 0. -1.
        -11    1    3    3    0    0  0.25131671563E+02  0.36189033358E+01  0.77382807186E+01  0.26543895073E+02  0.51100000000E-03 0.  1.
        -12    1    3    3    0    0  0.68517119558E+01 -0.16517302367E+01  0.61517794412E+01  0.93551354770E+01  0.00000000000E+00 0.  1.
</event>
<event>
 7    1  0.1563903E-008  0.4614232E+02  0.7816164E-02  0.1320468E+00
        -11   -1    0    0    0    0  0.00000000000E+00  0.00000000000E+00  0.45593999997E+02  0.45594000000E+02  0.51100000000E-03 0.  1.
         11   -1    0    0    0    0 -0.00000000000E+00 -0.00000000000E+00 -0.45593999997E+02  0.45594000000E+02  0.51100000000E-03 0. -1.
    9900012    2    1    2    0    0 -0.16169732718E+02  0.41249409158E+02 -0.81326170462E+01  0.46142317942E+02  0.10000001648E+02 0.  0.
        -12    1    1    2    0    0  0.16169732718E+02 -0.41249409158E+02  0.81326170462E+01  0.45045682058E+02  0.00000000000E+00 0.  1.
         11    1    3    3    0    0 -0.34084348978E+01  0.17756116695E+02 -0.27146942919E+01  0.18282961300E+02  0.51100000000E-03 0. -1.
        -11    1    3    3    0    0 -0.10654040642E+02  0.13962598192E+02 -0.36951836902E+01  0.17947621375E+02  0.51100000000E-03 0.  1.
        -12    1    3    3    0    0 -0.21072571779E+01  0.95306942717E+01 -0.17227390641E+01  0.99117352667E+01  0.00000000000E+00 0.  1.
</event>
<event>
 7    1  0.1563903E-008  0.4614232E+02  0.7816164E-02  0.1320468E+00
        -11   -1    0    0    0    0  0.00000000000E+00  0.00000000000E+00  0.45593999997E+02  0.45594000000E+02  0.51100000000E-03 0.  1.
         11   -1    0    0    0    0 -0.00000000000E+00 -0.00000000000E+00 -0.45593999997E+02  0.45594000000E+02  0.51100000000E-03 0. -1.
    9900012    2    1    2    0    0  0.20240624735E+02  0.39345247077E+02 -0.84487945997E+01  0.46142317772E+02  0.10000000096E+02 0.  0.
        -12    1    1    2    0    0 -0.20240624735E+02 -0.39345247077E+02  0.84487945997E+01  0.45045682228E+02  0.00000000000E+00 0.  1.
         11    1    3    3    0    0  0.27216220521E+01  0.10586539887E+02  0.71634010069E+00  0.10954231912E+02  0.51100000000E-03 0. -1.
        -11    1    3    3    0    0  0.16119187182E+02  0.26282213061E+02 -0.96411796819E+01  0.32303796444E+02  0.51100000000E-03 0.  1.
        -12    1    3    3    0    0  0.13998155010E+01  0.24764941291E+01  0.47604498155E+00  0.28842894156E+01  0.00000000000E+00 0.  1.
</event>
<event>
 7    1  0.1563903E-008  0.4614232E+02  0.7816164E-02  0.1320468E+00
        -11   -1    0    0    0    0  0.00000000000E+00  0.00000000000E+00  0.45593999997E+02  0.45594000000E+02  0.51100000000E-03 0.  1.
         11   -1    0    0    0    0 -0.00000000000E+00 -0.00000000000E+00 -0.45593999997E+02  0.45594000000E+02  0.51100000000E-03 0. -1.
    9900012    2    1    2    0    0  0.19195689775E+02  0.57238790241E+01 -0.40346947273E+02  0.46142318173E+02  0.10000003755E+02 0.  0.
        -12    1    1    2    0    0 -0.19195689775E+02 -0.57238790241E+01  0.40346947273E+02  0.45045681827E+02  0.00000000000E+00 0.  1.
         11    1    3    3    0    0  0.17688313048E+02  0.48482859102E+01 -0.27253440089E+02  0.32850149036E+02  0.51100000000E-03 0. -1.
        -11    1    3    3    0    0  0.22182027016E+00  0.96309982209E+00 -0.50011581025E+01  0.50978768254E+01  0.51100000000E-03 0.  1.
         12    1    3    3    0    0  0.12855564567E+01 -0.87506708164E-01 -0.80923490813E+01  0.81942923112E+01  0.00000000000E+00 0. -1.
</event>
<event>
 7    1  0.1563903E-008  0.4614232E+02  0.7816164E-02  0.1320468E+00
        -11   -1    0    0    0    0  0.00000000000E+00  0.00000000000E+00  0.45593999997E+02  0.45594000000E+02  0.51100000000E-03 0.  1.
         11   -1    0    0    0    0 -0.00000000000E+00 -0.00000000000E+00 -0.45593999997E+02  0.45594000000E+02  0.51100000000E-03 0. -1.
    9900012    2    1    2    0    0  0.46613207637E+01 -0.43203297205E+02  0.11868471054E+02  0.46142318677E+02  0.10000008355E+02 0.  0.
        -12    1    1    2    0    0 -0.46613207637E+01  0.43203297205E+02 -0.11868471054E+02  0.45045681323E+02  0.00000000000E+00 0.  1.
         11    1    3    3    0    0  0.50952338534E+01 -0.13509690607E+02  0.22221216417E+01  0.14608592444E+02  0.51100000000E-03 0. -1.
        -11    1    3    3    0    0 -0.23917538123E+01 -0.13652889841E+02  0.42969647485E+01  0.14511574471E+02  0.51100000000E-03 0.  1.
         12    1    3    3    0    0  0.19578407226E+01 -0.16040716757E+02  0.53493846635E+01  0.17022151763E+02  0.00000000000E+00 0. -1.
</event>
<event>
 7    1  0.1563903E-008  0.4614232E+02  0.7816164E-02  0.1320468E+00
        -11   -1    0    0    0    0  0.00000000000E+00  0.00000000000E+00  0.45593999997E+02  0.45594000000E+02  0.51100000000E-03 0.  1.
         11   -1    0    0    0    0 -0.00000000000E+00 -0.00000000000E+00 -0.45593999997E+02  0.45594000000E+02  0.51100000000E-03 0. -1.
    9900012    2    1    2    0    0  0.12415579233E+02  0.36360633666E+02 -0.23513212888E+02  0.46142317980E+02  0.10000002000E+02 0.  0.
        -12    1    1    2    0    0 -0.12415579233E+02 -0.36360633666E+02  0.23513212888E+02  0.45045682020E+02  0.00000000000E+00 0.  1.
         11    1    3    3    0    0  0.16164268762E+01  0.48306912409E+01 -0.50114386867E+01  0.71458331692E+01  0.51100000000E-03 0. -1.
        -11    1    3    3    0    0  0.42474209224E+01  0.52133746993E+01 -0.64552411697E+01  0.93214805191E+01  0.51100000000E-03 0.  1.
         12    1    3    3    0    0  0.65517314343E+01  0.26316567726E+02 -0.12046533032E+02  0.29675004292E+02  0.00000000000E+00 0. -1.
</event>
<event>
 7    1  0.1563903E-008  0.4614232E+02  0.7816164E-02  0.1320468E+00
        -11   -1    0    0    0    0  0.00000000000E+00  0.00000000000E+00  0.45593999997E+02  0.45594000000E+02  0.51100000000E-03 0.  1.
         11   -1    0    0    0    0 -0.00000000000E+00 -0.00000000000E+00 -0.45593999997E+02  0.45594000000E+02  0.51100000000E-03 0. -1.
    9900012    2    1    2    0    0 -0.39929592107E+02 -0.17353042978E+02 -0.11559110304E+02  0.46142318104E+02  0.10000003128E+02 0.  0.
        -12    1    1    2    0    0  0.39929592107E+02  0.17353042978E+02  0.11559110304E+02  0.45045681896E+02  0.00000000000E+00 0.  1.
         11    1    3    3    0    0 -0.16452171482E+02 -0.94740404593E+01 -0.78396486390E+01  0.20539997083E+02  0.51100000000E-03 0. -1.
        -11    1    3    3    0    0 -0.67168297372E+01 -0.36178397430E+01 -0.32761037108E+01  0.83028562501E+01  0.51100000000E-03 0.  1.
         12    1    3    3    0    0 -0.16760590888E+02 -0.42611627754E+01 -0.44335795412E+00  0.17299464771E+02  0.00000000000E+00 0. -1.
</event>
<event>
 7    1  0.1563903E-008  0.4614232E+02  0.7816164E-02  0.1320468E+00
        -11   -1    0    0    0    0  0.00000000000E+00  0.00000000000E+00  0.45593999997E+02  0.45594000000E+02  0.51100000000E-03 0.  1.
         11   -1    0    0    0    0 -0.00000000000E+00 -0.00000000000E+00 -0.45593999997E+02  0.45594000000E+02  0.51100000000E-03 0. -1.
    9900012    2    1    2    0    0  0.64999975662E+01 -0.14519275981E+02 -0.42143258863E+02  0.46142316400E+02  0.99999875919E+01 0.  0.
        -12    1    1    2    0    0 -0.64999975662E+01  0.14519275981E+02  0.42143258863E+02  0.45045683600E+02  0.00000000000E+00 0.  1.
         11    1    3    3    0    0  0.27585628059E+01 -0.69136512481E+00 -0.53454172011E+01  0.60548443254E+01  0.51100000000E-03 0. -1.
        -11    1    3    3    0    0  0.39670126306E+01 -0.27899187704E+01 -0.10483549687E+02  0.11551002132E+02  0.51100000000E-03 0.  1.
         12    1    3    3    0    0 -0.22557787034E+00 -0.11037992086E+02 -0.26314291974E+02  0.28536469943E+02  0.00000000000E+00 0. -1.
</event>
<event>
 7    1  0.1563903E-008  0.4614232E+02  0.7816164E-02  0.1320468E+00
        -11   -1    0    0    0    0  0.00000000000E+00  0.00000000000E+00  0.45593999997E+02  0.45594000000E+02  0.51100000000E-03 0.  1.
         11   -1    0    0    0    0 -0.00000000000E+00 -0.00000000000E+00 -0.45593999997E+02  0.45594000000E+02  0.51100000000E-03 0. -1.
    9900012    2    1    2    0    0  0.34099047329E+02  0.29313712536E+02 -0.26598245405E+01  0.46142318321E+02  0.10000005102E+02 0.  0.
        -12    1    1    2    0    0 -0.34099047329E+02 -0.29313712536E+02  0.26598245405E+01  0.45045681679E+02  0.00000000000E+00 0.  1.
         11    1    3    3    0    0  0.17298363440E+02  0.20641982432E+02 -0.32709461538E+00  0.26933841308E+02  0.51100000000E-03 0. -1.
        -11    1    3    3    0    0  0.93728187076E+01  0.43433623919E+01 -0.11857399130E+00  0.10330952882E+02  0.51100000000E-03 0.  1.
        -12    1    3    3    0    0  0.74278651816E+01  0.43283677114E+01 -0.22141559338E+01  0.88775241312E+01  0.00000000000E+00 0.  1.
</event>
<event>
 7    1  0.1563903E-008  0.4614232E+02  0.7816164E-02  0.1320468E+00
        -11   -1    0    0    0    0  0.00000000000E+00  0.00000000000E+00  0.45593999997E+02  0.45594000000E+02  0.51100000000E-03 0.  1.
         11   -1    0    0    0    0 -0.00000000000E+00 -0.00000000000E+00 -0.45593999997E+02  0.45594000000E+02  0.51100000000E-03 0. -1.
    9900012    2    1    2    0    0  0.26603952417E+02 -0.15431773498E+02 -0.32912060006E+02  0.46142316396E+02  0.99999875544E+01 0.  0.
        -12    1    1    2    0    0 -0.26603952417E+02  0.15431773498E+02  0.32912060006E+02  0.45045683604E+02  0.00000000000E+00 0.  1.
         11    1    3    3    0    0 -0.19074765840E+00  0.25427478511E+00  0.21545402546E+00  0.38400655429E+00  0.51100000000E-03 0. -1.
        -11    1    3    3    0    0  0.15945092507E+02 -0.62013900502E+01 -0.19210576794E+02  0.25724491727E+02  0.51100000000E-03 0.  1.
         12    1    3    3    0    0  0.10849607568E+02 -0.94846582330E+01 -0.13916937237E+02  0.20033818115E+02  0.00000000000E+00 0. -1.
</event>
<event>
 7    1  0.1563903E-008  0.4614232E+02  0.7816164E-02  0.1320468E+00
        -11   -1    0    0    0    0  0.00000000000E+00  0.00000000000E+00  0.45593999997E+02  0.45594000000E+02  0.51100000000E-03 0.  1.
         11   -1    0    0    0    0 -0.00000000000E+00 -0.00000000000E+00 -0.45593999997E+02  0.45594000000E+02  0.51100000000E-03 0. -1.
    9900012    2    1    2    0    0  0.35224704811E+02  0.18115271924E+02 -0.21451584256E+02  0.46142319042E+02  0.10000011679E+02 0.  0.
        -12    1    1    2    0    0 -0.35224704811E+02 -0.18115271924E+02  0.21451584256E+02  0.45045680958E+02  0.00000000000E+00 0.  1.
         11    1    3    3    0    0  0.24791567882E+02  0.94074685248E+01 -0.12069788486E+02  0.29134208355E+02  0.51100000000E-03 0. -1.
        -11    1    3    3    0    0  0.23644339630E+01  0.74765828424E+00 -0.32766132100E+00  0.25013802346E+01  0.51100000000E-03 0.  1.
         12    1    3    3    0    0  0.80687029653E+01  0.79601451152E+01 -0.90541344493E+01  0.14506730453E+02  0.00000000000E+00 0. -1.
</event>
<event>
 7    1  0.1563903E-008  0.4614232E+02  0.7816164E-02  0.1320468E+00
        -11   -1    0    0    0    0  0.00000000000E+00  0.00000000000E+00  0.45593999997E+02  0.45594000000E+02  0.51100000000E-03 0.  1.
         11   -1    0    0    0    0 -0.00000000000E+00 -0.00000000000E+00 -0.45593999997E+02  0.45594000000E+02  0.51100000000E-03 0. -1.
    9900012    2    1    2    0    0 -0.14247173618E+02  0.42164121672E+02 -0.69511456218E+01  0.46142317211E+02  0.99999949813E+01 0.  0.
        -12    1    1    2    0    0  0.14247173618E+02 -0.42164121672E+02  0.69511456218E+01  0.45045682789E+02  0.00000000000E+00 0.  1.
         11    1    3    3    0    0 -0.11665509708E+01  0.34381946934E+01 -0.15552722101E+01  0.39497969348E+01  0.51100000000E-03 0. -1.
        -11    1    3    3    0    0 -0.17524812166E+01  0.19068243216E+02 -0.29136443739E+01  0.19369006519E+02  0.51100000000E-03 0.  1.
        -12    1    3    3    0    0 -0.11328141431E+02  0.19657683763E+02 -0.24822290378E+01  0.22823513757E+02  0.00000000000E+00 0.  1.
</event>
<event>
 7    1  0.1563903E-008  0.4614232E+02  0.7816164E-02  0.1320468E+00
        -11   -1    0    0    0    0  0.00000000000E+00  0.00000000000E+00  0.45593999997E+02  0.45594000000E+02  0.51100000000E-03 0.  1.
         11   -1    0    0    0    0 -0.00000000000E+00 -0.00000000000E+00 -0.45593999997E+02  0.45594000000E+02  0.51100000000E-03 0. -1.
    9900012    2    1    2    0    0 -0.14599404070E+02  0.29141266614E+02 -0.31092723215E+02  0.46142318120E+02  0.10000003273E+02 0.  0.
        -12    1    1    2    0    0  0.14599404070E+02 -0.29141266614E+02  0.31092723215E+02  0.45045681880E+02  0.00000000000E+00 0.  1.
         11    1    3    3    0    0 -0.46852331351E+01  0.11325665492E+02 -0.14347693378E+02  0.18870040114E+02  0.51100000000E-03 0. -1.
        -11    1    3    3    0    0 -0.21926464961E+00 -0.10826516871E+00  0.51307893033E+00  0.56837362992E+00  0.51100000000E-03 0.  1.
        -12    1    3    3    0    0 -0.96949062855E+01  0.17923866290E+02 -0.17258108767E+02  0.26703904376E+02  0.00000000000E+00 0.  1.
</event>
<event>
 7    1  0.1563903E-008  0.4614232E+02  0.7816164E-02  0.1320468E+00
        -11   -1    0    0    0    0  0.00000000000E+00  0.00000000000E+00  0.45593999997E+02  0.45594000000E+02  0.51100000000E-03 0.  1.
         11   -1    0    0    0    0 -0.00000000000E+00 -0.00000000000E+00 -0.45593999997E+02  0.45594000000E+02  0.51100000000E-03 0. -1.
    9900012    2    1    2    0    0 -0.10332027111E+02 -0.33334422683E+02 -0.28481206263E+02  0.46142316188E+02  0.99999856589E+01 0.  0.
        -12    1    1    2    0    0  0.10332027111E+02  0.33334422683E+02  0.28481206263E+02  0.45045683812E+02  0.00000000000E+00 0.  1.
         11    1    3    3    0    0 -0.50137538089E+01 -0.16876034919E+02 -0.15342962096E+02  0.23352618011E+02  0.51100000000E-03 0. -1.
        -11    1    3    3    0    0 -0.35158090816E+01 -0.16401136632E+02 -0.11370518870E+02  0.20264424393E+02  0.51100000000E-03 0.  1.
        -12    1    3    3    0    0 -0.18024642208E+01 -0.57251131741E-01 -0.17677252981E+01  0.25252737849E+01  0.00000000000E+00 0.  1.
</event>
<event>
 7    1  0.1563903E-008  0.4614232E+02  0.7816164E-02  0.1320468E+00
        -11   -1    0    0    0    0  0.00000000000E+00  0.00000000000E+00  0.45593999997E+02  0.45594000000E+02  0.51100000000E-03 0.  1.
         11   -1    0    0    0    0 -0.00000000000E+00 -0.00000000000E+00 -0.45593999997E+02  0.45594000000E+02  0.51100000000E-03 0. -1.
    9900012    2    1    2    0    0 -0.25930596352E+02 -0.58111178394E+01 -0.36372354786E+02  0.46142321956E+02  0.10000038255E+02 0.  0.
        -12    1    1    2    0    0  0.25930596352E+02  0.58111178394E+01  0.36372354786E+02  0.45045678044E+02  0.00000000000E+00 0.  1.
         11    1    3    3    0    0 -0.77152472977E+01 -0.37833851788E-01 -0.17737023598E+02  0.19342401057E+02  0.51100000000E-03 0. -1.
        -11    1    3    3    0    0 -0.54287456342E+01 -0.20101080560E+01 -0.41997689321E+01  0.71519139327E+01  0.51100000000E-03 0.  1.
         12    1    3    3    0    0 -0.12786603420E+02 -0.37631759316E+01 -0.14435562256E+02  0.19648006967E+02  0.00000000000E+00 0. -1.
</event>
<event>
 7    1  0.1563903E-008  0.4614232E+02  0.7816164E-02  0.1320468E+00
        -11   -1    0    0    0    0  0.00000000000E+00  0.00000000000E+00  0.45593999997E+02  0.45594000000E+02  0.51100000000E-03 0.  1.
         11   -1    0    0    0    0 -0.00000000000E+00 -0.00000000000E+00 -0.45593999997E+02  0.45594000000E+02  0.51100000000E-03 0. -1.
    9900012    2    1    2    0    0 -0.31400940627E+02  0.20009754375E+02 -0.25351610003E+02  0.46142317941E+02  0.10000001638E+02 0.  0.
        -12    1    1    2    0    0  0.31400940627E+02 -0.20009754375E+02  0.25351610003E+02  0.45045682059E+02  0.00000000000E+00 0.  1.
         11    1    3    3    0    0 -0.22472163042E+02  0.13515561422E+02 -0.13659748776E+02  0.29567841471E+02  0.51100000000E-03 0. -1.
        -11    1    3    3    0    0 -0.92532108372E+01  0.66362587682E+01 -0.11429871786E+02  0.16133933511E+02  0.51100000000E-03 0.  1.
         12    1    3    3    0    0  0.32443325212E+00 -0.14206581597E+00 -0.26198944134E+00  0.44054295877E+00  0.00000000000E+00 0. -1.
</event>
<event>
 7    1  0.1563903E-008  0.4614232E+02  0.7816164E-02  0.1320468E+00
        -11   -1    0    0    0    0  0.00000000000E+00  0.00000000000E+00  0.45593999997E+02  0.45594000000E+02  0.51100000000E-03 0.  1.
         11   -1    0    0    0    0 -0.00000000000E+00 -0.00000000000E+00 -0.45593999997E+02  0.45594000000E+02  0.51100000000E-03 0. -1.
    9900012    2    1    2    0    0  0.49173359410E+01  0.11344256893E+02 -0.43315600203E+02  0.46142316764E+02  0.99999909114E+01 0.  0.
        -12    1    1    2    0    0 -0.49173359410E+01 -0.11344256893E+02  0.43315600203E+02  0.45045683236E+02  0.00000000000E+00 0.  1.
         11    1    3    3    0    0 -0.20940095252E+00  0.30557122638E+01 -0.25528938664E+02  0.25712019286E+02  0.51100000000E-03 0. -1.
        -11    1    3    3    0    0  0.43300484894E+01  0.73610752553E+01 -0.16847960071E+02  0.18888846118E+02  0.51100000000E-03 0.  1.
         12    1    3    3    0    0  0.79668840407E+00  0.92746937337E+00 -0.93870146834E+00  0.15414513610E+01  0.00000000000E+00 0. -1.
</event>
<event>
 7    1  0.1563903E-008  0.4614232E+02  0.7816164E-02  0.1320468E+00
        -11   -1    0    0    0    0  0.00000000000E+00  0.00000000000E+00  0.45593999997E+02  0.45594000000E+02  0.51100000000E-03 0.  1.
         11   -1    0    0    0    0 -0.00000000000E+00 -0.00000000000E+00 -0.45593999997E+02  0.45594000000E+02  0.51100000000E-03 0. -1.
    9900012    2    1    2    0    0  0.18649374601E+02 -0.39251313787E+02  0.11859539039E+02  0.46142317929E+02  0.10000001532E+02 0.  0.
        -12    1    1    2    0    0 -0.18649374601E+02  0.39251313787E+02 -0.11859539039E+02  0.45045682071E+02  0.00000000000E+00 0.  1.
         11    1    3    3    0    0  0.53777379551E+01 -0.16896389550E+02  0.12770458769E+01  0.17777482718E+02  0.51100000000E-03 0. -1.
        -11    1    3    3    0    0  0.12639427207E+02 -0.21622419135E+02  0.10943461085E+02  0.27332095971E+02  0.51100000000E-03 0.  1.
        -12    1    3    3    0    0  0.63220943943E+00 -0.73250510138E+00 -0.36096792227E+00  0.10327392409E+01  0.00000000000E+00 0.  1.
</event>
<event>
 7    1  0.1563903E-008  0.4614232E+02  0.7816164E-02  0.1320468E+00
        -11   -1    0    0    0    0  0.00000000000E+00  0.00000000000E+00  0.45593999997E+02  0.45594000000E+02  0.51100000000E-03 0. -1.
         11   -1    0    0    0    0 -0.00000000000E+00 -0.00000000000E+00 -0.45593999997E+02  0.45594000000E+02  0.51100000000E-03 0.  1.
    9900012    2    1    2    0    0 -0.38590404475E+02 -0.48516531758E+01  0.22723459894E+02  0.46142317791E+02  0.10000000275E+02 0.  0.
        -12    1    1    2    0    0  0.38590404475E+02  0.48516531758E+01 -0.22723459894E+02  0.45045682209E+02  0.00000000000E+00 0.  1.
         11    1    3    3    0    0 -0.25048427422E+02 -0.67078755530E+01  0.13607713756E+02  0.29284623690E+02  0.51100000000E-03 0. -1.
        -11    1    3    3    0    0 -0.10884409137E+02  0.26577980999E+01  0.83642322908E+01  0.13981939603E+02  0.51100000000E-03 0.  1.
         12    1    3    3    0    0 -0.26575679160E+01 -0.80157572268E+00  0.75151384813E+00  0.28757544977E+01  0.00000000000E+00 0. -1.
</event>
<event>
 7    1  0.1563903E-008  0.4614232E+02  0.7816164E-02  0.1320468E+00
        -11   -1    0    0    0    0  0.00000000000E+00  0.00000000000E+00  0.45593999997E+02  0.45594000000E+02  0.51100000000E-03 0.  1.
         11   -1    0    0    0    0 -0.00000000000E+00 -0.00000000000E+00 -0.45593999997E+02  0.45594000000E+02  0.51100000000E-03 0. -1.
    9900012    2    1    2    0    0  0.32545266778E+02  0.29579924386E+02 -0.97440822049E+01  0.46142318139E+02  0.10000003443E+02 0.  0.
        -12    1    1    2    0    0 -0.32545266778E+02 -0.29579924386E+02  0.97440822049E+01  0.45045681861E+02  0.00000000000E+00 0.  1.
         11    1    3    3    0    0  0.15694154261E+02  0.12502539739E+02 -0.49262178463E+01  0.20661258443E+02  0.51100000000E-03 0. -1.
        -11    1    3    3    0    0  0.63421721099E+01  0.10964932952E+02 -0.40534626063E+01  0.13299754173E+02  0.51100000000E-03 0.  1.
         12    1    3    3    0    0  0.10508940407E+02  0.61124516951E+01 -0.76440175238E+00  0.12181305523E+02  0.00000000000E+00 0. -1.
</event>
<event>
 7    1  0.1671622E-008  0.4614233E+02  0.7816164E-02  0.1320468E+00
        -11   -1    0    0    0    0  0.00000000000E+00  0.00000000000E+00  0.45593999997E+02  0.45594000000E+02  0.51100000000E-03 0.  1.
         11   -1    0    0    0    0 -0.00000000000E+00 -0.00000000000E+00 -0.45593999997E+02  0.45594000000E+02  0.51100000000E-03 0. -1.
    9900012    2    1    2    0    0 -0.34082629435E+02 -0.26409534185E+02  0.13039301243E+02  0.46142328710E+02  0.10000099842E+02 0.  0.
        -12    1    1    2    0    0  0.34082629435E+02  0.26409534185E+02 -0.13039301243E+02  0.45045671290E+02  0.00000000000E+00 0.  1.
         11    1    3    3    0    0 -0.21447839830E+02 -0.16986511379E+02  0.12410369796E+02  0.30042780846E+02  0.51100000000E-03 0. -1.
        -11    1    3    3    0    0 -0.12702957492E+00  0.56424761067E-01 -0.34836687672E+00  0.37507333747E+00  0.51100000000E-03 0.  1.
         12    1    3    3    0    0 -0.12507760030E+02 -0.94794475668E+01  0.97729832338E+00  0.15724474527E+02  0.00000000000E+00 0. -1.
</event>
<event>
 7    1  0.1563903E-008  0.4614232E+02  0.7816164E-02  0.1320468E+00
        -11   -1    0    0    0    0  0.00000000000E+00  0.00000000000E+00  0.45593999997E+02  0.45594000000E+02  0.51100000000E-03 0. -1.
         11   -1    0    0    0    0 -0.00000000000E+00 -0.00000000000E+00 -0.45593999997E+02  0.45594000000E+02  0.51100000000E-03 0.  1.
    9900012    2    1    2    0    0  0.17925737454E+02  0.40112499763E+02  0.99382510061E+01  0.46142317260E+02  0.99999954276E+01 0.  0.
        -12    1    1    2    0    0 -0.17925737454E+02 -0.40112499763E+02 -0.99382510061E+01  0.45045682740E+02  0.00000000000E+00 0.  1.
         11    1    3    3    0    0  0.11896552095E+02  0.29047066357E+02  0.73420090435E+01  0.32236084017E+02  0.51100000000E-03 0. -1.
        -11    1    3    3    0    0  0.33027764874E+01  0.21723380459E+01  0.23550226771E+01  0.46014690244E+01  0.51100000000E-03 0.  1.
         12    1    3    3    0    0  0.27264088713E+01  0.88930953595E+01  0.24121928551E+00  0.93047642178E+01  0.00000000000E+00 0. -1.
</event>
<event>
 7    1  0.1563903E-008  0.4614232E+02  0.7816164E-02  0.1320468E+00
        -11   -1    0    0    0    0  0.00000000000E+00  0.00000000000E+00  0.45593999997E+02  0.45594000000E+02  0.51100000000E-03 0.  1.
         11   -1    0    0    0    0 -0.00000000000E+00 -0.00000000000E+00 -0.45593999997E+02  0.45594000000E+02  0.51100000000E-03 0. -1.
    9900012    2    1    2    0    0 -0.26459023936E+02  0.14028571345E+02 -0.33648666441E+02  0.46142317466E+02  0.99999973126E+01 0.  0.
        -12    1    1    2    0    0  0.26459023936E+02 -0.14028571345E+02  0.33648666441E+02  0.45045682534E+02  0.00000000000E+00 0.  1.
         11    1    3    3    0    0 -0.40004332598E+01 -0.39769858416E-01 -0.59050750671E+01  0.71326684850E+01  0.51100000000E-03 0. -1.
        -11    1    3    3    0    0 -0.21771573096E+02  0.14531230783E+02 -0.27794425813E+02  0.38179682681E+02  0.51100000000E-03 0.  1.
        -12    1    3    3    0    0 -0.68701758109E+00 -0.46288957911E+00  0.50834438871E-01  0.82996630013E+00  0.00000000000E+00 0.  1.
</event>
<event>
 7    1  0.1563903E-008  0.4614232E+02  0.7816164E-02  0.1320468E+00
        -11   -1    0    0    0    0  0.00000000000E+00  0.00000000000E+00  0.45593999997E+02  0.45594000000E+02  0.51100000000E-03 0. -1.
         11   -1    0    0    0    0 -0.00000000000E+00 -0.00000000000E+00 -0.45593999997E+02  0.45594000000E+02  0.51100000000E-03 0.  1.
    9900012    2    1    2    0    0  0.26811392118E+02  0.36220751768E+00  0.36195740094E+02  0.46142317160E+02  0.99999945197E+01 0.  0.
        -12    1    1    2    0    0 -0.26811392118E+02 -0.36220751768E+00 -0.36195740094E+02  0.45045682840E+02  0.00000000000E+00 0.  1.
         11    1    3    3    0    0  0.84830344104E+01  0.42731742364E+01  0.10489973399E+02  0.14151375659E+02  0.51100000000E-03 0. -1.
        -11    1    3    3    0    0  0.18101612813E+02 -0.33141350690E+01  0.24757800056E+02  0.30848023301E+02  0.51100000000E-03 0.  1.
        -12    1    3    3    0    0  0.22674489428E+00 -0.59683164967E+00  0.94796663878E+00  0.11429182006E+01  0.00000000000E+00 0.  1.
</event>
<event>
 7    1  0.1563903E-008  0.4614232E+02  0.7816164E-02  0.1320468E+00
        -11   -1    0    0    0    0  0.00000000000E+00  0.00000000000E+00  0.45593999997E+02  0.45594000000E+02  0.51100000000E-03 0.  1.
         11   -1    0    0    0    0 -0.00000000000E+00 -0.00000000000E+00 -0.45593999997E+02  0.45594000000E+02  0.51100000000E-03 0. -1.
    9900012    2    1    2    0    0  0.22081887700E+01  0.28875684302E+02 -0.34502641728E+02  0.46142317324E+02  0.99999960131E+01 0.  0.
        -12    1    1    2    0    0 -0.22081887700E+01 -0.28875684302E+02  0.34502641728E+02  0.45045682676E+02  0.00000000000E+00 0.  1.
         11    1    3    3    0    0  0.13975735198E+01  0.19310459262E+02 -0.23840753658E+02  0.30712026698E+02  0.51100000000E-03 0. -1.
        -11    1    3    3    0    0 -0.21196315378E+01  0.64441925725E+01 -0.55674385457E+01  0.87759231987E+01  0.51100000000E-03 0.  1.
         12    1    3    3    0    0  0.29302467880E+01  0.31210324671E+01 -0.50944495247E+01  0.66543674274E+01  0.00000000000E+00 0. -1.
</event>
<event>
 7    1  0.1563903E-008  0.4614232E+02  0.7816164E-02  0.1320468E+00
        -11   -1    0    0    0    0  0.00000000000E+00  0.00000000000E+00  0.45593999997E+02  0.45594000000E+02  0.51100000000E-03 0.  1.
         11   -1    0    0    0    0 -0.00000000000E+00 -0.00000000000E+00 -0.45593999997E+02  0.45594000000E+02  0.51100000000E-03 0. -1.
    9900012    2    1    2    0    0  0.24485075960E+02  0.17838000631E+02 -0.33337670514E+02  0.46142317782E+02  0.10000000187E+02 0.  0.
        -12    1    1    2    0    0 -0.24485075960E+02 -0.17838000631E+02  0.33337670514E+02  0.45045682218E+02  0.00000000000E+00 0.  1.
         11    1    3    3    0    0  0.10903670170E+02  0.10886588187E+02 -0.13770557793E+02  0.20664851505E+02  0.51100000000E-03 0. -1.
        -11    1    3    3    0    0  0.29580345366E+01 -0.88548080808E+00 -0.31488013737E+01  0.44101014652E+01  0.51100000000E-03 0.  1.
        -12    1    3    3    0    0  0.10623371253E+02  0.78368932522E+01 -0.16418311347E+02  0.21067364812E+02  0.00000000000E+00 0.  1.
</event>
<event>
 7    1  0.1563903E-008  0.4614232E+02  0.7816164E-02  0.1320468E+00
        -11   -1    0    0    0    0  0.00000000000E+00  0.00000000000E+00  0.45593999997E+02  0.45594000000E+02  0.51100000000E-03 0. -1.
         11   -1    0    0    0    0 -0.00000000000E+00 -0.00000000000E+00 -0.45593999997E+02  0.45594000000E+02  0.51100000000E-03 0.  1.
    9900012    2    1    2    0    0  0.26622289278E+02  0.99817542644E+01  0.34938973634E+02  0.46142316709E+02  0.99999904052E+01 0.  0.
        -12    1    1    2    0    0 -0.26622289278E+02 -0.99817542644E+01 -0.34938973634E+02  0.45045683291E+02  0.00000000000E+00 0.  1.
         11    1    3    3    0    0  0.62136759659E+01  0.35460765525E+01  0.10132142474E+02  0.12403416437E+02  0.51100000000E-03 0. -1.
        -11    1    3    3    0    0  0.14965674869E+02  0.33668016852E+01  0.11953319158E+02  0.19447072197E+02  0.51100000000E-03 0.  1.
        -12    1    3    3    0    0  0.54429384426E+01  0.30688760266E+01  0.12853512001E+02  0.14291828075E+02  0.00000000000E+00 0.  1.
</event>
<event>
 7    1  0.1563903E-008  0.4614232E+02  0.7816164E-02  0.1320468E+00
        -11   -1    0    0    0    0  0.00000000000E+00  0.00000000000E+00  0.45593999997E+02  0.45594000000E+02  0.51100000000E-03 0. -1.
         11   -1    0    0    0    0 -0.00000000000E+00 -0.00000000000E+00 -0.45593999997E+02  0.45594000000E+02  0.51100000000E-03 0.  1.
    9900012    2    1    2    0    0 -0.15800434959E+01  0.31552658631E+02  0.32109918928E+02  0.46142315438E+02  0.99999788175E+01 0.  0.
        -12    1    1    2    0    0  0.15800434959E+01 -0.31552658631E+02 -0.32109918928E+02  0.45045684562E+02  0.00000000000E+00 0.  1.
         11    1    3    3    0    0  0.14815246709E+01  0.21615460037E+02  0.19142983777E+02  0.28911535001E+02  0.51100000000E-03 0. -1.
        -11    1    3    3    0    0 -0.41725495132E+01  0.66344726416E+01  0.94939978208E+01  0.12311067848E+02  0.51100000000E-03 0.  1.
        -12    1    3    3    0    0  0.11109813464E+01  0.33027259525E+01  0.34729373295E+01  0.49197125896E+01  0.00000000000E+00 0.  1.
</event>
<event>
 7    1  0.1563903E-008  0.4614233E+02  0.7816164E-02  0.1320468E+00
        -11   -1    0    0    0    0  0.00000000000E+00  0.00000000000E+00  0.45593999997E+02  0.45594000000E+02  0.51100000000E-03 0.  1.
         11   -1    0    0    0    0 -0.00000000000E+00 -0.00000000000E+00 -0.45593999997E+02  0.45594000000E+02  0.51100000000E-03 0. -1.
    9900012    2    1    2    0    0 -0.27087274327E+02 -0.22448954357E+00 -0.35990856177E+02  0.46142328128E+02  0.10000094537E+02 0.  0.
        -12    1    1    2    0    0  0.27087274327E+02  0.22448954357E+00  0.35990856177E+02  0.45045671872E+02  0.00000000000E+00 0.  1.
         11    1    3    3    0    0 -0.11379471322E+02  0.18741242286E+01 -0.17138293775E+02  0.20657343077E+02  0.51100000000E-03 0. -1.
        -11    1    3    3    0    0 -0.35025510849E+01 -0.16951964112E+01 -0.13008430402E+01  0.41028950573E+01  0.51100000000E-03 0.  1.
        -12    1    3    3    0    0 -0.12205251920E+02 -0.40341736105E+00 -0.17551719361E+02  0.21382089995E+02  0.00000000000E+00 0.  1.
</event>
<event>
 7    1  0.1563903E-008  0.4614232E+02  0.7816164E-02  0.1320468E+00
        -11   -1    0    0    0    0  0.00000000000E+00  0.00000000000E+00  0.45593999997E+02  0.45594000000E+02  0.51100000000E-03 0.  1.
         11   -1    0    0    0    0 -0.00000000000E+00 -0.00000000000E+00 -0.45593999997E+02  0.45594000000E+02  0.51100000000E-03 0. -1.
    9900012    2    1    2    0    0  0.17956331927E+02  0.38588488190E+02 -0.14751684705E+02  0.46142317869E+02  0.10000000982E+02 0.  0.
        -12    1    1    2    0    0 -0.17956331927E+02 -0.38588488190E+02  0.14751684705E+02  0.45045682131E+02  0.00000000000E+00 0.  1.
         11    1    3    3    0    0  0.13727907814E+02  0.25330025191E+02 -0.12638017320E+02  0.31460850452E+02  0.51100000000E-03 0. -1.
        -11    1    3    3    0    0 -0.47771053096E+00  0.38259011418E+01 -0.14498426630E+01  0.41191954199E+01  0.51100000000E-03 0.  1.
         12    1    3    3    0    0  0.47061346444E+01  0.94325618565E+01 -0.66382472123E+00  0.10562271997E+02  0.00000000000E+00 0. -1.
</event>
<event>
 7    1  0.1563903E-008  0.4614231E+02  0.7816164E-02  0.1320468E+00
        -11   -1    0    0    0    0  0.00000000000E+00  0.00000000000E+00  0.45593999997E+02  0.45594000000E+02  0.51100000000E-03 0. -1.
         11   -1    0    0    0    0 -0.00000000000E+00 -0.00000000000E+00 -0.45593999997E+02  0.45594000000E+02  0.51100000000E-03 0.  1.
    9900012    2    1    2    0    0  0.14382841605E+02  0.28941204160E+02  0.31379201924E+02  0.46142314921E+02  0.99999741038E+01 0.  0.
        -12    1    1    2    0    0 -0.14382841605E+02 -0.28941204160E+02 -0.31379201924E+02  0.45045685079E+02  0.00000000000E+00 0.  1.
         11    1    3    3    0    0  0.45623283044E+01  0.48604434681E+01  0.10518171740E+02  0.12452738143E+02  0.51100000000E-03 0. -1.
        -11    1    3    3    0    0  0.23786575686E+00  0.58777266313E+01  0.46270365147E+01  0.74842312658E+01  0.51100000000E-03 0.  1.
         12    1    3    3    0    0  0.95826475437E+01  0.18203034060E+02  0.16233993669E+02  0.26205345512E+02  0.00000000000E+00 0. -1.
</event>
<event>
 7    1  0.1563903E-008  0.4614232E+02  0.7816164E-02  0.1320468E+00
        -11   -1    0    0    0    0  0.00000000000E+00  0.00000000000E+00  0.45593999997E+02  0.45594000000E+02  0.51100000000E-03 0.  1.
         11   -1    0    0    0    0 -0.00000000000E+00 -0.00000000000E+00 -0.45593999997E+02  0.45594000000E+02  0.51100000000E-03 0. -1.
    9900012    2    1    2    0    0 -0.11833870106E+02 -0.10374149486E+02 -0.42207227008E+02  0.46142317955E+02  0.10000001764E+02 0.  0.
        -12    1    1    2    0    0  0.11833870106E+02  0.10374149486E+02  0.42207227008E+02  0.45045682045E+02  0.00000000000E+00 0.  1.
         11    1    3    3    0    0 -0.10384591997E+02 -0.90798855992E+01 -0.36998954005E+02  0.39486791097E+02  0.51100000000E-03 0. -1.
        -11    1    3    3    0    0 -0.12264799068E+01  0.63347842133E+00 -0.42938729540E+01  0.45103096432E+01  0.51100000000E-03 0.  1.
         12    1    3    3    0    0 -0.22279820144E+00 -0.19277423082E+01 -0.91440004935E+00  0.21452172141E+01  0.00000000000E+00 0. -1.
</event>
<event>
 7    1  0.1563903E-008  0.4614232E+02  0.7816164E-02  0.1320468E+00
        -11   -1    0    0    0    0  0.00000000000E+00  0.00000000000E+00  0.45593999997E+02  0.45594000000E+02  0.51100000000E-03 0.  1.
         11   -1    0    0    0    0 -0.00000000000E+00 -0.00000000000E+00 -0.45593999997E+02  0.45594000000E+02  0.51100000000E-03 0. -1.
    9900012    2    1    2    0    0  0.21774185748E+01 -0.15024648312E+02 -0.42410285322E+02  0.46142317525E+02  0.99999978454E+01 0.  0.
        -12    1    1    2    0    0 -0.21774185748E+01  0.15024648312E+02  0.42410285322E+02  0.45045682475E+02  0.00000000000E+00 0.  1.
         11    1    3    3    0    0 -0.13444097634E+01 -0.23493829589E+01 -0.21430912581E+01  0.34525176757E+01  0.51100000000E-03 0. -1.
        -11    1    3    3    0    0  0.18012318646E+00 -0.37419391086E+01 -0.56232282997E+01  0.67568668350E+01  0.51100000000E-03 0.  1.
         12    1    3    3    0    0  0.33417051517E+01 -0.89333262444E+01 -0.34643965764E+02  0.35932933014E+02  0.00000000000E+00 0. -1.
</event>
<event>
 7    1  0.2020416E-008  0.4614232E+02  0.7816164E-02  0.1320468E+00
        -11   -1    0    0    0    0  0.00000000000E+00  0.00000000000E+00  0.45593999997E+02  0.45594000000E+02  0.51100000000E-03 0. -1.
         11   -1    0    0    0    0 -0.00000000000E+00 -0.00000000000E+00 -0.45593999997E+02  0.45594000000E+02  0.51100000000E-03 0.  1.
    9900012    2    1    2    0    0 -0.30059236056E+02  0.33183518749E+02 -0.49406378834E+01  0.46142317726E+02  0.99999996773E+01 0.  0.
        -12    1    1    2    0    0  0.30059236056E+02 -0.33183518749E+02  0.49406378834E+01  0.45045682274E+02  0.00000000000E+00 0.  1.
         11    1    3    3    0    0 -0.22930901909E+02  0.20204113277E+02 -0.39746140495E+01  0.30819312334E+02  0.51100000000E-03 0. -1.
        -11    1    3    3    0    0 -0.15000160685E+01  0.61146009656E+01 -0.13442794184E+01  0.64378164458E+01  0.51100000000E-03 0.  1.
         12    1    3    3    0    0 -0.56283180790E+01  0.68648045065E+01  0.37825558448E+00  0.88851889456E+01  0.00000000000E+00 0. -1.
</event>
<event>
 7    1  0.1563903E-008  0.4614232E+02  0.7816164E-02  0.1320468E+00
        -11   -1    0    0    0    0  0.00000000000E+00  0.00000000000E+00  0.45593999997E+02  0.45594000000E+02  0.51100000000E-03 0. -1.
         11   -1    0    0    0    0 -0.00000000000E+00 -0.00000000000E+00 -0.45593999997E+02  0.45594000000E+02  0.51100000000E-03 0.  1.
    9900012    2    1    2    0    0 -0.15546111234E+02 -0.32489845774E+02  0.27052574639E+02  0.46142318215E+02  0.10000004136E+02 0.  0.
        -12    1    1    2    0    0  0.15546111234E+02  0.32489845774E+02 -0.27052574639E+02  0.45045681785E+02  0.00000000000E+00 0.  1.
         11    1    3    3    0    0 -0.15797733902E+02 -0.24755815728E+02  0.19563984400E+02  0.35286942268E+02  0.51100000000E-03 0. -1.
        -11    1    3    3    0    0  0.67891322007E-01 -0.75679009330E+01  0.70072185065E+01  0.10314012082E+02  0.51100000000E-03 0.  1.
         12    1    3    3    0    0  0.18373134523E+00 -0.16612911296E+00  0.48137173222E+00  0.54136386467E+00  0.00000000000E+00 0. -1.
</event>
<event>
 7    1  0.1563903E-008  0.4614232E+02  0.7816164E-02  0.1320468E+00
        -11   -1    0    0    0    0  0.00000000000E+00  0.00000000000E+00  0.45593999997E+02  0.45594000000E+02  0.51100000000E-03 0.  1.
         11   -1    0    0    0    0 -0.00000000000E+00 -0.00000000000E+00 -0.45593999997E+02  0.45594000000E+02  0.51100000000E-03 0. -1.
    9900012    2    1    2    0    0 -0.23269924911E+02  0.27185729434E+01 -0.38473800437E+02  0.46142319138E+02  0.10000012558E+02 0.  0.
        -12    1    1    2    0    0  0.23269924911E+02 -0.27185729434E+01  0.38473800437E+02  0.45045680862E+02  0.00000000000E+00 0.  1.
         11    1    3    3    0    0 -0.21692462912E+02  0.25594364263E+01 -0.37030319646E+02  0.42992536973E+02  0.51100000000E-03 0. -1.
        -11    1    3    3    0    0  0.33754324569E+00 -0.46723082170E+00  0.13292746760E+00  0.59153195706E+00  0.51100000000E-03 0.  1.
         12    1    3    3    0    0 -0.19150052444E+01  0.62636733884E+00 -0.15764082586E+01  0.25582502080E+01  0.00000000000E+00 0. -1.
</event>
<event>
 7    1  0.1563903E-008  0.4614232E+02  0.7816164E-02  0.1320468E+00
        -11   -1    0    0    0    0  0.00000000000E+00  0.00000000000E+00  0.45593999997E+02  0.45594000000E+02  0.51100000000E-03 0.  1.
         11   -1    0    0    0    0 -0.00000000000E+00 -0.00000000000E+00 -0.45593999997E+02  0.45594000000E+02  0.51100000000E-03 0. -1.
    9900012    2    1    2    0    0 -0.32401857409E+02 -0.25011871440E+02 -0.18805304512E+02  0.46142317030E+02  0.99999933288E+01 0.  0.
        -12    1    1    2    0    0  0.32401857409E+02  0.25011871440E+02  0.18805304512E+02  0.45045682970E+02  0.00000000000E+00 0.  1.
         11    1    3    3    0    0 -0.37812668310E+01 -0.60871298101E+01 -0.29142677704E+01  0.77358958803E+01  0.51100000000E-03 0. -1.
        -11    1    3    3    0    0 -0.55098354764E+01 -0.13042242317E+01 -0.43362605492E+01  0.71317910538E+01  0.51100000000E-03 0.  1.
         12    1    3    3    0    0 -0.23110755102E+02 -0.17620517398E+02 -0.11554776193E+02  0.31274630095E+02  0.00000000000E+00 0. -1.
</event>
<event>
 7    1  0.1563903E-008  0.4614232E+02  0.7816164E-02  0.1320468E+00
        -11   -1    0    0    0    0  0.00000000000E+00  0.00000000000E+00  0.45593999997E+02  0.45594000000E+02  0.51100000000E-03 0.  1.
         11   -1    0    0    0    0 -0.00000000000E+00 -0.00000000000E+00 -0.45593999997E+02  0.45594000000E+02  0.51100000000E-03 0. -1.
    9900012    2    1    2    0    0 -0.19737968542E+02 -0.36342514544E+02 -0.17853501472E+02  0.46142320070E+02  0.10000021057E+02 0.  0.
        -12    1    1    2    0    0  0.19737968542E+02  0.36342514544E+02  0.17853501472E+02  0.45045679930E+02  0.00000000000E+00 0.  1.
         11    1    3    3    0    0 -0.45011159147E+01 -0.36374956327E+01 -0.86872371221E+00  0.58520167553E+01  0.51100000000E-03 0. -1.
        -11    1    3    3    0    0 -0.12953092113E+02 -0.22952885219E+02 -0.13977171468E+02  0.29832513432E+02  0.51100000000E-03 0.  1.
         12    1    3    3    0    0 -0.22837605138E+01 -0.97521336917E+01 -0.30076062924E+01  0.10457789883E+02  0.00000000000E+00 0. -1.
</event>
<event>
 7    1  0.1563903E-008  0.4614232E+02  0.7816164E-02  0.1320468E+00
        -11   -1    0    0    0    0  0.00000000000E+00  0.00000000000E+00  0.45593999997E+02  0.45594000000E+02  0.51100000000E-03 0.  1.
         11   -1    0    0    0    0 -0.00000000000E+00 -0.00000000000E+00 -0.45593999997E+02  0.45594000000E+02  0.51100000000E-03 0. -1.
    9900012    2    1    2    0    0  0.10942247857E+02  0.41263981845E+02 -0.14375832171E+02  0.46142317227E+02  0.99999951294E+01 0.  0.
        -12    1    1    2    0    0 -0.10942247857E+02 -0.41263981845E+02  0.14375832171E+02  0.45045682773E+02  0.00000000000E+00 0.  1.
         11    1    3    3    0    0  0.22168192662E+01  0.13941715758E+02 -0.59859490365E+01  0.15333535537E+02  0.51100000000E-03 0. -1.
        -11    1    3    3    0    0  0.91051373875E+01  0.16848791193E+02 -0.58477221398E+01  0.20024513627E+02  0.51100000000E-03 0.  1.
        -12    1    3    3    0    0 -0.37970879712E+00  0.10473474895E+02 -0.25421609943E+01  0.10784268063E+02  0.00000000000E+00 0.  1.
</event>
<event>
 7    1  0.1563903E-008  0.4614232E+02  0.7816164E-02  0.1320468E+00
        -11   -1    0    0    0    0  0.00000000000E+00  0.00000000000E+00  0.45593999997E+02  0.45594000000E+02  0.51100000000E-03 0.  1.
         11   -1    0    0    0    0 -0.00000000000E+00 -0.00000000000E+00 -0.45593999997E+02  0.45594000000E+02  0.51100000000E-03 0. -1.
    9900012    2    1    2    0    0  0.57211061113E+01  0.22091414520E+01 -0.44626249144E+02  0.46142317924E+02  0.10000001482E+02 0.  0.
        -12    1    1    2    0    0 -0.57211061113E+01 -0.22091414520E+01  0.44626249144E+02  0.45045682076E+02  0.00000000000E+00 0.  1.
         11    1    3    3    0    0  0.19887886454E+01 -0.19435946018E+01 -0.72310921729E+01  0.77473566154E+01  0.51100000000E-03 0. -1.
        -11    1    3    3    0    0 -0.51298338120E+00 -0.95657937028E+00 -0.14899790204E+02  0.14939275231E+02  0.51100000000E-03 0.  1.
        -12    1    3    3    0    0  0.42453008471E+01  0.51093154241E+01 -0.22495366767E+02  0.23455686077E+02  0.00000000000E+00 0.  1.
</event>
<event>
 7    1  0.1563903E-008  0.4614232E+02  0.7816164E-02  0.1320468E+00
        -11   -1    0    0    0    0  0.00000000000E+00  0.00000000000E+00  0.45593999997E+02  0.45594000000E+02  0.51100000000E-03 0. -1.
         11   -1    0    0    0    0 -0.00000000000E+00 -0.00000000000E+00 -0.45593999997E+02  0.45594000000E+02  0.51100000000E-03 0.  1.
    9900012    2    1    2    0    0 -0.41301375691E+02 -0.11479230939E+02  0.13839693113E+02  0.46142317827E+02  0.10000000603E+02 0.  0.
        -12    1    1    2    0    0  0.41301375691E+02  0.11479230939E+02 -0.13839693113E+02  0.45045682173E+02  0.00000000000E+00 0.  1.
         11    1    3    3    0    0 -0.29809635920E+02 -0.80577420778E+01  0.67183774818E+01  0.31601870156E+02  0.51100000000E-03 0. -1.
        -11    1    3    3    0    0 -0.19060348359E+01  0.53344622696E+00  0.24975846956E+01  0.31867637574E+01  0.51100000000E-03 0.  1.
         12    1    3    3    0    0 -0.95857049349E+01 -0.39549350883E+01  0.46237309359E+01  0.11353683914E+02  0.00000000000E+00 0. -1.
</event>
<event>
 7    1  0.1563903E-008  0.4614231E+02  0.7816164E-02  0.1320468E+00
        -11   -1    0    0    0    0  0.00000000000E+00  0.00000000000E+00  0.45593999997E+02  0.45594000000E+02  0.51100000000E-03 0.  1.
         11   -1    0    0    0    0 -0.00000000000E+00 -0.00000000000E+00 -0.45593999997E+02  0.45594000000E+02  0.51100000000E-03 0. -1.
    9900012    2    1    2    0    0 -0.17473581376E+02 -0.10771614524E+02 -0.40096888907E+02  0.46142309579E+02  0.99999253848E+01 0.  0.
        -12    1    1    2    0    0  0.17473581376E+02  0.10771614524E+02  0.40096888907E+02  0.45045690421E+02  0.00000000000E+00 0.  1.
         11    1    3    3    0    0 -0.12534696746E+01  0.72339519010E+00 -0.32173390585E+01  0.35278545470E+01  0.51100000000E-03 0. -1.
        -11    1    3    3    0    0 -0.37056430249E+00  0.98214605697E+00 -0.30728357617E+01  0.32471908874E+01  0.51100000000E-03 0.  1.
         12    1    3    3    0    0 -0.15849547399E+02 -0.12477155771E+02 -0.33806714087E+02  0.39367264144E+02  0.00000000000E+00 0. -1.
</event>
<event>
 7    1  0.1563903E-008  0.4614232E+02  0.7816164E-02  0.1320468E+00
        -11   -1    0    0    0    0  0.00000000000E+00  0.00000000000E+00  0.45593999997E+02  0.45594000000E+02  0.51100000000E-03 0. -1.
         11   -1    0    0    0    0 -0.00000000000E+00 -0.00000000000E+00 -0.45593999997E+02  0.45594000000E+02  0.51100000000E-03 0.  1.
    9900012    2    1    2    0    0 -0.10624468773E+02 -0.43748783415E+02  0.15093425018E+01  0.46142317612E+02  0.99999986399E+01 0.  0.
        -12    1    1    2    0    0  0.10624468773E+02  0.43748783415E+02 -0.15093425018E+01  0.45045682388E+02  0.00000000000E+00 0.  1.
         11    1    3    3    0    0 -0.19728767565E+01 -0.11835798229E+02 -0.13098822035E+00  0.11999813357E+02  0.51100000000E-03 0. -1.
        -11    1    3    3    0    0 -0.75020978498E+00 -0.11541840738E+02  0.38285256961E+01  0.12183370289E+02  0.51100000000E-03 0.  1.
        -12    1    3    3    0    0 -0.79013822313E+01 -0.20371144448E+02 -0.21881949740E+01  0.21959133966E+02  0.00000000000E+00 0.  1.
</event>
<event>
 7    1  0.1563903E-008  0.4614232E+02  0.7816164E-02  0.1320468E+00
        -11   -1    0    0    0    0  0.00000000000E+00  0.00000000000E+00  0.45593999997E+02  0.45594000000E+02  0.51100000000E-03 0.  1.
         11   -1    0    0    0    0 -0.00000000000E+00 -0.00000000000E+00 -0.45593999997E+02  0.45594000000E+02  0.51100000000E-03 0. -1.
    9900012    2    1    2    0    0 -0.21118520978E+02 -0.25731340228E+01 -0.39705170020E+02  0.46142317929E+02  0.10000001527E+02 0.  0.
        -12    1    1    2    0    0  0.21118520978E+02  0.25731340228E+01  0.39705170020E+02  0.45045682071E+02  0.00000000000E+00 0.  1.
         11    1    3    3    0    0 -0.81691214719E+01  0.17010024724E+01 -0.12914492465E+02  0.15375697413E+02  0.51100000000E-03 0. -1.
        -11    1    3    3    0    0 -0.15792873003E+01 -0.21291705674E+01 -0.17348324561E+01  0.31681476598E+01  0.51100000000E-03 0.  1.
         12    1    3    3    0    0 -0.11370112206E+02 -0.21449659278E+01 -0.25055845098E+02  0.27598472856E+02  0.00000000000E+00 0. -1.
</event>
<event>
 7    1  0.1563903E-008  0.4614232E+02  0.7816164E-02  0.1320468E+00
        -11   -1    0    0    0    0  0.00000000000E+00  0.00000000000E+00  0.45593999997E+02  0.45594000000E+02  0.51100000000E-03 0.  1.
         11   -1    0    0    0    0 -0.00000000000E+00 -0.00000000000E+00 -0.45593999997E+02  0.45594000000E+02  0.51100000000E-03 0. -1.
    9900012    2    1    2    0    0 -0.28791889249E+01  0.43692540624E+02 -0.10572871907E+02  0.46142318127E+02  0.10000003339E+02 0.  0.
        -12    1    1    2    0    0  0.28791889249E+01 -0.43692540624E+02  0.10572871907E+02  0.45045681873E+02  0.00000000000E+00 0.  1.
         11    1    3    3    0    0  0.20217858055E+01  0.26780059089E+02 -0.87979732189E+01  0.28260635444E+02  0.51100000000E-03 0.  1.
        -11    1    3    3    0    0 -0.43794793794E+01  0.16251853643E+02 -0.21345478956E+01  0.16966404493E+02  0.51100000000E-03 0. -1.
        -12    1    3    3    0    0 -0.52149535091E+00  0.66062789202E+00  0.35964920789E+00  0.91527819021E+00  0.00000000000E+00 0.  1.
</event>
<event>
 7    1  0.1563903E-008  0.4614232E+02  0.7816164E-02  0.1320468E+00
        -11   -1    0    0    0    0  0.00000000000E+00  0.00000000000E+00  0.45593999997E+02  0.45594000000E+02  0.51100000000E-03 0.  1.
         11   -1    0    0    0    0 -0.00000000000E+00 -0.00000000000E+00 -0.45593999997E+02  0.45594000000E+02  0.51100000000E-03 0. -1.
    9900012    2    1    2    0    0  0.38345826285E+02  0.28599896624E+01 -0.23463410115E+02  0.46142317093E+02  0.99999939098E+01 0.  0.
        -12    1    1    2    0    0 -0.38345826285E+02 -0.28599896624E+01  0.23463410115E+02  0.45045682907E+02  0.00000000000E+00 0.  1.
         11    1    3    3    0    0  0.18462571943E+02  0.18167166604E+01 -0.16727183234E+02  0.24979305063E+02  0.51100000000E-03 0.  1.
        -11    1    3    3    0    0  0.11981281768E+02 -0.51777640860E-01 -0.29853354010E+01  0.12347713207E+02  0.51100000000E-03 0. -1.
         12    1    3    3    0    0  0.79019725737E+01  0.10950506429E+01 -0.37508914795E+01  0.88152988240E+01  0.00000000000E+00 0. -1.
</event>
<event>
 7    1  0.1563903E-008  0.4614232E+02  0.7816164E-02  0.1320468E+00
        -11   -1    0    0    0    0  0.00000000000E+00  0.00000000000E+00  0.45593999997E+02  0.45594000000E+02  0.51100000000E-03 0.  1.
         11   -1    0    0    0    0 -0.00000000000E+00 -0.00000000000E+00 -0.45593999997E+02  0.45594000000E+02  0.51100000000E-03 0. -1.
    9900012    2    1    2    0    0 -0.70338074434E+01 -0.44363667355E+02 -0.33917767909E+01  0.46142316765E+02  0.99999909140E+01 0.  0.
        -12    1    1    2    0    0  0.70338074434E+01  0.44363667355E+02  0.33917767909E+01  0.45045683235E+02  0.00000000000E+00 0.  1.
         11    1    3    3    0    0 -0.17695396385E+01 -0.16914481638E+02  0.15611019408E+00  0.17007508056E+02  0.51100000000E-03 0. -1.
        -11    1    3    3    0    0 -0.12982185521E+01 -0.22639064540E+02 -0.30533520098E+01  0.22880899751E+02  0.51100000000E-03 0.  1.
        -12    1    3    3    0    0 -0.39660492528E+01 -0.48101211769E+01 -0.49453497513E+00  0.62539089579E+01  0.00000000000E+00 0.  1.
</event>
<event>
 7    1  0.1563903E-008  0.4614232E+02  0.7816164E-02  0.1320468E+00
        -11   -1    0    0    0    0  0.00000000000E+00  0.00000000000E+00  0.45593999997E+02  0.45594000000E+02  0.51100000000E-03 0.  1.
         11   -1    0    0    0    0 -0.00000000000E+00 -0.00000000000E+00 -0.45593999997E+02  0.45594000000E+02  0.51100000000E-03 0. -1.
    9900012    2    1    2    0    0 -0.26459634648E+02 -0.20798898100E+02 -0.29940058527E+02  0.46142317271E+02  0.99999955323E+01 0.  0.
        -12    1    1    2    0    0  0.26459634648E+02  0.20798898100E+02  0.29940058527E+02  0.45045682729E+02  0.00000000000E+00 0.  1.
         11    1    3    3    0    0 -0.37538832333E+01 -0.17828101711E+01 -0.18580065536E+01  0.45521687194E+01  0.51100000000E-03 0. -1.
        -11    1    3    3    0    0 -0.91313031093E+01 -0.49119291900E+01 -0.56145807299E+01  0.11791151847E+02  0.51100000000E-03 0.  1.
        -12    1    3    3    0    0 -0.13574448306E+02 -0.14104158739E+02 -0.22467471244E+02  0.29798996705E+02  0.00000000000E+00 0.  1.
</event>
<event>
 7    1  0.1563903E-008  0.4614231E+02  0.7816164E-02  0.1320468E+00
        -11   -1    0    0    0    0  0.00000000000E+00  0.00000000000E+00  0.45593999997E+02  0.45594000000E+02  0.51100000000E-03 0. -1.
         11   -1    0    0    0    0 -0.00000000000E+00 -0.00000000000E+00 -0.45593999997E+02  0.45594000000E+02  0.51100000000E-03 0.  1.
    9900012    2    1    2    0    0 -0.19198110618E+02 -0.20259332639E+02  0.35356834495E+02  0.46142314792E+02  0.99999729274E+01 0.  0.
        -12    1    1    2    0    0  0.19198110618E+02  0.20259332639E+02 -0.35356834495E+02  0.45045685208E+02  0.00000000000E+00 0.  1.
         11    1    3    3    0    0 -0.14120372286E+02 -0.15210759075E+02  0.24602753385E+02  0.32187692983E+02  0.51100000000E-03 0. -1.
        -11    1    3    3    0    0 -0.17716792827E+00 -0.18678295776E+01  0.19408719056E+00  0.18862253059E+01  0.51100000000E-03 0.  1.
        -12    1    3    3    0    0 -0.49005704038E+01 -0.31807439863E+01  0.10559993919E+02  0.12068396504E+02  0.00000000000E+00 0.  1.
</event>
<event>
 7    1  0.1563903E-008  0.4614232E+02  0.7816164E-02  0.1320468E+00
        -11   -1    0    0    0    0  0.00000000000E+00  0.00000000000E+00  0.45593999997E+02  0.45594000000E+02  0.51100000000E-03 0. -1.
         11   -1    0    0    0    0 -0.00000000000E+00 -0.00000000000E+00 -0.45593999997E+02  0.45594000000E+02  0.51100000000E-03 0.  1.
    9900012    2    1    2    0    0 -0.12213028898E+02 -0.32008216752E+02  0.29247726449E+02  0.46142317444E+02  0.99999971098E+01 0.  0.
        -12    1    1    2    0    0  0.12213028898E+02  0.32008216752E+02 -0.29247726449E+02  0.45045682556E+02  0.00000000000E+00 0.  1.
         11    1    3    3    0    0 -0.55186363816E+01 -0.58247563714E+01  0.74116071145E+01  0.10923143072E+02  0.51100000000E-03 0. -1.
        -11    1    3    3    0    0 -0.88783773263E+00 -0.14915867930E+02  0.12387898786E+02  0.19409570025E+02  0.51100000000E-03 0.  1.
        -12    1    3    3    0    0 -0.58065547835E+01 -0.11267592450E+02  0.94482205481E+01  0.15809604347E+02  0.00000000000E+00 0.  1.
</event>
<event>
 7    1  0.1563903E-008  0.4614232E+02  0.7816164E-02  0.1320468E+00
        -11   -1    0    0    0    0  0.00000000000E+00  0.00000000000E+00  0.45593999997E+02  0.45594000000E+02  0.51100000000E-03 0. -1.
         11   -1    0    0    0    0 -0.00000000000E+00 -0.00000000000E+00 -0.45593999997E+02  0.45594000000E+02  0.51100000000E-03 0.  1.
    9900012    2    1    2    0    0 -0.37645139002E+02  0.24096610784E+02  0.55955589368E+01  0.46142318502E+02  0.10000006759E+02 0.  0.
        -12    1    1    2    0    0  0.37645139002E+02 -0.24096610784E+02 -0.55955589368E+01  0.45045681498E+02  0.00000000000E+00 0.  1.
         11    1    3    3    0    0 -0.18439599259E+02  0.12558235664E+02  0.76060844696E+01  0.23570757838E+02  0.51100000000E-03 0. -1.
        -11    1    3    3    0    0 -0.24217270964E+01  0.14194031269E+01 -0.87593721294E+00  0.29405328817E+01  0.51100000000E-03 0.  1.
         12    1    3    3    0    0 -0.16783812647E+02  0.10118971993E+02 -0.11345883198E+01  0.19631027783E+02  0.00000000000E+00 0. -1.
</event>
<event>
 7    1  0.1563903E-008  0.4614232E+02  0.7816164E-02  0.1320468E+00
        -11   -1    0    0    0    0  0.00000000000E+00  0.00000000000E+00  0.45593999997E+02  0.45594000000E+02  0.51100000000E-03 0.  1.
         11   -1    0    0    0    0 -0.00000000000E+00 -0.00000000000E+00 -0.45593999997E+02  0.45594000000E+02  0.51100000000E-03 0. -1.
    9900012    2    1    2    0    0  0.81376456285E+01 -0.85197478714E+01 -0.43477648310E+02  0.46142320044E+02  0.10000020815E+02 0.  0.
        -12    1    1    2    0    0 -0.81376456285E+01  0.85197478714E+01  0.43477648310E+02  0.45045679956E+02  0.00000000000E+00 0.  1.
         11    1    3    3    0    0  0.29467284592E+01  0.12985111118E+01 -0.12475340263E+02  0.12884232793E+02  0.51100000000E-03 0. -1.
        -11    1    3    3    0    0  0.57195474193E+01 -0.66251284919E+01 -0.23928809391E+02  0.25479275291E+02  0.51100000000E-03 0.  1.
        -12    1    3    3    0    0 -0.52863024997E+00 -0.31931304913E+01 -0.70734986558E+01  0.77788119600E+01  0.00000000000E+00 0.  1.
</event>
<event>
 7    1  0.1563903E-008  0.4614232E+02  0.7816164E-02  0.1320468E+00
        -11   -1    0    0    0    0  0.00000000000E+00  0.00000000000E+00  0.45593999997E+02  0.45594000000E+02  0.51100000000E-03 0.  1.
         11   -1    0    0    0    0 -0.00000000000E+00 -0.00000000000E+00 -0.45593999997E+02  0.45594000000E+02  0.51100000000E-03 0. -1.
    9900012    2    1    2    0    0  0.27413450671E+02 -0.35589478582E+02  0.33173943450E+01  0.46142319090E+02  0.10000012113E+02 0.  0.
        -12    1    1    2    0    0 -0.27413450671E+02  0.35589478582E+02 -0.33173943450E+01  0.45045680910E+02  0.00000000000E+00 0.  1.
         11    1    3    3    0    0  0.34723586620E+01 -0.25839772336E+01 -0.23745131496E+01  0.49368538545E+01  0.51100000000E-03 0.  1.
        -11    1    3    3    0    0  0.14728903305E+02 -0.21492151462E+02  0.31873140892E+01  0.26249040714E+02  0.51100000000E-03 0. -1.
        -12    1    3    3    0    0  0.92121887043E+01 -0.11513349886E+02  0.25045934054E+01  0.14956424521E+02  0.00000000000E+00 0.  1.
</event>
<event>
 7    1  0.1563903E-008  0.4614232E+02  0.7816164E-02  0.1320468E+00
        -11   -1    0    0    0    0  0.00000000000E+00  0.00000000000E+00  0.45593999997E+02  0.45594000000E+02  0.51100000000E-03 0. -1.
         11   -1    0    0    0    0 -0.00000000000E+00 -0.00000000000E+00 -0.45593999997E+02  0.45594000000E+02  0.51100000000E-03 0.  1.
    9900012    2    1    2    0    0 -0.19660130398E+02 -0.38085887674E+02  0.13858496158E+02  0.46142317822E+02  0.10000000551E+02 0.  0.
        -12    1    1    2    0    0  0.19660130398E+02  0.38085887674E+02 -0.13858496158E+02  0.45045682178E+02  0.00000000000E+00 0.  1.
         11    1    3    3    0    0 -0.80967690190E+01 -0.24938573603E+02  0.68729993040E+01  0.27105870980E+02  0.51100000000E-03 0. -1.
        -11    1    3    3    0    0 -0.60427020323E+01 -0.52765827032E+01  0.23241021780E+01  0.83521269189E+01  0.51100000000E-03 0.  1.
        -12    1    3    3    0    0 -0.55206593467E+01 -0.78707313679E+01  0.46613946762E+01  0.10684319923E+02  0.00000000000E+00 0.  1.
</event>
<event>
 7    1  0.1563903E-008  0.4614232E+02  0.7816164E-02  0.1320468E+00
        -11   -1    0    0    0    0  0.00000000000E+00  0.00000000000E+00  0.45593999997E+02  0.45594000000E+02  0.51100000000E-03 0.  1.
         11   -1    0    0    0    0 -0.00000000000E+00 -0.00000000000E+00 -0.45593999997E+02  0.45594000000E+02  0.51100000000E-03 0. -1.
    9900012    2    1    2    0    0  0.19414030364E+02  0.58966499363E+01 -0.40217390173E+02  0.46142317324E+02  0.99999960101E+01 0.  0.
        -12    1    1    2    0    0 -0.19414030364E+02 -0.58966499363E+01  0.40217390173E+02  0.45045682676E+02  0.00000000000E+00 0.  1.
         11    1    3    3    0    0  0.13116432101E+02  0.57272111527E+01 -0.23677225481E+02  0.27666816683E+02  0.51100000000E-03 0. -1.
        -11    1    3    3    0    0  0.33620624065E+01 -0.11298066258E+01 -0.32755406476E+01  0.48279491953E+01  0.51100000000E-03 0.  1.
        -12    1    3    3    0    0  0.29355358563E+01  0.12992454094E+01 -0.13264624045E+02  0.13647551445E+02  0.00000000000E+00 0.  1.
</event>
<event>
 7    1  0.1563903E-008  0.4614232E+02  0.7816164E-02  0.1320468E+00
        -11   -1    0    0    0    0  0.00000000000E+00  0.00000000000E+00  0.45593999997E+02  0.45594000000E+02  0.51100000000E-03 0.  1.
         11   -1    0    0    0    0 -0.00000000000E+00 -0.00000000000E+00 -0.45593999997E+02  0.45594000000E+02  0.51100000000E-03 0. -1.
    9900012    2    1    2    0    0 -0.35594739992E+02 -0.10250120725E+02  0.25633240022E+02  0.46142317810E+02  0.10000000446E+02 0.  0.
        -12    1    1    2    0    0  0.35594739992E+02  0.10250120725E+02 -0.25633240022E+02  0.45045682190E+02  0.00000000000E+00 0.  1.
         11    1    3    3    0    0 -0.19204874081E+02 -0.66564104345E+00  0.12250219810E+02  0.22788991907E+02  0.51100000000E-03 0. -1.
        -11    1    3    3    0    0 -0.74480218750E+01 -0.42409649183E+01  0.75064950921E+01  0.11393255993E+02  0.51100000000E-03 0.  1.
         12    1    3    3    0    0 -0.89418440358E+01 -0.53435147630E+01  0.58765251193E+01  0.11960069910E+02  0.00000000000E+00 0. -1.
</event>
<event>
 7    1  0.1563903E-008  0.4614232E+02  0.7816164E-02  0.1320468E+00
        -11   -1    0    0    0    0  0.00000000000E+00  0.00000000000E+00  0.45593999997E+02  0.45594000000E+02  0.51100000000E-03 0.  1.
         11   -1    0    0    0    0 -0.00000000000E+00 -0.00000000000E+00 -0.45593999997E+02  0.45594000000E+02  0.51100000000E-03 0. -1.
    9900012    2    1    2    0    0 -0.24139528233E+01  0.76877188143E+01 -0.44319130543E+02  0.46142317400E+02  0.99999967045E+01 0.  0.
        -12    1    1    2    0    0  0.24139528233E+01 -0.76877188143E+01  0.44319130543E+02  0.45045682600E+02  0.00000000000E+00 0.  1.
         11    1    3    3    0    0 -0.67574868845E-02  0.59940928188E+01 -0.11364754842E+02  0.12848612659E+02  0.51100000000E-03 0. -1.
        -11    1    3    3    0    0 -0.21518426380E+01  0.18666036166E+01 -0.11868357795E+02  0.12205431283E+02  0.51100000000E-03 0.  1.
         12    1    3    3    0    0 -0.25535269841E+00 -0.17297762109E+00 -0.21086017907E+02  0.21088273458E+02  0.00000000000E+00 0. -1.
</event>
<event>
 7    1  0.1563903E-008  0.4614232E+02  0.7816164E-02  0.1320468E+00
        -11   -1    0    0    0    0  0.00000000000E+00  0.00000000000E+00  0.45593999997E+02  0.45594000000E+02  0.51100000000E-03 0.  1.
         11   -1    0    0    0    0 -0.00000000000E+00 -0.00000000000E+00 -0.45593999997E+02  0.45594000000E+02  0.51100000000E-03 0. -1.
    9900012    2    1    2    0    0 -0.35206719751E+02  0.11653435556E-01 -0.28099825543E+02  0.46142318221E+02  0.10000004193E+02 0.  0.
        -12    1    1    2    0    0  0.35206719751E+02 -0.11653435556E-01  0.28099825543E+02  0.45045681779E+02  0.00000000000E+00 0.  1.
         11    1    3    3    0    0 -0.41495240535E+01 -0.11665821804E+01 -0.34788966741E+01  0.55391503125E+01  0.51100000000E-03 0. -1.
        -11    1    3    3    0    0 -0.21361864943E+02  0.48571603102E+01 -0.17172357576E+02  0.27835429673E+02  0.51100000000E-03 0.  1.
        -12    1    3    3    0    0 -0.96953307545E+01 -0.36789246942E+01 -0.74485712927E+01  0.12767738235E+02  0.00000000000E+00 0.  1.
</event>
<event>
 7    1  0.1563903E-008  0.4614232E+02  0.7816164E-02  0.1320468E+00
        -11   -1    0    0    0    0  0.00000000000E+00  0.00000000000E+00  0.45593999997E+02  0.45594000000E+02  0.51100000000E-03 0.  1.
         11   -1    0    0    0    0 -0.00000000000E+00 -0.00000000000E+00 -0.45593999997E+02  0.45594000000E+02  0.51100000000E-03 0. -1.
    9900012    2    1    2    0    0 -0.59713039713E+01 -0.36822121893E+01 -0.44496049816E+02  0.46142316445E+02  0.99999879978E+01 0.  0.
        -12    1    1    2    0    0  0.59713039713E+01  0.36822121893E+01  0.44496049816E+02  0.45045683555E+02  0.00000000000E+00 0.  1.
         11    1    3    3    0    0 -0.56669391352E+01 -0.19558238385E+01 -0.24113874424E+02  0.24847905063E+02  0.51100000000E-03 0. -1.
        -11    1    3    3    0    0 -0.93148760997E-01 -0.38517726164E+01 -0.10513564747E+02  0.11197315434E+02  0.51100000000E-03 0.  1.
         12    1    3    3    0    0 -0.21121607506E+00  0.21253842656E+01 -0.98686106455E+01  0.10097095948E+02  0.00000000000E+00 0. -1.
</event>
<event>
 7    1  0.1563903E-008  0.4614232E+02  0.7816164E-02  0.1320468E+00
        -11   -1    0    0    0    0  0.00000000000E+00  0.00000000000E+00  0.45593999997E+02  0.45594000000E+02  0.51100000000E-03 0.  1.
         11   -1    0    0    0    0 -0.00000000000E+00 -0.00000000000E+00 -0.45593999997E+02  0.45594000000E+02  0.51100000000E-03 0. -1.
    9900012    2    1    2    0    0  0.39739203371E+02  0.58940474896E+01  0.20375705071E+02  0.46142318326E+02  0.10000005149E+02 0.  0.
        -12    1    1    2    0    0 -0.39739203371E+02 -0.58940474896E+01 -0.20375705071E+02  0.45045681674E+02  0.00000000000E+00 0.  1.
         11    1    3    3    0    0  0.16458985030E+02  0.64720535887E+00  0.53741062495E+01  0.17326225245E+02  0.51100000000E-03 0. -1.
        -11    1    3    3    0    0  0.11783052917E+02  0.54108351630E+01  0.64196680151E+01  0.14468227635E+02  0.51100000000E-03 0.  1.
         12    1    3    3    0    0  0.11497165424E+02 -0.16399303224E+00  0.85819308060E+01  0.14347865446E+02  0.00000000000E+00 0. -1.
</event>
<event>
 7    1  0.1563903E-008  0.4614232E+02  0.7816164E-02  0.1320468E+00
        -11   -1    0    0    0    0  0.00000000000E+00  0.00000000000E+00  0.45593999997E+02  0.45594000000E+02  0.51100000000E-03 0.  1.
         11   -1    0    0    0    0 -0.00000000000E+00 -0.00000000000E+00 -0.45593999997E+02  0.45594000000E+02  0.51100000000E-03 0. -1.
    9900012    2    1    2    0    0  0.14595899865E+01  0.32277532410E+02 -0.31387002704E+02  0.46142318297E+02  0.10000004883E+02 0.  0.
        -12    1    1    2    0    0 -0.14595899865E+01 -0.32277532410E+02  0.31387002704E+02  0.45045681703E+02  0.00000000000E+00 0.  1.
         11    1    3    3    0    0  0.14038541223E+01  0.25230265388E+02 -0.24646000387E+02  0.35298193059E+02  0.51100000000E-03 0. -1.
        -11    1    3    3    0    0 -0.11941883047E+01  0.71257912335E+01 -0.59780970080E+01  0.93776665812E+01  0.51100000000E-03 0.  1.
         12    1    3    3    0    0  0.12499241689E+01 -0.78524210945E-01 -0.76290530900E+00  0.14664586562E+01  0.00000000000E+00 0. -1.
</event>
<event>
 7    1  0.1563903E-008  0.4614232E+02  0.7816164E-02  0.1320468E+00
        -11   -1    0    0    0    0  0.00000000000E+00  0.00000000000E+00  0.45593999997E+02  0.45594000000E+02  0.51100000000E-03 0.  1.
         11   -1    0    0    0    0 -0.00000000000E+00 -0.00000000000E+00 -0.45593999997E+02  0.45594000000E+02  0.51100000000E-03 0. -1.
    9900012    2    1    2    0    0 -0.99533384951E+00 -0.99534916355E+01 -0.43920960739E+02  0.46142317882E+02  0.10000001102E+02 0.  0.
        -12    1    1    2    0    0  0.99533384951E+00  0.99534916355E+01  0.43920960739E+02  0.45045682118E+02  0.00000000000E+00 0.  1.
         11    1    3    3    0    0 -0.24336733535E+01 -0.85875467192E+01 -0.30847025241E+02  0.32112422691E+02  0.51100000000E-03 0. -1.
        -11    1    3    3    0    0  0.27997021081E+01 -0.19541895012E+01 -0.71531750456E+01  0.79262287372E+01  0.51100000000E-03 0.  1.
        -12    1    3    3    0    0 -0.13613626041E+01  0.58824458492E+00 -0.59207604531E+01  0.61036664534E+01  0.00000000000E+00 0.  1.
</event>
<event>
 7    1  0.1563903E-008  0.4614232E+02  0.7816164E-02  0.1320468E+00
        -11   -1    0    0    0    0  0.00000000000E+00  0.00000000000E+00  0.45593999997E+02  0.45594000000E+02  0.51100000000E-03 0.  1.
         11   -1    0    0    0    0 -0.00000000000E+00 -0.00000000000E+00 -0.45593999997E+02  0.45594000000E+02  0.51100000000E-03 0. -1.
    9900012    2    1    2    0    0  0.17954922606E+01  0.32469097358E+02 -0.31171259727E+02  0.46142317536E+02  0.99999979471E+01 0.  0.
        -12    1    1    2    0    0 -0.17954922606E+01 -0.32469097358E+02  0.31171259727E+02  0.45045682464E+02  0.00000000000E+00 0.  1.
         11    1    3    3    0    0  0.13679216375E+01  0.10917721698E+02 -0.98724545058E+01  0.14782868968E+02  0.51100000000E-03 0. -1.
        -11    1    3    3    0    0 -0.30943231530E+01  0.16901910946E+02 -0.16043451140E+02  0.23508333717E+02  0.51100000000E-03 0.  1.
        -12    1    3    3    0    0  0.35218937761E+01  0.46494647141E+01 -0.52553540805E+01  0.78511148513E+01  0.00000000000E+00 0.  1.
</event>
<event>
 7    1  0.1563903E-008  0.4614232E+02  0.7816164E-02  0.1320468E+00
        -11   -1    0    0    0    0  0.00000000000E+00  0.00000000000E+00  0.45593999997E+02  0.45594000000E+02  0.51100000000E-03 0.  1.
         11   -1    0    0    0    0 -0.00000000000E+00 -0.00000000000E+00 -0.45593999997E+02  0.45594000000E+02  0.51100000000E-03 0. -1.
    9900012    2    1    2    0    0 -0.38039936332E+02  0.19694148757E+01 -0.24045750754E+02  0.46142317849E+02  0.10000000801E+02 0.  0.
        -12    1    1    2    0    0  0.38039936332E+02 -0.19694148757E+01  0.24045750754E+02  0.45045682151E+02  0.00000000000E+00 0.  1.
         11    1    3    3    0    0 -0.70302565895E+01  0.35030393088E+01 -0.60767898993E+01  0.99309197890E+01  0.51100000000E-03 0.  1.
        -11    1    3    3    0    0 -0.20078644187E+02  0.82385644034E+00 -0.97657078602E+01  0.22342778299E+02  0.51100000000E-03 0. -1.
        -12    1    3    3    0    0 -0.10931035555E+02 -0.23574808734E+01 -0.82032529949E+01  0.13868619761E+02  0.00000000000E+00 0.  1.
</event>
<event>
 7    1  0.1563903E-008  0.4614232E+02  0.7816164E-02  0.1320468E+00
        -11   -1    0    0    0    0  0.00000000000E+00  0.00000000000E+00  0.45593999997E+02  0.45594000000E+02  0.51100000000E-03 0. -1.
         11   -1    0    0    0    0 -0.00000000000E+00 -0.00000000000E+00 -0.45593999997E+02  0.45594000000E+02  0.51100000000E-03 0.  1.
    9900012    2    1    2    0    0  0.56414310558E+01 -0.21248765494E+02  0.39316379710E+02  0.46142317711E+02  0.99999995436E+01 0.  0.
        -12    1    1    2    0    0 -0.56414310558E+01  0.21248765494E+02 -0.39316379710E+02  0.45045682289E+02  0.00000000000E+00 0.  1.
         11    1    3    3    0    0 -0.19151903090E+01 -0.82498166523E+01  0.16579260423E+02  0.18617177690E+02  0.51100000000E-03 0. -1.
        -11    1    3    3    0    0  0.62381782684E+01 -0.80080835395E+01  0.17063154161E+02  0.19854357211E+02  0.51100000000E-03 0.  1.
        -12    1    3    3    0    0  0.13184430964E+01 -0.49908653018E+01  0.56739651261E+01  0.76707828095E+01  0.00000000000E+00 0.  1.
</event>
<event>
 7    1  0.1563903E-008  0.4614232E+02  0.7816164E-02  0.1320468E+00
        -11   -1    0    0    0    0  0.00000000000E+00  0.00000000000E+00  0.45593999997E+02  0.45594000000E+02  0.51100000000E-03 0.  1.
         11   -1    0    0    0    0 -0.00000000000E+00 -0.00000000000E+00 -0.45593999997E+02  0.45594000000E+02  0.51100000000E-03 0. -1.
    9900012    2    1    2    0    0 -0.20233171886E+02 -0.21274321931E+02 -0.34163364480E+02  0.46142317734E+02  0.99999997548E+01 0.  0.
        -12    1    1    2    0    0  0.20233171886E+02  0.21274321931E+02  0.34163364480E+02  0.45045682266E+02  0.00000000000E+00 0.  1.
         11    1    3    3    0    0 -0.18903494748E+02 -0.20539581413E+02 -0.29383817047E+02  0.40529313130E+02  0.51100000000E-03 0. -1.
        -11    1    3    3    0    0 -0.97289496438E+00 -0.68916146182E+00 -0.50334561254E+01  0.51727312863E+01  0.51100000000E-03 0.  1.
         12    1    3    3    0    0 -0.35678217393E+00 -0.45579056747E-01  0.25390869273E+00  0.44027331771E+00  0.00000000000E+00 0. -1.
</event>
<event>
 7    1  0.1563903E-008  0.4614232E+02  0.7816164E-02  0.1320468E+00
        -11   -1    0    0    0    0  0.00000000000E+00  0.00000000000E+00  0.45593999997E+02  0.45594000000E+02  0.51100000000E-03 0.  1.
         11   -1    0    0    0    0 -0.00000000000E+00 -0.00000000000E+00 -0.45593999997E+02  0.45594000000E+02  0.51100000000E-03 0. -1.
    9900012    2    1    2    0    0  0.17935815600E+02 -0.37606016236E+02 -0.17123296801E+02  0.46142320610E+02  0.10000025980E+02 0.  0.
        -12    1    1    2    0    0 -0.17935815600E+02  0.37606016236E+02  0.17123296801E+02  0.45045679390E+02  0.00000000000E+00 0.  1.
         11    1    3    3    0    0  0.10097538341E+02 -0.15566250121E+02 -0.47347710641E+01  0.19149059524E+02  0.51100000000E-03 0. -1.
        -11    1    3    3    0    0  0.51978389364E+01 -0.19934205511E+02 -0.10457970332E+02  0.23103229703E+02  0.51100000000E-03 0.  1.
        -12    1    3    3    0    0  0.26404383222E+01 -0.21055606033E+01 -0.19305554048E+01  0.38900313827E+01  0.00000000000E+00 0.  1.
</event>
<event>
 7    1  0.1563903E-008  0.4614232E+02  0.7816164E-02  0.1320468E+00
        -11   -1    0    0    0    0  0.00000000000E+00  0.00000000000E+00  0.45593999997E+02  0.45594000000E+02  0.51100000000E-03 0.  1.
         11   -1    0    0    0    0 -0.00000000000E+00 -0.00000000000E+00 -0.45593999997E+02  0.45594000000E+02  0.51100000000E-03 0. -1.
    9900012    2    1    2    0    0  0.18397997136E+02  0.16604193702E+02 -0.37615527494E+02  0.46142318123E+02  0.10000003299E+02 0.  0.
        -12    1    1    2    0    0 -0.18397997136E+02 -0.16604193702E+02  0.37615527494E+02  0.45045681877E+02  0.00000000000E+00 0.  1.
         11    1    3    3    0    0  0.75231899986E+01  0.82957602954E+01 -0.22240014435E+02  0.24900527484E+02  0.51100000000E-03 0. -1.
        -11    1    3    3    0    0  0.15959295090E+01  0.38730255545E+01 -0.30092716526E+01  0.51578129167E+01  0.51100000000E-03 0.  1.
         12    1    3    3    0    0  0.92788776280E+01  0.44354078526E+01 -0.12366241406E+02  0.16083977722E+02  0.00000000000E+00 0. -1.
</event>
<event>
 7    1  0.1563903E-008  0.4614232E+02  0.7816164E-02  0.1320468E+00
        -11   -1    0    0    0    0  0.00000000000E+00  0.00000000000E+00  0.45593999997E+02  0.45594000000E+02  0.51100000000E-03 0.  1.
         11   -1    0    0    0    0 -0.00000000000E+00 -0.00000000000E+00 -0.45593999997E+02  0.45594000000E+02  0.51100000000E-03 0. -1.
    9900012    2    1    2    0    0  0.39951640866E+02 -0.18568851712E+02  0.93902916050E+01  0.46142318318E+02  0.10000005078E+02 0.  0.
        -12    1    1    2    0    0 -0.39951640866E+02  0.18568851712E+02 -0.93902916050E+01  0.45045681682E+02  0.00000000000E+00 0.  1.
         11    1    3    3    0    0  0.32823157452E+02 -0.15693771186E+02  0.40224982254E+01  0.36603751329E+02  0.51100000000E-03 0. -1.
        -11    1    3    3    0    0  0.65885296480E+01 -0.31217891874E+01  0.49921767783E+01  0.88360692562E+01  0.51100000000E-03 0.  1.
         12    1    3    3    0    0  0.53995376619E+00  0.24670866135E+00  0.37561660137E+00  0.70249773269E+00  0.00000000000E+00 0. -1.
</event>
<event>
 7    1  0.1563903E-008  0.4614232E+02  0.7816164E-02  0.1320468E+00
        -11   -1    0    0    0    0  0.00000000000E+00  0.00000000000E+00  0.45593999997E+02  0.45594000000E+02  0.51100000000E-03 0.  1.
         11   -1    0    0    0    0 -0.00000000000E+00 -0.00000000000E+00 -0.45593999997E+02  0.45594000000E+02  0.51100000000E-03 0. -1.
    9900012    2    1    2    0    0  0.12868336795E+02 -0.29902360595E+02 -0.31134678796E+02  0.46142317801E+02  0.10000000364E+02 0.  0.
        -12    1    1    2    0    0 -0.12868336795E+02  0.29902360595E+02  0.31134678796E+02  0.45045682199E+02  0.00000000000E+00 0.  1.
         11    1    3    3    0    0  0.21160718957E+01 -0.98672261388E+01 -0.12797357124E+02  0.16297615211E+02  0.51100000000E-03 0. -1.
        -11    1    3    3    0    0  0.32284956435E+01 -0.17213892584E+01 -0.38514856558E+01  0.53122789005E+01  0.51100000000E-03 0.  1.
         12    1    3    3    0    0  0.75237692560E+01 -0.18313745198E+02 -0.14485836015E+02  0.24532423689E+02  0.00000000000E+00 0. -1.
</event>
<event>
 7    1  0.1563903E-008  0.4614232E+02  0.7816164E-02  0.1320468E+00
        -11   -1    0    0    0    0  0.00000000000E+00  0.00000000000E+00  0.45593999997E+02  0.45594000000E+02  0.51100000000E-03 0.  1.
         11   -1    0    0    0    0 -0.00000000000E+00 -0.00000000000E+00 -0.45593999997E+02  0.45594000000E+02  0.51100000000E-03 0. -1.
    9900012    2    1    2    0    0 -0.37998754432E+02 -0.14374243824E+02 -0.19457369609E+02  0.46142318120E+02  0.10000003276E+02 0.  0.
        -12    1    1    2    0    0  0.37998754432E+02  0.14374243824E+02  0.19457369609E+02  0.45045681880E+02  0.00000000000E+00 0.  1.
         11    1    3    3    0    0 -0.19953240710E+02 -0.10576773520E+02 -0.66780285370E+01  0.23549862385E+02  0.51100000000E-03 0. -1.
        -11    1    3    3    0    0 -0.14202464964E+02 -0.39173766799E+01 -0.94216798552E+01  0.17487821553E+02  0.51100000000E-03 0.  1.
        -12    1    3    3    0    0 -0.38430487580E+01  0.11990637625E+00 -0.33576612169E+01  0.51046341831E+01  0.00000000000E+00 0.  1.
</event>
<event>
 7    1  0.1563903E-008  0.4614232E+02  0.7816164E-02  0.1320468E+00
        -11   -1    0    0    0    0  0.00000000000E+00  0.00000000000E+00  0.45593999997E+02  0.45594000000E+02  0.51100000000E-03 0. -1.
         11   -1    0    0    0    0 -0.00000000000E+00 -0.00000000000E+00 -0.45593999997E+02  0.45594000000E+02  0.51100000000E-03 0.  1.
    9900012    2    1    2    0    0 -0.28425528745E+02 -0.26441922709E+02  0.22845735533E+02  0.46142316600E+02  0.99999894088E+01 0.  0.
        -12    1    1    2    0    0  0.28425528745E+02  0.26441922709E+02 -0.22845735533E+02  0.45045683400E+02  0.00000000000E+00 0.  1.
         11    1    3    3    0    0 -0.89892250913E+01 -0.78685094923E+01  0.10229946418E+02  0.15728045440E+02  0.51100000000E-03 0. -1.
        -11    1    3    3    0    0 -0.63564668567E+01 -0.88072383283E+01  0.22941014196E+01  0.11101126945E+02  0.51100000000E-03 0.  1.
        -12    1    3    3    0    0 -0.13079836797E+02 -0.97661748881E+01  0.10321687695E+02  0.19313144215E+02  0.00000000000E+00 0.  1.
</event>
<event>
 7    1  0.1563903E-008  0.4614232E+02  0.7816164E-02  0.1320468E+00
        -11   -1    0    0    0    0  0.00000000000E+00  0.00000000000E+00  0.45593999997E+02  0.45594000000E+02  0.51100000000E-03 0. -1.
         11   -1    0    0    0    0 -0.00000000000E+00 -0.00000000000E+00 -0.45593999997E+02  0.45594000000E+02  0.51100000000E-03 0.  1.
    9900012    2    1    2    0    0  0.18862237592E+02 -0.33464401594E+02  0.23525799871E+02  0.46142318291E+02  0.10000004834E+02 0.  0.
        -12    1    1    2    0    0 -0.18862237592E+02  0.33464401594E+02 -0.23525799871E+02  0.45045681709E+02  0.00000000000E+00 0.  1.
         11    1    3    3    0    0 -0.43038042144E+00 -0.60503086648E+01  0.28517913337E+01  0.67025499862E+01  0.51100000000E-03 0.  1.
        -11    1    3    3    0    0  0.80827251487E+01 -0.13039206660E+02  0.10067663182E+02  0.18349637554E+02  0.51100000000E-03 0. -1.
        -12    1    3    3    0    0  0.11209892865E+02 -0.14374886269E+02  0.10606345356E+02  0.21090130751E+02  0.00000000000E+00 0.  1.
</event>
<event>
 7    1  0.1563903E-008  0.4614231E+02  0.7816164E-02  0.1320468E+00
        -11   -1    0    0    0    0  0.00000000000E+00  0.00000000000E+00  0.45593999997E+02  0.45594000000E+02  0.51100000000E-03 0. -1.
         11   -1    0    0    0    0 -0.00000000000E+00 -0.00000000000E+00 -0.45593999997E+02  0.45594000000E+02  0.51100000000E-03 0.  1.
    9900012    2    1    2    0    0  0.35065616258E+02  0.27620071681E+02  0.60537784658E+01  0.46142311672E+02  0.99999444744E+01 0.  0.
        -12    1    1    2    0    0 -0.35065616258E+02 -0.27620071681E+02 -0.60537784658E+01  0.45045688328E+02  0.00000000000E+00 0.  1.
         11    1    3    3    0    0  0.60125834369E+01  0.54975249380E+01 -0.16604511632E+01  0.83145077038E+01  0.51100000000E-03 0. -1.
        -11    1    3    3    0    0  0.63640497153E+01  0.80983773378E+01  0.11909850912E+01  0.10368379335E+02  0.51100000000E-03 0.  1.
        -12    1    3    3    0    0  0.22688983106E+02  0.14024169405E+02  0.65232445377E+01  0.27459424633E+02  0.00000000000E+00 0.  1.
</event>
<event>
 7    1  0.1563903E-008  0.4614232E+02  0.7816164E-02  0.1320468E+00
        -11   -1    0    0    0    0  0.00000000000E+00  0.00000000000E+00  0.45593999997E+02  0.45594000000E+02  0.51100000000E-03 0.  1.
         11   -1    0    0    0    0 -0.00000000000E+00 -0.00000000000E+00 -0.45593999997E+02  0.45594000000E+02  0.51100000000E-03 0. -1.
    9900012    2    1    2    0    0  0.24650685782E+01  0.41554687877E+02 -0.17211763340E+02  0.46142318243E+02  0.10000004393E+02 0.  0.
        -12    1    1    2    0    0 -0.24650685782E+01 -0.41554687877E+02  0.17211763340E+02  0.45045681757E+02  0.00000000000E+00 0.  1.
         11    1    3    3    0    0  0.39146076451E+01  0.74765336463E+01 -0.28738601096E+01  0.89152554966E+01  0.51100000000E-03 0. -1.
        -11    1    3    3    0    0 -0.12092782676E+01  0.13992224637E+02 -0.80025239511E+01  0.16164315453E+02  0.51100000000E-03 0.  1.
         12    1    3    3    0    0 -0.24026079925E+00  0.20085929595E+02 -0.63353792798E+01  0.21062747293E+02  0.00000000000E+00 0. -1.
</event>
<event>
 7    1  0.1563903E-008  0.4614232E+02  0.7816164E-02  0.1320468E+00
        -11   -1    0    0    0    0  0.00000000000E+00  0.00000000000E+00  0.45593999997E+02  0.45594000000E+02  0.51100000000E-03 0.  1.
         11   -1    0    0    0    0 -0.00000000000E+00 -0.00000000000E+00 -0.45593999997E+02  0.45594000000E+02  0.51100000000E-03 0. -1.
    9900012    2    1    2    0    0 -0.32674858847E+01  0.40616197209E+02 -0.19203165618E+02  0.46142317527E+02  0.99999978651E+01 0.  0.
        -12    1    1    2    0    0  0.32674858847E+01 -0.40616197209E+02  0.19203165618E+02  0.45045682473E+02  0.00000000000E+00 0.  1.
         11    1    3    3    0    0 -0.23498405571E+01  0.38024635336E+02 -0.18396051598E+02  0.42306138535E+02  0.51100000000E-03 0. -1.
        -11    1    3    3    0    0  0.63599361319E+00  0.71474516129E+00 -0.10101275758E+01  0.13912966981E+01  0.51100000000E-03 0.  1.
         12    1    3    3    0    0 -0.15536389407E+01  0.18768167113E+01  0.20301355608E+00  0.24448822937E+01  0.00000000000E+00 0. -1.
</event>
<event>
 7    1  0.1563903E-008  0.4614232E+02  0.7816164E-02  0.1320468E+00
        -11   -1    0    0    0    0  0.00000000000E+00  0.00000000000E+00  0.45593999997E+02  0.45594000000E+02  0.51100000000E-03 0.  1.
         11   -1    0    0    0    0 -0.00000000000E+00 -0.00000000000E+00 -0.45593999997E+02  0.45594000000E+02  0.51100000000E-03 0. -1.
    9900012    2    1    2    0    0  0.23273705490E+01  0.44193832364E+02 -0.84025016970E+01  0.46142317549E+02  0.99999980668E+01 0.  0.
        -12    1    1    2    0    0 -0.23273705490E+01 -0.44193832364E+02  0.84025016970E+01  0.45045682451E+02  0.00000000000E+00 0.  1.
         11    1    3    3    0    0 -0.86382384404E+00  0.12556424883E+02 -0.16491060099E+01  0.12693681435E+02  0.51100000000E-03 0. -1.
        -11    1    3    3    0    0  0.40342454741E+01  0.31595370570E+02 -0.62300052090E+01  0.32455439346E+02  0.51100000000E-03 0.  1.
        -12    1    3    3    0    0 -0.84305108102E+00  0.42036911095E-01 -0.52339047822E+00  0.99319676791E+00  0.00000000000E+00 0.  1.
</event>
<event>
 7    1  0.1563903E-008  0.4614232E+02  0.7816164E-02  0.1320468E+00
        -11   -1    0    0    0    0  0.00000000000E+00  0.00000000000E+00  0.45593999997E+02  0.45594000000E+02  0.51100000000E-03 0.  1.
         11   -1    0    0    0    0 -0.00000000000E+00 -0.00000000000E+00 -0.45593999997E+02  0.45594000000E+02  0.51100000000E-03 0. -1.
    9900012    2    1    2    0    0 -0.29694579200E+02 -0.24487918249E+02 -0.23402719671E+02  0.46142318054E+02  0.10000002669E+02 0.  0.
        -12    1    1    2    0    0  0.29694579200E+02  0.24487918249E+02  0.23402719671E+02  0.45045681946E+02  0.00000000000E+00 0.  1.
         11    1    3    3    0    0 -0.29240091915E+00 -0.47632489376E+00 -0.17251969487E+01  0.18134741451E+01  0.51100000000E-03 0. -1.
        -11    1    3    3    0    0 -0.22069475819E+01 -0.15332608994E+01 -0.41205963784E+01  0.49194330354E+01  0.51100000000E-03 0.  1.
         12    1    3    3    0    0 -0.27195230699E+02 -0.22478332456E+02 -0.17556926343E+02  0.39409410873E+02  0.00000000000E+00 0. -1.
</event>
<event>
 7    1  0.1563903E-008  0.4614232E+02  0.7816164E-02  0.1320468E+00
        -11   -1    0    0    0    0  0.00000000000E+00  0.00000000000E+00  0.45593999997E+02  0.45594000000E+02  0.51100000000E-03 0.  1.
         11   -1    0    0    0    0 -0.00000000000E+00 -0.00000000000E+00 -0.45593999997E+02  0.45594000000E+02  0.51100000000E-03 0. -1.
    9900012    2    1    2    0    0  0.12096702650E+02 -0.42995996373E+02 -0.58418831563E+01  0.46142317434E+02  0.99999970128E+01 0.  0.
        -12    1    1    2    0    0 -0.12096702650E+02  0.42995996373E+02  0.58418831563E+01  0.45045682566E+02  0.00000000000E+00 0.  1.
         11    1    3    3    0    0  0.37314453015E+01 -0.10943437038E+02 -0.23392722357E+01  0.11796384747E+02  0.51100000000E-03 0. -1.
        -11    1    3    3    0    0  0.30501875775E+01 -0.23490387931E+01 -0.14033813146E+01  0.40976953138E+01  0.51100000000E-03 0.  1.
        -12    1    3    3    0    0  0.53150697708E+01 -0.29703520541E+02 -0.20992296059E+01  0.30248237372E+02  0.00000000000E+00 0.  1.
</event>
<event>
 7    1  0.1563903E-008  0.4614232E+02  0.7816164E-02  0.1320468E+00
        -11   -1    0    0    0    0  0.00000000000E+00  0.00000000000E+00  0.45593999997E+02  0.45594000000E+02  0.51100000000E-03 0. -1.
         11   -1    0    0    0    0 -0.00000000000E+00 -0.00000000000E+00 -0.45593999997E+02  0.45594000000E+02  0.51100000000E-03 0.  1.
    9900012    2    1    2    0    0  0.14140922159E+02 -0.40040845777E+02  0.15029249551E+02  0.46142319273E+02  0.10000013791E+02 0.  0.
        -12    1    1    2    0    0 -0.14140922159E+02  0.40040845777E+02 -0.15029249551E+02  0.45045680727E+02  0.00000000000E+00 0.  1.
         11    1    3    3    0    0  0.10946055753E+02 -0.28325861612E+02  0.93908500680E+01  0.31786139084E+02  0.51100000000E-03 0. -1.
        -11    1    3    3    0    0  0.41387204004E+01 -0.58999417768E+01  0.39952901123E+01  0.82401858514E+01  0.51100000000E-03 0.  1.
         12    1    3    3    0    0 -0.94385399423E+00 -0.58150423880E+01  0.16431093705E+01  0.61159943378E+01  0.00000000000E+00 0. -1.
</event>
<event>
 7    1  0.1563903E-008  0.4614232E+02  0.7816164E-02  0.1320468E+00
        -11   -1    0    0    0    0  0.00000000000E+00  0.00000000000E+00  0.45593999997E+02  0.45594000000E+02  0.51100000000E-03 0. -1.
         11   -1    0    0    0    0 -0.00000000000E+00 -0.00000000000E+00 -0.45593999997E+02  0.45594000000E+02  0.51100000000E-03 0.  1.
    9900012    2    1    2    0    0 -0.34888995577E+02  0.27878916691E+02  0.58853621636E+01  0.46142317676E+02  0.99999992256E+01 0.  0.
        -12    1    1    2    0    0  0.34888995577E+02 -0.27878916691E+02 -0.58853621636E+01  0.45045682324E+02  0.00000000000E+00 0.  1.
         11    1    3    3    0    0 -0.14080551799E+02  0.12236066996E+02  0.10765651302E+01  0.18685348999E+02  0.51100000000E-03 0. -1.
        -11    1    3    3    0    0  0.18622830933E+00  0.21548761798E+00  0.11056046527E+01  0.11416995252E+01  0.51100000000E-03 0.  1.
        -12    1    3    3    0    0 -0.20994672087E+02  0.15427362077E+02  0.37031923807E+01  0.26315269152E+02  0.00000000000E+00 0.  1.
</event>
<event>
 7    1  0.1563903E-008  0.4614232E+02  0.7816164E-02  0.1320468E+00
        -11   -1    0    0    0    0  0.00000000000E+00  0.00000000000E+00  0.45593999997E+02  0.45594000000E+02  0.51100000000E-03 0. -1.
         11   -1    0    0    0    0 -0.00000000000E+00 -0.00000000000E+00 -0.45593999997E+02  0.45594000000E+02  0.51100000000E-03 0.  1.
    9900012    2    1    2    0    0 -0.36632510837E+01 -0.41959027552E+02 -0.15972917017E+02  0.46142317858E+02  0.10000000881E+02 0.  0.
        -12    1    1    2    0    0  0.36632510837E+01  0.41959027552E+02  0.15972917017E+02  0.45045682142E+02  0.00000000000E+00 0.  1.
         11    1    3    3    0    0 -0.86281226939E+00 -0.18932166715E+02 -0.58903679415E+01  0.19846103303E+02  0.51100000000E-03 0. -1.
        -11    1    3    3    0    0  0.14200299138E+01 -0.11577519676E+02 -0.73648182298E+01  0.13794781427E+02  0.51100000000E-03 0.  1.
        -12    1    3    3    0    0 -0.42204687280E+01 -0.11449341161E+02 -0.27177308458E+01  0.12501433128E+02  0.00000000000E+00 0.  1.
</event>
<event>
 7    1  0.1563903E-008  0.4614232E+02  0.7816164E-02  0.1320468E+00
        -11   -1    0    0    0    0  0.00000000000E+00  0.00000000000E+00  0.45593999997E+02  0.45594000000E+02  0.51100000000E-03 0.  1.
         11   -1    0    0    0    0 -0.00000000000E+00 -0.00000000000E+00 -0.45593999997E+02  0.45594000000E+02  0.51100000000E-03 0. -1.
    9900012    2    1    2    0    0  0.17753162341E+02  0.14294216273E+02 -0.38853753154E+02  0.46142317342E+02  0.99999961790E+01 0.  0.
        -12    1    1    2    0    0 -0.17753162341E+02 -0.14294216273E+02  0.38853753154E+02  0.45045682658E+02  0.00000000000E+00 0.  1.
         11    1    3    3    0    0  0.95134777145E+01  0.40385768405E+01 -0.13973224779E+02  0.17380085504E+02  0.51100000000E-03 0.  1.
        -11    1    3    3    0    0  0.21017372562E+01  0.71560373128E+01 -0.14589512913E+02  0.16385361052E+02  0.51100000000E-03 0. -1.
         12    1    3    3    0    0  0.61379473707E+01  0.30996021200E+01 -0.10291015462E+02  0.12376870786E+02  0.00000000000E+00 0. -1.
</event>
<event>
 7    1  0.1563903E-008  0.4614232E+02  0.7816164E-02  0.1320468E+00
        -11   -1    0    0    0    0  0.00000000000E+00  0.00000000000E+00  0.45593999997E+02  0.45594000000E+02  0.51100000000E-03 0. -1.
         11   -1    0    0    0    0 -0.00000000000E+00 -0.00000000000E+00 -0.45593999997E+02  0.45594000000E+02  0.51100000000E-03 0.  1.
    9900012    2    1    2    0    0 -0.77245031068E+01 -0.30916950966E+01  0.44270610727E+02  0.46142317621E+02  0.99999987263E+01 0.  0.
        -12    1    1    2    0    0  0.77245031068E+01  0.30916950966E+01 -0.44270610727E+02  0.45045682379E+02  0.00000000000E+00 0.  1.
         11    1    3    3    0    0  0.11702480457E+01  0.17136876650E+01  0.12246485895E+02  0.12421055629E+02  0.51100000000E-03 0. -1.
        -11    1    3    3    0    0 -0.58603240570E+01 -0.34585705251E+01  0.16537416502E+02  0.17882708211E+02  0.51100000000E-03 0.  1.
         12    1    3    3    0    0 -0.30344270956E+01 -0.13468122365E+01  0.15486708330E+02  0.15838553781E+02  0.00000000000E+00 0. -1.
</event>
<event>
 7    1  0.1563903E-008  0.4614232E+02  0.7816164E-02  0.1320468E+00
        -11   -1    0    0    0    0  0.00000000000E+00  0.00000000000E+00  0.45593999997E+02  0.45594000000E+02  0.51100000000E-03 0. -1.
         11   -1    0    0    0    0 -0.00000000000E+00 -0.00000000000E+00 -0.45593999997E+02  0.45594000000E+02  0.51100000000E-03 0.  1.
    9900012    2    1    2    0    0  0.42241668532E+01  0.44732223389E+02 -0.32090719376E+01  0.46142317214E+02  0.99999950123E+01 0.  0.
        -12    1    1    2    0    0 -0.42241668532E+01 -0.44732223389E+02  0.32090719376E+01  0.45045682786E+02  0.00000000000E+00 0.  1.
         11    1    3    3    0    0 -0.26608664585E+01  0.20497796674E+02  0.48741373984E+00  0.20675527834E+02  0.51100000000E-03 0. -1.
        -11    1    3    3    0    0  0.62191656206E+01  0.21795894265E+02 -0.31982006083E+01  0.22890336721E+02  0.51100000000E-03 0.  1.
         12    1    3    3    0    0  0.66586769115E+00  0.24385324507E+01 -0.49828506916E+00  0.25764526592E+01  0.00000000000E+00 0. -1.
</event>
<event>
 7    1  0.1563903E-008  0.4614232E+02  0.7816164E-02  0.1320468E+00
        -11   -1    0    0    0    0  0.00000000000E+00  0.00000000000E+00  0.45593999997E+02  0.45594000000E+02  0.51100000000E-03 0.  1.
         11   -1    0    0    0    0 -0.00000000000E+00 -0.00000000000E+00 -0.45593999997E+02  0.45594000000E+02  0.51100000000E-03 0. -1.
    9900012    2    1    2    0    0 -0.19752259728E+02  0.33429077345E+02 -0.22835458541E+02  0.46142321591E+02  0.10000034925E+02 0.  0.
        -12    1    1    2    0    0  0.19752259728E+02 -0.33429077345E+02  0.22835458541E+02  0.45045678409E+02  0.00000000000E+00 0.  1.
         11    1    3    3    0    0 -0.96251018389E+01  0.16655335988E+02 -0.13339769104E+02  0.23409234124E+02  0.51100000000E-03 0. -1.
        -11    1    3    3    0    0 -0.50055780702E+01  0.12945376156E+02 -0.44107792369E+01  0.14563431923E+02  0.51100000000E-03 0.  1.
        -12    1    3    3    0    0 -0.51215798192E+01  0.38283652015E+01 -0.50849102004E+01  0.81696555439E+01  0.00000000000E+00 0.  1.
</event>
<event>
 7    1  0.1563903E-008  0.4614232E+02  0.7816164E-02  0.1320468E+00
        -11   -1    0    0    0    0  0.00000000000E+00  0.00000000000E+00  0.45593999997E+02  0.45594000000E+02  0.51100000000E-03 0.  1.
         11   -1    0    0    0    0 -0.00000000000E+00 -0.00000000000E+00 -0.45593999997E+02  0.45594000000E+02  0.51100000000E-03 0. -1.
    9900012    2    1    2    0    0 -0.22934497380E+02 -0.29152043988E+02 -0.25559344261E+02  0.46142324094E+02  0.10000057748E+02 0.  0.
        -12    1    1    2    0    0  0.22934497380E+02  0.29152043988E+02  0.25559344261E+02  0.45045675906E+02  0.00000000000E+00 0.  1.
         11    1    3    3    0    0 -0.90138972483E+01 -0.87647729072E+01 -0.10600471521E+02  0.16445108222E+02  0.51100000000E-03 0. -1.
        -11    1    3    3    0    0 -0.97227971723E+00 -0.40653077285E+01 -0.52529348286E+01  0.67130752528E+01  0.51100000000E-03 0.  1.
         12    1    3    3    0    0 -0.12948320415E+02 -0.16321963353E+02 -0.97059379115E+01  0.22984140619E+02  0.00000000000E+00 0. -1.
</event>
<event>
 7    1  0.1563903E-008  0.4614232E+02  0.7816164E-02  0.1320468E+00
        -11   -1    0    0    0    0  0.00000000000E+00  0.00000000000E+00  0.45593999997E+02  0.45594000000E+02  0.51100000000E-03 0. -1.
         11   -1    0    0    0    0 -0.00000000000E+00 -0.00000000000E+00 -0.45593999997E+02  0.45594000000E+02  0.51100000000E-03 0.  1.
    9900012    2    1    2    0    0  0.21382308022E+02 -0.17360822322E+02  0.35644246449E+02  0.46142317044E+02  0.99999934622E+01 0.  0.
        -12    1    1    2    0    0 -0.21382308022E+02  0.17360822322E+02 -0.35644246449E+02  0.45045682956E+02  0.00000000000E+00 0.  1.
         11    1    3    3    0    0  0.14893693381E+02 -0.13481934305E+02  0.23839606172E+02  0.31175494829E+02  0.51100000000E-03 0. -1.
        -11    1    3    3    0    0  0.14919265989E+01  0.43806300737E+00  0.59237862772E+01  0.61244582041E+01  0.51100000000E-03 0.  1.
        -12    1    3    3    0    0  0.49966880425E+01 -0.43169510249E+01  0.58808539998E+01  0.88423640115E+01  0.00000000000E+00 0.  1.
</event>
<event>
 7    1  0.1563903E-008  0.4614232E+02  0.7816164E-02  0.1320468E+00
        -11   -1    0    0    0    0  0.00000000000E+00  0.00000000000E+00  0.45593999997E+02  0.45594000000E+02  0.51100000000E-03 0. -1.
         11   -1    0    0    0    0 -0.00000000000E+00 -0.00000000000E+00 -0.45593999997E+02  0.45594000000E+02  0.51100000000E-03 0.  1.
    9900012    2    1    2    0    0  0.23612515514E+02  0.37583334552E+02 -0.76847557550E+01  0.46142318787E+02  0.10000009351E+02 0.  0.
        -12    1    1    2    0    0 -0.23612515514E+02 -0.37583334552E+02  0.76847557550E+01  0.45045681213E+02  0.00000000000E+00 0.  1.
         11    1    3    3    0    0  0.58465921583E-01  0.24148179330E+00  0.64442715402E+00  0.69066514205E+00  0.51100000000E-03 0. -1.
        -11    1    3    3    0    0  0.15144716238E+01  0.30537653947E+00  0.53707639604E-01  0.15458861219E+01  0.51100000000E-03 0.  1.
         12    1    3    3    0    0  0.22039577968E+02  0.37036476220E+02 -0.83828905486E+01  0.43905767523E+02  0.00000000000E+00 0. -1.
</event>
<event>
 7    1  0.1563903E-008  0.4614232E+02  0.7816164E-02  0.1320468E+00
        -11   -1    0    0    0    0  0.00000000000E+00  0.00000000000E+00  0.45593999997E+02  0.45594000000E+02  0.51100000000E-03 0.  1.
         11   -1    0    0    0    0 -0.00000000000E+00 -0.00000000000E+00 -0.45593999997E+02  0.45594000000E+02  0.51100000000E-03 0. -1.
    9900012    2    1    2    0    0 -0.23220459971E+02  0.23824978734E+02 -0.30369296606E+02  0.46142317085E+02  0.99999938329E+01 0.  0.
        -12    1    1    2    0    0  0.23220459971E+02 -0.23824978734E+02  0.30369296606E+02  0.45045682915E+02  0.00000000000E+00 0.  1.
         11    1    3    3    0    0 -0.77119071318E+01  0.26233755365E+01 -0.92107786015E+01  0.12296099118E+02  0.51100000000E-03 0. -1.
        -11    1    3    3    0    0 -0.15611047431E+02  0.21150170146E+02 -0.21132619856E+02  0.33728654307E+02  0.51100000000E-03 0.  1.
        -12    1    3    3    0    0  0.10249459142E+00  0.51433051787E-01 -0.25898148262E-01  0.11756366007E+00  0.00000000000E+00 0.  1.
</event>
<event>
 7    1  0.1563903E-008  0.4614232E+02  0.7816164E-02  0.1320468E+00
        -11   -1    0    0    0    0  0.00000000000E+00  0.00000000000E+00  0.45593999997E+02  0.45594000000E+02  0.51100000000E-03 0.  1.
         11   -1    0    0    0    0 -0.00000000000E+00 -0.00000000000E+00 -0.45593999997E+02  0.45594000000E+02  0.51100000000E-03 0. -1.
    9900012    2    1    2    0    0 -0.18335192236E+02 -0.33019411549E+02 -0.24548982199E+02  0.46142319404E+02  0.10000014977E+02 0.  0.
        -12    1    1    2    0    0  0.18335192236E+02  0.33019411549E+02  0.24548982199E+02  0.45045680596E+02  0.00000000000E+00 0.  1.
         11    1    3    3    0    0 -0.42022089373E+01 -0.58157846463E+01 -0.25910994272E+01  0.76286111126E+01  0.51100000000E-03 0. -1.
        -11    1    3    3    0    0 -0.24039100454E+01 -0.82280215694E+01 -0.10109494919E+02  0.13254471329E+02  0.51100000000E-03 0.  1.
        -12    1    3    3    0    0 -0.11729073253E+02 -0.18975605333E+02 -0.11848387854E+02  0.25259236962E+02  0.00000000000E+00 0.  1.
</event>
<event>
 7    1  0.1563903E-008  0.4614232E+02  0.7816164E-02  0.1320468E+00
        -11   -1    0    0    0    0  0.00000000000E+00  0.00000000000E+00  0.45593999997E+02  0.45594000000E+02  0.51100000000E-03 0.  1.
         11   -1    0    0    0    0 -0.00000000000E+00 -0.00000000000E+00 -0.45593999997E+02  0.45594000000E+02  0.51100000000E-03 0. -1.
    9900012    2    1    2    0    0  0.19886862002E+02 -0.15530293012E+02 -0.37315361129E+02  0.46142318103E+02  0.10000003122E+02 0.  0.
        -12    1    1    2    0    0 -0.19886862002E+02  0.15530293012E+02  0.37315361129E+02  0.45045681897E+02  0.00000000000E+00 0.  1.
         11    1    3    3    0    0  0.90153630813E+01 -0.58432910687E+01 -0.19626495593E+02  0.22374542488E+02  0.51100000000E-03 0. -1.
        -11    1    3    3    0    0  0.60538579291E+01 -0.12857358013E+01 -0.67429733646E+01  0.91525953933E+01  0.51100000000E-03 0.  1.
         12    1    3    3    0    0  0.48176409917E+01 -0.84012661417E+01 -0.10945892171E+02  0.14615180222E+02  0.00000000000E+00 0. -1.
</event>
<event>
 7    1  0.1870471E-008  0.4614232E+02  0.7816164E-02  0.1320468E+00
        -11   -1    0    0    0    0  0.00000000000E+00  0.00000000000E+00  0.45593999997E+02  0.45594000000E+02  0.51100000000E-03 0. -1.
         11   -1    0    0    0    0 -0.00000000000E+00 -0.00000000000E+00 -0.45593999997E+02  0.45594000000E+02  0.51100000000E-03 0.  1.
    9900012    2    1    2    0    0 -0.28141224271E+02  0.35173587612E+02  0.59437893760E-01  0.46142319832E+02  0.10000018881E+02 0.  0.
        -12    1    1    2    0    0  0.28141224271E+02 -0.35173587612E+02 -0.59437893760E-01  0.45045680168E+02  0.00000000000E+00 0.  1.
         11    1    3    3    0    0 -0.22347074722E+02  0.26083401523E+02  0.42419993861E+00  0.34349898537E+02  0.51100000000E-03 0. -1.
        -11    1    3    3    0    0 -0.28873646402E+01  0.81350229334E+01 -0.92571621771E+00  0.86817292902E+01  0.51100000000E-03 0.  1.
         12    1    3    3    0    0 -0.29067849097E+01  0.95516315504E+00  0.56095417286E+00  0.31106920047E+01  0.00000000000E+00 0. -1.
</event>
<event>
 7    1  0.1563903E-008  0.4614231E+02  0.7816164E-02  0.1320468E+00
        -11   -1    0    0    0    0  0.00000000000E+00  0.00000000000E+00  0.45593999997E+02  0.45594000000E+02  0.51100000000E-03 0. -1.
         11   -1    0    0    0    0 -0.00000000000E+00 -0.00000000000E+00 -0.45593999997E+02  0.45594000000E+02  0.51100000000E-03 0.  1.
    9900012    2    1    2    0    0 -0.93257150349E+01  0.41723892105E+02  0.14186679092E+02  0.46142312115E+02  0.99999485176E+01 0.  0.
        -12    1    1    2    0    0  0.93257150349E+01 -0.41723892105E+02 -0.14186679092E+02  0.45045687885E+02  0.00000000000E+00 0.  1.
         11    1    3    3    0    0 -0.24566952140E+01  0.11738052520E+02  0.80954514840E+01  0.14469055371E+02  0.51100000000E-03 0. -1.
        -11    1    3    3    0    0 -0.64519669708E+01  0.20747072811E+02  0.30633993257E+01  0.21942044656E+02  0.51100000000E-03 0.  1.
        -12    1    3    3    0    0 -0.41705285015E+00  0.92387667748E+01  0.30278282826E+01  0.97312120884E+01  0.00000000000E+00 0.  1.
</event>
<event>
 7    1  0.1563903E-008  0.4614232E+02  0.7816164E-02  0.1320468E+00
        -11   -1    0    0    0    0  0.00000000000E+00  0.00000000000E+00  0.45593999997E+02  0.45594000000E+02  0.51100000000E-03 0.  1.
         11   -1    0    0    0    0 -0.00000000000E+00 -0.00000000000E+00 -0.45593999997E+02  0.45594000000E+02  0.51100000000E-03 0. -1.
    9900012    2    1    2    0    0  0.36303886557E+02 -0.67900766764E+01 -0.25788296303E+02  0.46142317114E+02  0.99999941028E+01 0.  0.
        -12    1    1    2    0    0 -0.36303886557E+02  0.67900766764E+01  0.25788296303E+02  0.45045682886E+02  0.00000000000E+00 0.  1.
         11    1    3    3    0    0  0.14593035794E+02 -0.49185206885E+00 -0.11114126834E+02  0.18349998029E+02  0.51100000000E-03 0. -1.
        -11    1    3    3    0    0  0.18967359903E+02 -0.56450971594E+01 -0.96184791184E+01  0.22003249861E+02  0.51100000000E-03 0.  1.
        -12    1    3    3    0    0  0.27434908607E+01 -0.65312744817E+00 -0.50556903499E+01  0.57890692240E+01  0.00000000000E+00 0.  1.
</event>
<event>
 7    1  0.1563903E-008  0.4614232E+02  0.7816164E-02  0.1320468E+00
        -11   -1    0    0    0    0  0.00000000000E+00  0.00000000000E+00  0.45593999997E+02  0.45594000000E+02  0.51100000000E-03 0. -1.
         11   -1    0    0    0    0 -0.00000000000E+00 -0.00000000000E+00 -0.45593999997E+02  0.45594000000E+02  0.51100000000E-03 0.  1.
    9900012    2    1    2    0    0  0.30787719230E+02 -0.24235995124E+02  0.22222652774E+02  0.46142318616E+02  0.10000007794E+02 0.  0.
        -12    1    1    2    0    0 -0.30787719230E+02  0.24235995124E+02 -0.22222652774E+02  0.45045681384E+02  0.00000000000E+00 0.  1.
         11    1    3    3    0    0  0.20016624161E+02 -0.14419217501E+02  0.97143497164E+01  0.26513160257E+02  0.51100000000E-03 0. -1.
        -11    1    3    3    0    0  0.88881549622E+00 -0.26297869027E+01  0.33963699877E+01  0.43864679977E+01  0.51100000000E-03 0.  1.
         12    1    3    3    0    0  0.98822795730E+01 -0.71869907202E+01  0.91119330697E+01  0.15242690361E+02  0.00000000000E+00 0. -1.
</event>
<event>
 7    1  0.1563903E-008  0.4614232E+02  0.7816164E-02  0.1320468E+00
        -11   -1    0    0    0    0  0.00000000000E+00  0.00000000000E+00  0.45593999997E+02  0.45594000000E+02  0.51100000000E-03 0.  1.
         11   -1    0    0    0    0 -0.00000000000E+00 -0.00000000000E+00 -0.45593999997E+02  0.45594000000E+02  0.51100000000E-03 0. -1.
    9900012    2    1    2    0    0 -0.24029953057E+02  0.33570965579E+02 -0.18018465019E+02  0.46142318126E+02  0.10000003328E+02 0.  0.
        -12    1    1    2    0    0  0.24029953057E+02 -0.33570965579E+02  0.18018465019E+02  0.45045681874E+02  0.00000000000E+00 0.  1.
         11    1    3    3    0    0 -0.65251843977E+01  0.99067376520E+01 -0.28207293751E+01  0.12193358717E+02  0.51100000000E-03 0. -1.
        -11    1    3    3    0    0 -0.17719291209E+02  0.20140081844E+02 -0.13528736628E+02  0.30043683074E+02  0.51100000000E-03 0.  1.
        -12    1    3    3    0    0  0.21452254969E+00  0.35241460833E+01 -0.16689990160E+01  0.39052763354E+01  0.00000000000E+00 0.  1.
</event>
<event>
 7    1  0.1563903E-008  0.4614232E+02  0.7816164E-02  0.1320468E+00
        -11   -1    0    0    0    0  0.00000000000E+00  0.00000000000E+00  0.45593999997E+02  0.45594000000E+02  0.51100000000E-03 0. -1.
         11   -1    0    0    0    0 -0.00000000000E+00 -0.00000000000E+00 -0.45593999997E+02  0.45594000000E+02  0.51100000000E-03 0.  1.
    9900012    2    1    2    0    0 -0.17230781286E+02  0.38943519726E+02  0.14683868740E+02  0.46142317038E+02  0.99999934061E+01 0.  0.
        -12    1    1    2    0    0  0.17230781286E+02 -0.38943519726E+02 -0.14683868740E+02  0.45045682962E+02  0.00000000000E+00 0.  1.
         11    1    3    3    0    0 -0.13716430394E+02  0.34686206213E+02  0.13279603279E+02  0.39593196735E+02  0.51100000000E-03 0. -1.
        -11    1    3    3    0    0 -0.80133628355E+00 -0.37181211079E+00 -0.27785824018E+00  0.92606130889E+00  0.51100000000E-03 0.  1.
        -12    1    3    3    0    0 -0.27130146087E+01  0.46291256231E+01  0.16821237010E+01  0.56230589938E+01  0.00000000000E+00 0.  1.
</event>
<event>
 7    1  0.1563903E-008  0.4614232E+02  0.7816164E-02  0.1320468E+00
        -11   -1    0    0    0    0  0.00000000000E+00  0.00000000000E+00  0.45593999997E+02  0.45594000000E+02  0.51100000000E-03 0.  1.
         11   -1    0    0    0    0 -0.00000000000E+00 -0.00000000000E+00 -0.45593999997E+02  0.45594000000E+02  0.51100000000E-03 0. -1.
    9900012    2    1    2    0    0 -0.25484009134E+02  0.68024783970E+00 -0.37137799451E+02  0.46142316447E+02  0.99999880214E+01 0.  0.
        -12    1    1    2    0    0  0.25484009134E+02 -0.68024783970E+00  0.37137799451E+02  0.45045683553E+02  0.00000000000E+00 0.  1.
         11    1    3    3    0    0 -0.52687601549E+01  0.82583379956E+00 -0.10194258937E+02  0.11504988073E+02  0.51100000000E-03 0. -1.
        -11    1    3    3    0    0 -0.12516023222E+02 -0.10792943831E+01 -0.10189768111E+02  0.16175508897E+02  0.51100000000E-03 0.  1.
        -12    1    3    3    0    0 -0.76992257571E+01  0.93370842322E+00 -0.16753772402E+02  0.18461819477E+02  0.00000000000E+00 0.  1.
</event>
<event>
 7    1  0.1563903E-008  0.4614232E+02  0.7816164E-02  0.1320468E+00
        -11   -1    0    0    0    0  0.00000000000E+00  0.00000000000E+00  0.45593999997E+02  0.45594000000E+02  0.51100000000E-03 0.  1.
         11   -1    0    0    0    0 -0.00000000000E+00 -0.00000000000E+00 -0.45593999997E+02  0.45594000000E+02  0.51100000000E-03 0. -1.
    9900012    2    1    2    0    0  0.41022251357E+02  0.17647309255E+02 -0.59043015591E+01  0.46142318661E+02  0.10000008208E+02 0.  0.
        -12    1    1    2    0    0 -0.41022251357E+02 -0.17647309255E+02  0.59043015591E+01  0.45045681339E+02  0.00000000000E+00 0.  1.
         11    1    3    3    0    0  0.17818608822E+02  0.44900713369E+01 -0.29315793543E+01  0.18608001471E+02  0.51100000000E-03 0.  1.
        -11    1    3    3    0    0  0.13421551644E+02  0.10765364258E+02 -0.29934992435E+01  0.17464024568E+02  0.51100000000E-03 0. -1.
         12    1    3    3    0    0  0.97820908912E+01  0.23918736605E+01  0.20777038785E-01  0.10070292622E+02  0.00000000000E+00 0. -1.
</event>
<event>
 7    1  0.1563903E-008  0.4614232E+02  0.7816164E-02  0.1320468E+00
        -11   -1    0    0    0    0  0.00000000000E+00  0.00000000000E+00  0.45593999997E+02  0.45594000000E+02  0.51100000000E-03 0.  1.
         11   -1    0    0    0    0 -0.00000000000E+00 -0.00000000000E+00 -0.45593999997E+02  0.45594000000E+02  0.51100000000E-03 0. -1.
    9900012    2    1    2    0    0  0.87152064243E+01  0.44194399434E+02  0.11702610891E+00  0.46142318082E+02  0.10000002923E+02 0.  0.
        -12    1    1    2    0    0 -0.87152064243E+01 -0.44194399434E+02 -0.11702610891E+00  0.45045681918E+02  0.00000000000E+00 0.  1.
         11    1    3    3    0    0  0.52733640541E+01  0.25893939681E+02  0.38969465923E+01  0.26711246202E+02  0.51100000000E-03 0. -1.
        -11    1    3    3    0    0  0.60476728459E+00  0.55536907252E+01  0.68907954897E+00  0.56288591229E+01  0.51100000000E-03 0.  1.
         12    1    3    3    0    0  0.28370750855E+01  0.12746769028E+02 -0.44690000323E+01  0.13802212757E+02  0.00000000000E+00 0. -1.
</event>
<event>
 7    1  0.1563903E-008  0.4614232E+02  0.7816164E-02  0.1320468E+00
        -11   -1    0    0    0    0  0.00000000000E+00  0.00000000000E+00  0.45593999997E+02  0.45594000000E+02  0.51100000000E-03 0.  1.
         11   -1    0    0    0    0 -0.00000000000E+00 -0.00000000000E+00 -0.45593999997E+02  0.45594000000E+02  0.51100000000E-03 0. -1.
    9900012    2    1    2    0    0 -0.34994236038E+02 -0.20844415126E+02 -0.19236093130E+02  0.46142317890E+02  0.10000001176E+02 0.  0.
        -12    1    1    2    0    0  0.34994236038E+02  0.20844415126E+02  0.19236093130E+02  0.45045682110E+02  0.00000000000E+00 0.  1.
         11    1    3    3    0    0 -0.42839640606E+01 -0.29475032354E+01 -0.28782303879E+01  0.59434277839E+01  0.51100000000E-03 0. -1.
        -11    1    3    3    0    0 -0.25030282019E+02 -0.10380635070E+02 -0.13938172068E+02  0.30472040353E+02  0.51100000000E-03 0.  1.
        -12    1    3    3    0    0 -0.56799899593E+01 -0.75162768199E+01 -0.24196906735E+01  0.97268497535E+01  0.00000000000E+00 0.  1.
</event>
<event>
 7    1  0.1563903E-008  0.4614232E+02  0.7816164E-02  0.1320468E+00
        -11   -1    0    0    0    0  0.00000000000E+00  0.00000000000E+00  0.45593999997E+02  0.45594000000E+02  0.51100000000E-03 0. -1.
         11   -1    0    0    0    0 -0.00000000000E+00 -0.00000000000E+00 -0.45593999997E+02  0.45594000000E+02  0.51100000000E-03 0.  1.
    9900012    2    1    2    0    0  0.69377625499E+01  0.35711649510E+02  0.26564245280E+02  0.46142316664E+02  0.99999899958E+01 0.  0.
        -12    1    1    2    0    0 -0.69377625499E+01 -0.35711649510E+02 -0.26564245280E+02  0.45045683336E+02  0.00000000000E+00 0.  1.
         11    1    3    3    0    0 -0.58982555273E+00  0.16926015230E+02  0.11498962640E+02  0.20471053413E+02  0.51100000000E-03 0. -1.
        -11    1    3    3    0    0  0.47286035626E+01  0.11668163172E+02  0.12119971185E+02  0.17475680966E+02  0.51100000000E-03 0.  1.
         12    1    3    3    0    0  0.27989845400E+01  0.71174711077E+01  0.29453114550E+01  0.81955822850E+01  0.00000000000E+00 0. -1.
</event>
<event>
 7    1  0.1563903E-008  0.4614232E+02  0.7816164E-02  0.1320468E+00
        -11   -1    0    0    0    0  0.00000000000E+00  0.00000000000E+00  0.45593999997E+02  0.45594000000E+02  0.51100000000E-03 0.  1.
         11   -1    0    0    0    0 -0.00000000000E+00 -0.00000000000E+00 -0.45593999997E+02  0.45594000000E+02  0.51100000000E-03 0. -1.
    9900012    2    1    2    0    0 -0.16557650285E+02  0.41646964958E+02 -0.45263753622E+01  0.46142317110E+02  0.99999940595E+01 0.  0.
        -12    1    1    2    0    0  0.16557650285E+02 -0.41646964958E+02  0.45263753622E+01  0.45045682890E+02  0.00000000000E+00 0.  1.
         11    1    3    3    0    0 -0.90657399299E+01  0.27656710870E+02 -0.44992518181E+01  0.29450374596E+02  0.51100000000E-03 0. -1.
        -11    1    3    3    0    0 -0.19886322739E+01  0.13859141509E+01  0.15055340097E+01  0.28534276353E+01  0.51100000000E-03 0.  1.
         12    1    3    3    0    0 -0.55032780812E+01  0.12604339936E+02 -0.15326575539E+01  0.13838514879E+02  0.00000000000E+00 0. -1.
</event>
<event>
 7    1  0.1563903E-008  0.4614232E+02  0.7816164E-02  0.1320468E+00
        -11   -1    0    0    0    0  0.00000000000E+00  0.00000000000E+00  0.45593999997E+02  0.45594000000E+02  0.51100000000E-03 0. -1.
         11   -1    0    0    0    0 -0.00000000000E+00 -0.00000000000E+00 -0.45593999997E+02  0.45594000000E+02  0.51100000000E-03 0.  1.
    9900012    2    1    2    0    0 -0.23332486160E+02  0.22823245216E+02 -0.31045258655E+02  0.46142317437E+02  0.99999970422E+01 0.  0.
        -12    1    1    2    0    0  0.23332486160E+02 -0.22823245216E+02  0.31045258655E+02  0.45045682563E+02  0.00000000000E+00 0.  1.
         11    1    3    3    0    0 -0.12803936729E+02  0.14779168582E+02 -0.20586662573E+02  0.28393226232E+02  0.51100000000E-03 0. -1.
        -11    1    3    3    0    0 -0.49726129987E+00  0.29535541386E+01 -0.14000529778E+01  0.33061910791E+01  0.51100000000E-03 0.  1.
         12    1    3    3    0    0 -0.10031288131E+02  0.50905224964E+01 -0.90585431046E+01  0.14442900126E+02  0.00000000000E+00 0. -1.
</event>
<event>
 7    1  0.1563903E-008  0.4614232E+02  0.7816164E-02  0.1320468E+00
        -11   -1    0    0    0    0  0.00000000000E+00  0.00000000000E+00  0.45593999997E+02  0.45594000000E+02  0.51100000000E-03 0.  1.
         11   -1    0    0    0    0 -0.00000000000E+00 -0.00000000000E+00 -0.45593999997E+02  0.45594000000E+02  0.51100000000E-03 0. -1.
    9900012    2    1    2    0    0  0.30648920739E+02 -0.29461514648E+02  0.14892152223E+02  0.46142318902E+02  0.10000010400E+02 0.  0.
        -12    1    1    2    0    0 -0.30648920739E+02  0.29461514648E+02 -0.14892152223E+02  0.45045681098E+02  0.00000000000E+00 0.  1.
         11    1    3    3    0    0  0.24865280700E+01 -0.40545885804E+01  0.35936651584E+01  0.59612867680E+01  0.51100000000E-03 0. -1.
        -11    1    3    3    0    0  0.21475336937E+02 -0.21168080005E+02  0.62622207176E+01  0.30797615431E+02  0.51100000000E-03 0.  1.
        -12    1    3    3    0    0  0.66870557311E+01 -0.42388460627E+01  0.50362663466E+01  0.93834167022E+01  0.00000000000E+00 0.  1.
</event>
<event>
 7    1  0.1563903E-008  0.4614232E+02  0.7816164E-02  0.1320468E+00
        -11   -1    0    0    0    0  0.00000000000E+00  0.00000000000E+00  0.45593999997E+02  0.45594000000E+02  0.51100000000E-03 0.  1.
         11   -1    0    0    0    0 -0.00000000000E+00 -0.00000000000E+00 -0.45593999997E+02  0.45594000000E+02  0.51100000000E-03 0. -1.
    9900012    2    1    2    0    0 -0.25351839797E+01 -0.44421737800E+02 -0.70281945088E+01  0.46142318020E+02  0.10000002364E+02 0.  0.
        -12    1    1    2    0    0  0.25351839797E+01  0.44421737800E+02  0.70281945088E+01  0.45045681980E+02  0.00000000000E+00 0.  1.
         11    1    3    3    0    0 -0.23775537281E+01 -0.30137495517E+02 -0.25212338618E+01  0.30336084425E+02  0.51100000000E-03 0. -1.
        -11    1    3    3    0    0 -0.58154462992E+00 -0.20336788796E+01 -0.26780918759E+01  0.34126559010E+01  0.51100000000E-03 0.  1.
         12    1    3    3    0    0  0.42391437827E+00 -0.12250563403E+02 -0.18288687712E+01  0.12393577695E+02  0.00000000000E+00 0. -1.
</event>
<event>
 7    1  0.1563903E-008  0.4614232E+02  0.7816164E-02  0.1320468E+00
        -11   -1    0    0    0    0  0.00000000000E+00  0.00000000000E+00  0.45593999997E+02  0.45594000000E+02  0.51100000000E-03 0. -1.
         11   -1    0    0    0    0 -0.00000000000E+00 -0.00000000000E+00 -0.45593999997E+02  0.45594000000E+02  0.51100000000E-03 0.  1.
    9900012    2    1    2    0    0  0.44674557302E+02 -0.52014528500E+01  0.24984581745E+01  0.46142317908E+02  0.10000001340E+02 0.  0.
        -12    1    1    2    0    0 -0.44674557302E+02  0.52014528500E+01 -0.24984581745E+01  0.45045682092E+02  0.00000000000E+00 0.  1.
         11    1    3    3    0    0  0.26850114761E+02  0.63813265743E+00  0.40747131694E+01  0.27165035683E+02  0.51100000000E-03 0. -1.
        -11    1    3    3    0    0  0.17713840199E+02 -0.58481692497E+01 -0.13233726057E+01  0.18701137225E+02  0.51100000000E-03 0.  1.
         12    1    3    3    0    0  0.11060234149E+00  0.85837422498E-02 -0.25288238921E+00  0.27614500058E+00  0.00000000000E+00 0. -1.
</event>
<event>
 7    1  0.1563903E-008  0.4614231E+02  0.7816164E-02  0.1320468E+00
        -11   -1    0    0    0    0  0.00000000000E+00  0.00000000000E+00  0.45593999997E+02  0.45594000000E+02  0.51100000000E-03 0.  1.
         11   -1    0    0    0    0 -0.00000000000E+00 -0.00000000000E+00 -0.45593999997E+02  0.45594000000E+02  0.51100000000E-03 0. -1.
    9900012    2    1    2    0    0  0.59946341490E+01 -0.31533770101E+01 -0.44533519767E+02  0.46142314214E+02  0.99999676524E+01 0.  0.
        -12    1    1    2    0    0 -0.59946341490E+01  0.31533770101E+01  0.44533519767E+02  0.45045685786E+02  0.00000000000E+00 0.  1.
         11    1    3    3    0    0 -0.13663216950E+00  0.10249259919E+01 -0.21171855200E+02  0.21197089293E+02  0.51100000000E-03 0. -1.
        -11    1    3    3    0    0  0.24717127632E+01 -0.41290830461E+01 -0.10101189220E+02  0.11188955032E+02  0.51100000000E-03 0.  1.
        -12    1    3    3    0    0  0.36595535553E+01 -0.49219955838E-01 -0.13260475347E+02  0.13756269889E+02  0.00000000000E+00 0.  1.
</event>
<event>
 7    1  0.1563903E-008  0.4614232E+02  0.7816164E-02  0.1320468E+00
        -11   -1    0    0    0    0  0.00000000000E+00  0.00000000000E+00  0.45593999997E+02  0.45594000000E+02  0.51100000000E-03 0.  1.
         11   -1    0    0    0    0 -0.00000000000E+00 -0.00000000000E+00 -0.45593999997E+02  0.45594000000E+02  0.51100000000E-03 0. -1.
    9900012    2    1    2    0    0  0.21709051617E+02 -0.12193751001E+02 -0.37538553623E+02  0.46142317703E+02  0.99999994678E+01 0.  0.
        -12    1    1    2    0    0 -0.21709051617E+02  0.12193751001E+02  0.37538553623E+02  0.45045682297E+02  0.00000000000E+00 0.  1.
         11    1    3    3    0    0  0.13596406350E+02 -0.57599317467E+01 -0.29341252650E+02  0.32847346722E+02  0.51100000000E-03 0. -1.
        -11    1    3    3    0    0  0.72294703706E+01 -0.60316347164E+01 -0.68905307218E+01  0.11667273592E+02  0.51100000000E-03 0.  1.
         12    1    3    3    0    0  0.88317489598E+00 -0.40218453758E+00 -0.13067702511E+01  0.16276973884E+01  0.00000000000E+00 0. -1.
</event>
<event>
 7    1  0.1563903E-008  0.4614231E+02  0.7816164E-02  0.1320468E+00
        -11   -1    0    0    0    0  0.00000000000E+00  0.00000000000E+00  0.45593999997E+02  0.45594000000E+02  0.51100000000E-03 0.  1.
         11   -1    0    0    0    0 -0.00000000000E+00 -0.00000000000E+00 -0.45593999997E+02  0.45594000000E+02  0.51100000000E-03 0. -1.
    9900012    2    1    2    0    0 -0.62279325875E+00 -0.24147754671E+02 -0.38021208089E+02  0.46142309954E+02  0.99999288115E+01 0.  0.
        -12    1    1    2    0    0  0.62279325875E+00  0.24147754671E+02  0.38021208089E+02  0.45045690046E+02  0.00000000000E+00 0.  1.
         11    1    3    3    0    0  0.13845020072E+01 -0.42867041425E+01 -0.11423672830E+02  0.12279779289E+02  0.51100000000E-03 0. -1.
        -11    1    3    3    0    0 -0.85588741108E+00 -0.19767444018E+02 -0.24799539215E+02  0.31725408300E+02  0.51100000000E-03 0.  1.
        -12    1    3    3    0    0 -0.11514078549E+01 -0.93606511129E-01 -0.17979960446E+01  0.21371223651E+01  0.00000000000E+00 0.  1.
</event>
<event>
 7    1  0.1563903E-008  0.4614232E+02  0.7816164E-02  0.1320468E+00
        -11   -1    0    0    0    0  0.00000000000E+00  0.00000000000E+00  0.45593999997E+02  0.45594000000E+02  0.51100000000E-03 0.  1.
         11   -1    0    0    0    0 -0.00000000000E+00 -0.00000000000E+00 -0.45593999997E+02  0.45594000000E+02  0.51100000000E-03 0. -1.
    9900012    2    1    2    0    0  0.17676608009E+02 -0.34305164210E+02 -0.23233742144E+02  0.46142317231E+02  0.99999951654E+01 0.  0.
        -12    1    1    2    0    0 -0.17676608009E+02  0.34305164210E+02  0.23233742144E+02  0.45045682769E+02  0.00000000000E+00 0.  1.
         11    1    3    3    0    0  0.43225916958E+01 -0.13091956542E+02 -0.11209746020E+02  0.17769145482E+02  0.51100000000E-03 0. -1.
        -11    1    3    3    0    0  0.59896334814E+01 -0.47038511519E+01 -0.38477600017E+01  0.85327124756E+01  0.51100000000E-03 0.  1.
         12    1    3    3    0    0  0.73643828314E+01 -0.16509356516E+02 -0.81762361217E+01  0.19840459273E+02  0.00000000000E+00 0. -1.
</event>
<event>
 7    1  0.1563903E-008  0.4614233E+02  0.7816164E-02  0.1320468E+00
        -11   -1    0    0    0    0  0.00000000000E+00  0.00000000000E+00  0.45593999997E+02  0.45594000000E+02  0.51100000000E-03 0.  1.
         11   -1    0    0    0    0 -0.00000000000E+00 -0.00000000000E+00 -0.45593999997E+02  0.45594000000E+02  0.51100000000E-03 0. -1.
    9900012    2    1    2    0    0 -0.36861239424E+02 -0.10770989542E+01  0.25868919442E+02  0.46142333093E+02  0.10000139803E+02 0.  0.
        -12    1    1    2    0    0  0.36861239424E+02  0.10770989542E+01 -0.25868919442E+02  0.45045666907E+02  0.00000000000E+00 0.  1.
         11    1    3    3    0    0 -0.85851381062E+01  0.62651593161E+00  0.11430496062E+02  0.14309205394E+02  0.51100000000E-03 0. -1.
        -11    1    3    3    0    0 -0.10806866069E+02 -0.12964395596E+01  0.50914816175E+01  0.12016334511E+02  0.51100000000E-03 0.  1.
         12    1    3    3    0    0 -0.17469235248E+02 -0.40717532624E+00  0.93469417630E+01  0.19816793187E+02  0.00000000000E+00 0. -1.
</event>
<event>
 7    1  0.1563903E-008  0.4614232E+02  0.7816164E-02  0.1320468E+00
        -11   -1    0    0    0    0  0.00000000000E+00  0.00000000000E+00  0.45593999997E+02  0.45594000000E+02  0.51100000000E-03 0.  1.
         11   -1    0    0    0    0 -0.00000000000E+00 -0.00000000000E+00 -0.45593999997E+02  0.45594000000E+02  0.51100000000E-03 0. -1.
    9900012    2    1    2    0    0  0.27547209930E+02 -0.32642545517E+02 -0.14308337627E+02  0.46142322311E+02  0.10000041494E+02 0.  0.
        -12    1    1    2    0    0 -0.27547209930E+02  0.32642545517E+02  0.14308337627E+02  0.45045677689E+02  0.00000000000E+00 0.  1.
         11    1    3    3    0    0  0.58432606117E+01 -0.63665693464E+01 -0.86745326229E+00  0.86850086495E+01  0.51100000000E-03 0. -1.
        -11    1    3    3    0    0  0.16180343832E+02 -0.13643035057E+02 -0.76890496015E+01  0.22517935432E+02  0.51100000000E-03 0.  1.
        -12    1    3    3    0    0  0.55236054869E+01 -0.12632941114E+02 -0.57518347628E+01  0.14939378230E+02  0.00000000000E+00 0.  1.
</event>
<event>
 7    1  0.1563903E-008  0.4614232E+02  0.7816164E-02  0.1320468E+00
        -11   -1    0    0    0    0  0.00000000000E+00  0.00000000000E+00  0.45593999997E+02  0.45594000000E+02  0.51100000000E-03 0.  1.
         11   -1    0    0    0    0 -0.00000000000E+00 -0.00000000000E+00 -0.45593999997E+02  0.45594000000E+02  0.51100000000E-03 0. -1.
    9900012    2    1    2    0    0  0.40530451619E+02  0.18278649122E+02  0.72309712286E+01  0.46142317998E+02  0.10000002157E+02 0.  0.
        -12    1    1    2    0    0 -0.40530451619E+02 -0.18278649122E+02 -0.72309712286E+01  0.45045682002E+02  0.00000000000E+00 0.  1.
         11    1    3    3    0    0  0.65706977450E+01  0.52666808995E+01  0.22462005654E+01  0.87153550584E+01  0.51100000000E-03 0. -1.
        -11    1    3    3    0    0  0.16960937312E+02  0.79575580827E+01  0.59760898506E+01  0.19664937714E+02  0.51100000000E-03 0.  1.
         12    1    3    3    0    0  0.16998816562E+02  0.50544101396E+01 -0.99131918733E+00  0.17762025225E+02  0.00000000000E+00 0. -1.
</event>
<event>
 7    1  0.1563903E-008  0.4614232E+02  0.7816164E-02  0.1320468E+00
        -11   -1    0    0    0    0  0.00000000000E+00  0.00000000000E+00  0.45593999997E+02  0.45594000000E+02  0.51100000000E-03 0.  1.
         11   -1    0    0    0    0 -0.00000000000E+00 -0.00000000000E+00 -0.45593999997E+02  0.45594000000E+02  0.51100000000E-03 0. -1.
    9900012    2    1    2    0    0  0.30040131187E+02 -0.24262347053E+02  0.23195741606E+02  0.46142318798E+02  0.10000009457E+02 0.  0.
        -12    1    1    2    0    0 -0.30040131187E+02  0.24262347053E+02 -0.23195741606E+02  0.45045681202E+02  0.00000000000E+00 0.  1.
         11    1    3    3    0    0  0.10797002280E+02 -0.93077805751E+01  0.33677411011E+01  0.14647584028E+02  0.51100000000E-03 0. -1.
        -11    1    3    3    0    0  0.46881818975E+01 -0.40354077608E+01  0.62319669456E+01  0.87807162334E+01  0.51100000000E-03 0.  1.
         12    1    3    3    0    0  0.14554947010E+02 -0.10919158717E+02  0.13596033559E+02  0.22714018537E+02  0.00000000000E+00 0. -1.
</event>
<event>
 7    1  0.1563903E-008  0.4614232E+02  0.7816164E-02  0.1320468E+00
        -11   -1    0    0    0    0  0.00000000000E+00  0.00000000000E+00  0.45593999997E+02  0.45594000000E+02  0.51100000000E-03 0.  1.
         11   -1    0    0    0    0 -0.00000000000E+00 -0.00000000000E+00 -0.45593999997E+02  0.45594000000E+02  0.51100000000E-03 0. -1.
    9900012    2    1    2    0    0 -0.35208321421E+02  0.16917155611E+02 -0.22434290500E+02  0.46142318282E+02  0.10000004746E+02 0.  0.
        -12    1    1    2    0    0  0.35208321421E+02 -0.16917155611E+02  0.22434290500E+02  0.45045681718E+02  0.00000000000E+00 0.  1.
         11    1    3    3    0    0 -0.65200639762E+01  0.55433942597E+01 -0.22606148439E+01  0.88516006409E+01  0.51100000000E-03 0.  1.
        -11    1    3    3    0    0 -0.14860113056E+02  0.73522242350E+01 -0.13673977497E+02  0.21490831117E+02  0.51100000000E-03 0. -1.
        -12    1    3    3    0    0 -0.13828144389E+02  0.40215371162E+01 -0.64996981591E+01  0.15799886524E+02  0.00000000000E+00 0.  1.
</event>
<event>
 7    1  0.1563903E-008  0.4614232E+02  0.7816164E-02  0.1320468E+00
        -11   -1    0    0    0    0  0.00000000000E+00  0.00000000000E+00  0.45593999997E+02  0.45594000000E+02  0.51100000000E-03 0.  1.
         11   -1    0    0    0    0 -0.00000000000E+00 -0.00000000000E+00 -0.45593999997E+02  0.45594000000E+02  0.51100000000E-03 0. -1.
    9900012    2    1    2    0    0 -0.10493889229E+02 -0.34074513892E+01 -0.43673574143E+02  0.46142317470E+02  0.99999973468E+01 0.  0.
        -12    1    1    2    0    0  0.10493889229E+02  0.34074513892E+01  0.43673574143E+02  0.45045682530E+02  0.00000000000E+00 0.  1.
         11    1    3    3    0    0 -0.28191985652E+01  0.28885833596E+01 -0.77989640407E+01  0.87815508166E+01  0.51100000000E-03 0. -1.
        -11    1    3    3    0    0 -0.30247620400E+01 -0.34897244845E+01 -0.11588988190E+02  0.12475255905E+02  0.51100000000E-03 0.  1.
         12    1    3    3    0    0 -0.46499286238E+01 -0.28063102643E+01 -0.24285621913E+02  0.24885510749E+02  0.00000000000E+00 0. -1.
</event>
<event>
 7    1  0.1563903E-008  0.4614232E+02  0.7816164E-02  0.1320468E+00
        -11   -1    0    0    0    0  0.00000000000E+00  0.00000000000E+00  0.45593999997E+02  0.45594000000E+02  0.51100000000E-03 0.  1.
         11   -1    0    0    0    0 -0.00000000000E+00 -0.00000000000E+00 -0.45593999997E+02  0.45594000000E+02  0.51100000000E-03 0. -1.
    9900012    2    1    2    0    0 -0.19719975997E+02 -0.35687847938E+02 -0.19147153313E+02  0.46142318478E+02  0.10000006534E+02 0.  0.
        -12    1    1    2    0    0  0.19719975997E+02  0.35687847938E+02  0.19147153313E+02  0.45045681522E+02  0.00000000000E+00 0.  1.
         11    1    3    3    0    0 -0.94755224151E+01 -0.10312365636E+02 -0.42859577892E+01  0.14645813207E+02  0.51100000000E-03 0. -1.
        -11    1    3    3    0    0 -0.92667250708E+01 -0.21684353983E+02 -0.10847790196E+02  0.25956847914E+02  0.51100000000E-03 0.  1.
        -12    1    3    3    0    0 -0.97772851143E+00 -0.36911283186E+01 -0.40134053281E+01  0.55396573571E+01  0.00000000000E+00 0.  1.
</event>
<event>
 7    1  0.1563903E-008  0.4614232E+02  0.7816164E-02  0.1320468E+00
        -11   -1    0    0    0    0  0.00000000000E+00  0.00000000000E+00  0.45593999997E+02  0.45594000000E+02  0.51100000000E-03 0.  1.
         11   -1    0    0    0    0 -0.00000000000E+00 -0.00000000000E+00 -0.45593999997E+02  0.45594000000E+02  0.51100000000E-03 0. -1.
    9900012    2    1    2    0    0 -0.31784457804E+01 -0.44139488843E+02 -0.84093120436E+01  0.46142317389E+02  0.99999966028E+01 0.  0.
        -12    1    1    2    0    0  0.31784457804E+01  0.44139488843E+02  0.84093120436E+01  0.45045682611E+02  0.00000000000E+00 0.  1.
         11    1    3    3    0    0 -0.14328555341E+01 -0.77678893845E+01  0.15506787385E+01  0.80497071551E+01  0.51100000000E-03 0. -1.
        -11    1    3    3    0    0  0.17039286076E+01 -0.79709357723E+01 -0.18997679867E+01  0.83694867495E+01  0.51100000000E-03 0.  1.
         12    1    3    3    0    0 -0.34495188540E+01 -0.28400663686E+02 -0.80602227955E+01  0.29723123484E+02  0.00000000000E+00 0. -1.
</event>
<event>
 7    1  0.1563903E-008  0.4614232E+02  0.7816164E-02  0.1320468E+00
        -11   -1    0    0    0    0  0.00000000000E+00  0.00000000000E+00  0.45593999997E+02  0.45594000000E+02  0.51100000000E-03 0.  1.
         11   -1    0    0    0    0 -0.00000000000E+00 -0.00000000000E+00 -0.45593999997E+02  0.45594000000E+02  0.51100000000E-03 0. -1.
    9900012    2    1    2    0    0 -0.42912537960E+02 -0.10500142327E+02 -0.87962899203E+01  0.46142316307E+02  0.99999867385E+01 0.  0.
        -12    1    1    2    0    0  0.42912537960E+02  0.10500142327E+02  0.87962899203E+01  0.45045683693E+02  0.00000000000E+00 0.  1.
         11    1    3    3    0    0 -0.29533035208E+02 -0.74454787202E+01 -0.37039149111E+01  0.30681497810E+02  0.51100000000E-03 0. -1.
        -11    1    3    3    0    0 -0.16913767116E+00 -0.11696938227E+01 -0.11001548899E-01  0.11819105237E+01  0.51100000000E-03 0.  1.
         12    1    3    3    0    0 -0.13210365081E+02 -0.18849697839E+01 -0.50813734603E+01  0.14278907973E+02  0.00000000000E+00 0. -1.
</event>
<event>
 7    1  0.1563903E-008  0.4614232E+02  0.7816164E-02  0.1320468E+00
        -11   -1    0    0    0    0  0.00000000000E+00  0.00000000000E+00  0.45593999997E+02  0.45594000000E+02  0.51100000000E-03 0.  1.
         11   -1    0    0    0    0 -0.00000000000E+00 -0.00000000000E+00 -0.45593999997E+02  0.45594000000E+02  0.51100000000E-03 0. -1.
    9900012    2    1    2    0    0  0.12114914386E+02 -0.38921994023E+02 -0.19168223126E+02  0.46142317109E+02  0.99999940574E+01 0.  0.
        -12    1    1    2    0    0 -0.12114914386E+02  0.38921994023E+02  0.19168223126E+02  0.45045682891E+02  0.00000000000E+00 0.  1.
         11    1    3    3    0    0 -0.13146326262E+01 -0.47276438636E+01 -0.17398208801E+01  0.52063281110E+01  0.51100000000E-03 0. -1.
        -11    1    3    3    0    0  0.51551266472E+00 -0.24880303217E+01 -0.25741148564E+01  0.36169207545E+01  0.51100000000E-03 0.  1.
         12    1    3    3    0    0  0.12914034347E+02 -0.31706319837E+02 -0.14854287389E+02  0.37319068244E+02  0.00000000000E+00 0. -1.
</event>
<event>
 7    1  0.1563903E-008  0.4614232E+02  0.7816164E-02  0.1320468E+00
        -11   -1    0    0    0    0  0.00000000000E+00  0.00000000000E+00  0.45593999997E+02  0.45594000000E+02  0.51100000000E-03 0. -1.
         11   -1    0    0    0    0 -0.00000000000E+00 -0.00000000000E+00 -0.45593999997E+02  0.45594000000E+02  0.51100000000E-03 0.  1.
    9900012    2    1    2    0    0  0.29036689537E+02 -0.17454764502E+02  0.29686954456E+02  0.46142318654E+02  0.10000008138E+02 0.  0.
        -12    1    1    2    0    0 -0.29036689537E+02  0.17454764502E+02 -0.29686954456E+02  0.45045681346E+02  0.00000000000E+00 0.  1.
         11    1    3    3    0    0 -0.10461144681E-01  0.54928677417E+00  0.79076699488E+00  0.96288010528E+00  0.51100000000E-03 0.  1.
        -11    1    3    3    0    0  0.26797168336E+02 -0.14342187653E+02  0.24590075315E+02  0.39095503344E+02  0.51100000000E-03 0. -1.
         12    1    3    3    0    0  0.22499823461E+01 -0.36618636233E+01  0.43061121459E+01  0.60839352040E+01  0.00000000000E+00 0. -1.
</event>
<event>
 7    1  0.1563903E-008  0.4614232E+02  0.7816164E-02  0.1320468E+00
        -11   -1    0    0    0    0  0.00000000000E+00  0.00000000000E+00  0.45593999997E+02  0.45594000000E+02  0.51100000000E-03 0.  1.
         11   -1    0    0    0    0 -0.00000000000E+00 -0.00000000000E+00 -0.45593999997E+02  0.45594000000E+02  0.51100000000E-03 0. -1.
    9900012    2    1    2    0    0 -0.33210206766E+02  0.26984685939E+02 -0.14072041715E+02  0.46142318002E+02  0.10000002194E+02 0.  0.
        -12    1    1    2    0    0  0.33210206766E+02 -0.26984685939E+02  0.14072041715E+02  0.45045681998E+02  0.00000000000E+00 0.  1.
         11    1    3    3    0    0 -0.27689001666E+02  0.21509167916E+02 -0.85310128339E+01  0.36084668461E+02  0.51100000000E-03 0. -1.
        -11    1    3    3    0    0 -0.26406945521E+01  0.39674404344E+01 -0.47124770392E+01  0.67023347741E+01  0.51100000000E-03 0.  1.
        -12    1    3    3    0    0 -0.28805105475E+01  0.15080775882E+01 -0.82855184147E+00  0.33553147662E+01  0.00000000000E+00 0.  1.
</event>
<event>
 7    1  0.1563903E-008  0.4614232E+02  0.7816164E-02  0.1320468E+00
        -11   -1    0    0    0    0  0.00000000000E+00  0.00000000000E+00  0.45593999997E+02  0.45594000000E+02  0.51100000000E-03 0.  1.
         11   -1    0    0    0    0 -0.00000000000E+00 -0.00000000000E+00 -0.45593999997E+02  0.45594000000E+02  0.51100000000E-03 0. -1.
    9900012    2    1    2    0    0 -0.43567039560E+02  0.65079579896E+01 -0.94166331175E+01  0.46142318382E+02  0.10000005660E+02 0.  0.
        -12    1    1    2    0    0  0.43567039560E+02 -0.65079579896E+01  0.94166331175E+01  0.45045681618E+02  0.00000000000E+00 0.  1.
         11    1    3    3    0    0 -0.73024097099E+01 -0.13937983044E+01 -0.18289781636E+01  0.76559142281E+01  0.51100000000E-03 0. -1.
        -11    1    3    3    0    0 -0.45215672913E+01  0.34280089892E+01 -0.11768552104E+01  0.57948947227E+01  0.51100000000E-03 0.  1.
         12    1    3    3    0    0 -0.31743062558E+02  0.44737473048E+01 -0.64107997435E+01  0.32691509431E+02  0.00000000000E+00 0. -1.
</event>
<event>
 7    1  0.1563903E-008  0.4614232E+02  0.7816164E-02  0.1320468E+00
        -11   -1    0    0    0    0  0.00000000000E+00  0.00000000000E+00  0.45593999997E+02  0.45594000000E+02  0.51100000000E-03 0. -1.
         11   -1    0    0    0    0 -0.00000000000E+00 -0.00000000000E+00 -0.45593999997E+02  0.45594000000E+02  0.51100000000E-03 0.  1.
    9900012    2    1    2    0    0 -0.27723279048E+02  0.35489950569E+02  0.99831700923E+00  0.46142318416E+02  0.10000005968E+02 0.  0.
        -12    1    1    2    0    0  0.27723279048E+02 -0.35489950569E+02 -0.99831700923E+00  0.45045681584E+02  0.00000000000E+00 0.  1.
         11    1    3    3    0    0 -0.14506239038E+02  0.18213508395E+02  0.20036173334E+01  0.23370437346E+02  0.51100000000E-03 0. -1.
        -11    1    3    3    0    0 -0.45794382981E+01  0.11404777891E+02 -0.12481542702E+00  0.12290475703E+02  0.51100000000E-03 0.  1.
        -12    1    3    3    0    0 -0.86376017124E+01  0.58716642834E+01 -0.88048489715E+00  0.10481405366E+02  0.00000000000E+00 0.  1.
</event>
<event>
 7    1  0.1563903E-008  0.4614232E+02  0.7816164E-02  0.1320468E+00
        -11   -1    0    0    0    0  0.00000000000E+00  0.00000000000E+00  0.45593999997E+02  0.45594000000E+02  0.51100000000E-03 0.  1.
         11   -1    0    0    0    0 -0.00000000000E+00 -0.00000000000E+00 -0.45593999997E+02  0.45594000000E+02  0.51100000000E-03 0. -1.
    9900012    2    1    2    0    0 -0.22533113453E+02  0.31104237932E+02 -0.23535053488E+02  0.46142316945E+02  0.99999925617E+01 0.  0.
        -12    1    1    2    0    0  0.22533113453E+02 -0.31104237932E+02  0.23535053488E+02  0.45045683055E+02  0.00000000000E+00 0.  1.
         11    1    3    3    0    0 -0.12683434829E+02  0.18193170154E+02 -0.11427441349E+02  0.24948895273E+02  0.51100000000E-03 0.  1.
        -11    1    3    3    0    0 -0.92845090223E+01  0.13171542101E+02 -0.12553819160E+02  0.20427677422E+02  0.51100000000E-03 0. -1.
        -12    1    3    3    0    0 -0.56516960110E+00 -0.26047432356E+00  0.44620702040E+00  0.76574424992E+00  0.00000000000E+00 0.  1.
</event>
<event>
 7    1  0.1563903E-008  0.4614232E+02  0.7816164E-02  0.1320468E+00
        -11   -1    0    0    0    0  0.00000000000E+00  0.00000000000E+00  0.45593999997E+02  0.45594000000E+02  0.51100000000E-03 0.  1.
         11   -1    0    0    0    0 -0.00000000000E+00 -0.00000000000E+00 -0.45593999997E+02  0.45594000000E+02  0.51100000000E-03 0. -1.
    9900012    2    1    2    0    0 -0.37924782973E+02  0.24259451822E+02  0.15176825008E+01  0.46142317339E+02  0.99999961491E+01 0.  0.
        -12    1    1    2    0    0  0.37924782973E+02 -0.24259451822E+02 -0.15176825008E+01  0.45045682661E+02  0.00000000000E+00 0.  1.
         11    1    3    3    0    0 -0.32110456802E+01  0.25545421122E+01  0.74966853049E+00  0.41711512715E+01  0.51100000000E-03 0. -1.
        -11    1    3    3    0    0 -0.97346557642E+01  0.33491196677E+01  0.34494154271E+01  0.10857190817E+02  0.51100000000E-03 0.  1.
        -12    1    3    3    0    0 -0.24979081528E+02  0.18355790042E+02 -0.26814014568E+01  0.31113975250E+02  0.00000000000E+00 0.  1.
</event>
<event>
 7    1  0.1859605E-008  0.4614232E+02  0.7816164E-02  0.1320468E+00
        -11   -1    0    0    0    0  0.00000000000E+00  0.00000000000E+00  0.45593999997E+02  0.45594000000E+02  0.51100000000E-03 0.  1.
         11   -1    0    0    0    0 -0.00000000000E+00 -0.00000000000E+00 -0.45593999997E+02  0.45594000000E+02  0.51100000000E-03 0. -1.
    9900012    2    1    2    0    0 -0.41331272853E+02  0.14965657003E+01  0.17849359691E+02  0.46142318010E+02  0.10000002273E+02 0.  0.
        -12    1    1    2    0    0  0.41331272853E+02 -0.14965657003E+01 -0.17849359691E+02  0.45045681990E+02  0.00000000000E+00 0.  1.
         11    1    3    3    0    0 -0.37622098246E+02 -0.13543797671E+01  0.16257955402E+02  0.41007044945E+02  0.51100000000E-03 0. -1.
        -11    1    3    3    0    0 -0.18685057345E+01  0.14385396678E+01  0.66807352922E-01  0.23590620041E+01  0.51100000000E-03 0.  1.
         12    1    3    3    0    0 -0.18406688723E+01  0.14124057996E+01  0.15245969361E+01  0.27762110614E+01  0.00000000000E+00 0. -1.
</event>
<event>
 7    1  0.1563903E-008  0.4614232E+02  0.7816164E-02  0.1320468E+00
        -11   -1    0    0    0    0  0.00000000000E+00  0.00000000000E+00  0.45593999997E+02  0.45594000000E+02  0.51100000000E-03 0.  1.
         11   -1    0    0    0    0 -0.00000000000E+00 -0.00000000000E+00 -0.45593999997E+02  0.45594000000E+02  0.51100000000E-03 0. -1.
    9900012    2    1    2    0    0  0.38124624024E+02 -0.36287222225E+00 -0.23989474168E+02  0.46142317586E+02  0.99999984067E+01 0.  0.
        -12    1    1    2    0    0 -0.38124624024E+02  0.36287222225E+00  0.23989474168E+02  0.45045682414E+02  0.00000000000E+00 0.  1.
         11    1    3    3    0    0  0.14004626702E+02  0.31209281011E+00 -0.10441742122E+02  0.17471604099E+02  0.51100000000E-03 0. -1.
        -11    1    3    3    0    0  0.99847109371E+01  0.28060868763E+01 -0.79740183576E+01  0.13082566456E+02  0.51100000000E-03 0.  1.
        -12    1    3    3    0    0  0.14135286385E+02 -0.34810519086E+01 -0.55737136883E+01  0.15588147031E+02  0.00000000000E+00 0.  1.
</event>
<event>
 7    1  0.1563903E-008  0.4614232E+02  0.7816164E-02  0.1320468E+00
        -11   -1    0    0    0    0  0.00000000000E+00  0.00000000000E+00  0.45593999997E+02  0.45594000000E+02  0.51100000000E-03 0.  1.
         11   -1    0    0    0    0 -0.00000000000E+00 -0.00000000000E+00 -0.45593999997E+02  0.45594000000E+02  0.51100000000E-03 0. -1.
    9900012    2    1    2    0    0 -0.14195491284E+02 -0.42748990700E+02 -0.35422561490E+00  0.46142315917E+02  0.99999831864E+01 0.  0.
        -12    1    1    2    0    0  0.14195491284E+02  0.42748990700E+02  0.35422561490E+00  0.45045684083E+02  0.00000000000E+00 0.  1.
         11    1    3    3    0    0 -0.13555484062E+02 -0.33148746277E+02 -0.55054746499E+00  0.35817504529E+02  0.51100000000E-03 0. -1.
        -11    1    3    3    0    0 -0.41676493570E-01 -0.35038554112E+00  0.96139210717E+00  0.10241005822E+01  0.51100000000E-03 0.  1.
         12    1    3    3    0    0 -0.59833072772E+00 -0.92498588821E+01 -0.76507025708E+00  0.93007108060E+01  0.00000000000E+00 0. -1.
</event>
<event>
 7    1  0.1563903E-008  0.4614232E+02  0.7816164E-02  0.1320468E+00
        -11   -1    0    0    0    0  0.00000000000E+00  0.00000000000E+00  0.45593999997E+02  0.45594000000E+02  0.51100000000E-03 0.  1.
         11   -1    0    0    0    0 -0.00000000000E+00 -0.00000000000E+00 -0.45593999997E+02  0.45594000000E+02  0.51100000000E-03 0. -1.
    9900012    2    1    2    0    0 -0.14218205929E+02 -0.40691832554E+02 -0.13081699154E+02  0.46142317974E+02  0.10000001940E+02 0.  0.
        -12    1    1    2    0    0  0.14218205929E+02  0.40691832554E+02  0.13081699154E+02  0.45045682026E+02  0.00000000000E+00 0.  1.
         11    1    3    3    0    0 -0.98731304314E+01 -0.22977746430E+02 -0.62621314198E+01  0.25781191317E+02  0.51100000000E-03 0. -1.
        -11    1    3    3    0    0 -0.98746833566E+00 -0.39731997991E+01 -0.44007366971E+01  0.60106483923E+01  0.51100000000E-03 0.  1.
        -12    1    3    3    0    0 -0.33576071617E+01 -0.13740886325E+02 -0.24188310368E+01  0.14350478265E+02  0.00000000000E+00 0.  1.
</event>
<event>
 7    1  0.1563903E-008  0.4614232E+02  0.7816164E-02  0.1320468E+00
        -11   -1    0    0    0    0  0.00000000000E+00  0.00000000000E+00  0.45593999997E+02  0.45594000000E+02  0.51100000000E-03 0.  1.
         11   -1    0    0    0    0 -0.00000000000E+00 -0.00000000000E+00 -0.45593999997E+02  0.45594000000E+02  0.51100000000E-03 0. -1.
    9900012    2    1    2    0    0 -0.81218909127E+01 -0.27381036630E+02 -0.34834281559E+02  0.46142318179E+02  0.10000003813E+02 0.  0.
        -12    1    1    2    0    0  0.81218909127E+01  0.27381036630E+02  0.34834281559E+02  0.45045681821E+02  0.00000000000E+00 0.  1.
         11    1    3    3    0    0 -0.22128755807E+01 -0.81015222427E+01 -0.17713028940E+02  0.19603134328E+02  0.51100000000E-03 0.  1.
        -11    1    3    3    0    0 -0.35964030559E+01 -0.14648417392E+02 -0.13226935765E+02  0.20061457500E+02  0.51100000000E-03 0. -1.
        -12    1    3    3    0    0 -0.23126122760E+01 -0.46310969956E+01 -0.38943168536E+01  0.64777263510E+01  0.00000000000E+00 0.  1.
</event>
<event>
 7    1  0.1563903E-008  0.4614232E+02  0.7816164E-02  0.1320468E+00
        -11   -1    0    0    0    0  0.00000000000E+00  0.00000000000E+00  0.45593999997E+02  0.45594000000E+02  0.51100000000E-03 0.  1.
         11   -1    0    0    0    0 -0.00000000000E+00 -0.00000000000E+00 -0.45593999997E+02  0.45594000000E+02  0.51100000000E-03 0. -1.
    9900012    2    1    2    0    0 -0.23453982126E+02 -0.30556970491E+02  0.23351569779E+02  0.46142317252E+02  0.99999953541E+01 0.  0.
        -12    1    1    2    0    0  0.23453982126E+02  0.30556970491E+02 -0.23351569779E+02  0.45045682748E+02  0.00000000000E+00 0.  1.
         11    1    3    3    0    0 -0.82290742535E+01 -0.63235735638E+01  0.25787441572E+01  0.10693697554E+02  0.51100000000E-03 0. -1.
        -11    1    3    3    0    0 -0.10321026152E+02 -0.18386129803E+02  0.14877174650E+02  0.25805109490E+02  0.51100000000E-03 0.  1.
         12    1    3    3    0    0 -0.49038817196E+01 -0.58472671239E+01  0.58956509718E+01  0.96435102073E+01  0.00000000000E+00 0. -1.
</event>
<event>
 7    1  0.1563903E-008  0.4614231E+02  0.7816164E-02  0.1320468E+00
        -11   -1    0    0    0    0  0.00000000000E+00  0.00000000000E+00  0.45593999997E+02  0.45594000000E+02  0.51100000000E-03 0.  1.
         11   -1    0    0    0    0 -0.00000000000E+00 -0.00000000000E+00 -0.45593999997E+02  0.45594000000E+02  0.51100000000E-03 0. -1.
    9900012    2    1    2    0    0 -0.34711341682E+01  0.86047139650E+01 -0.44079745411E+02  0.46142313965E+02  0.99999653843E+01 0.  0.
        -12    1    1    2    0    0  0.34711341682E+01 -0.86047139650E+01  0.44079745411E+02  0.45045686035E+02  0.00000000000E+00 0.  1.
         11    1    3    3    0    0 -0.38585803844E+01  0.58629110289E+00 -0.72568056410E+01  0.82397577763E+01  0.51100000000E-03 0. -1.
        -11    1    3    3    0    0 -0.31848162601E+00  0.15482266898E+01 -0.24276950573E+01  0.28969190498E+01  0.51100000000E-03 0.  1.
         12    1    3    3    0    0  0.70592784219E+00  0.64701961723E+01 -0.34395244713E+02  0.35005637139E+02  0.00000000000E+00 0. -1.
</event>
<event>
 7    1  0.1563903E-008  0.4614232E+02  0.7816164E-02  0.1320468E+00
        -11   -1    0    0    0    0  0.00000000000E+00  0.00000000000E+00  0.45593999997E+02  0.45594000000E+02  0.51100000000E-03 0. -1.
         11   -1    0    0    0    0 -0.00000000000E+00 -0.00000000000E+00 -0.45593999997E+02  0.45594000000E+02  0.51100000000E-03 0.  1.
    9900012    2    1    2    0    0 -0.12471810158E+02 -0.43148341892E+02  0.34333636496E+01  0.46142318270E+02  0.10000004637E+02 0.  0.
        -12    1    1    2    0    0  0.12471810158E+02  0.43148341892E+02 -0.34333636496E+01  0.45045681730E+02  0.00000000000E+00 0.  1.
         11    1    3    3    0    0 -0.61840155173E+01 -0.14910730976E+02  0.65688345312E+00  0.16155600957E+02  0.51100000000E-03 0. -1.
        -11    1    3    3    0    0 -0.58163242384E+01 -0.18360947200E+02  0.48992399568E+01  0.19873514086E+02  0.51100000000E-03 0.  1.
         12    1    3    3    0    0 -0.47147040203E+00 -0.98766637161E+01 -0.21227597603E+01  0.10113203226E+02  0.00000000000E+00 0. -1.
</event>
<event>
 7    1  0.1563903E-008  0.4614232E+02  0.7816164E-02  0.1320468E+00
        -11   -1    0    0    0    0  0.00000000000E+00  0.00000000000E+00  0.45593999997E+02  0.45594000000E+02  0.51100000000E-03 0.  1.
         11   -1    0    0    0    0 -0.00000000000E+00 -0.00000000000E+00 -0.45593999997E+02  0.45594000000E+02  0.51100000000E-03 0. -1.
    9900012    2    1    2    0    0  0.15669758539E+02 -0.39254953340E+02 -0.15576282774E+02  0.46142320080E+02  0.10000021142E+02 0.  0.
        -12    1    1    2    0    0 -0.15669758539E+02  0.39254953340E+02  0.15576282774E+02  0.45045679920E+02  0.00000000000E+00 0.  1.
         11    1    3    3    0    0  0.11748760055E+02 -0.36348692743E+02 -0.14458219927E+02  0.40844839952E+02  0.51100000000E-03 0. -1.
        -11    1    3    3    0    0  0.35204119095E+00  0.21204542833E+00 -0.24482817750E+00  0.47836948212E+00  0.51100000000E-03 0.  1.
         12    1    3    3    0    0  0.35689572929E+01 -0.31183060254E+01 -0.87323467030E+00  0.48191106458E+01  0.00000000000E+00 0. -1.
</event>
<event>
 7    1  0.1563903E-008  0.4614232E+02  0.7816164E-02  0.1320468E+00
        -11   -1    0    0    0    0  0.00000000000E+00  0.00000000000E+00  0.45593999997E+02  0.45594000000E+02  0.51100000000E-03 0.  1.
         11   -1    0    0    0    0 -0.00000000000E+00 -0.00000000000E+00 -0.45593999997E+02  0.45594000000E+02  0.51100000000E-03 0. -1.
    9900012    2    1    2    0    0 -0.25498204037E+01  0.36698499471E+02 -0.25996771241E+02  0.46142316938E+02  0.99999924973E+01 0.  0.
        -12    1    1    2    0    0  0.25498204037E+01 -0.36698499471E+02  0.25996771241E+02  0.45045683062E+02  0.00000000000E+00 0.  1.
         11    1    3    3    0    0 -0.11690417836E+01  0.29282995122E+02 -0.23592415277E+02  0.37622633093E+02  0.51100000000E-03 0. -1.
        -11    1    3    3    0    0 -0.19853404202E+01  0.26543057058E+01 -0.14890474975E+01  0.36337553680E+01  0.51100000000E-03 0.  1.
         12    1    3    3    0    0  0.60456180011E+00  0.47611986439E+01 -0.91530846648E+00  0.48859284773E+01  0.00000000000E+00 0. -1.
</event>
<event>
 7    1  0.1563903E-008  0.4614232E+02  0.7816164E-02  0.1320468E+00
        -11   -1    0    0    0    0  0.00000000000E+00  0.00000000000E+00  0.45593999997E+02  0.45594000000E+02  0.51100000000E-03 0.  1.
         11   -1    0    0    0    0 -0.00000000000E+00 -0.00000000000E+00 -0.45593999997E+02  0.45594000000E+02  0.51100000000E-03 0. -1.
    9900012    2    1    2    0    0 -0.64472633634E+01 -0.46014711421E+01 -0.44343800532E+02  0.46142318885E+02  0.10000010244E+02 0.  0.
        -12    1    1    2    0    0  0.64472633634E+01  0.46014711421E+01  0.44343800532E+02  0.45045681115E+02  0.00000000000E+00 0.  1.
         11    1    3    3    0    0 -0.41746524487E+01 -0.36307225206E+01 -0.83535872120E+01  0.10019595234E+02  0.51100000000E-03 0. -1.
        -11    1    3    3    0    0 -0.24027409927E+01 -0.73591930639E+00 -0.35170613405E+02  0.35260272106E+02  0.51100000000E-03 0.  1.
        -12    1    3    3    0    0  0.13013007799E+00 -0.23482931511E+00 -0.81959991519E+00  0.86245154381E+00  0.00000000000E+00 0.  1.
</event>
<event>
 7    1  0.1563903E-008  0.4614232E+02  0.7816164E-02  0.1320468E+00
        -11   -1    0    0    0    0  0.00000000000E+00  0.00000000000E+00  0.45593999997E+02  0.45594000000E+02  0.51100000000E-03 0.  1.
         11   -1    0    0    0    0 -0.00000000000E+00 -0.00000000000E+00 -0.45593999997E+02  0.45594000000E+02  0.51100000000E-03 0. -1.
    9900012    2    1    2    0    0 -0.37902972600E+02 -0.18173670876E+01 -0.24272934769E+02  0.46142317440E+02  0.99999970681E+01 0.  0.
        -12    1    1    2    0    0  0.37902972600E+02  0.18173670876E+01  0.24272934769E+02  0.45045682560E+02  0.00000000000E+00 0.  1.
         11    1    3    3    0    0 -0.17432896914E+02 -0.43150067104E+01 -0.71941829116E+01  0.19346354844E+02  0.51100000000E-03 0. -1.
        -11    1    3    3    0    0 -0.17680759293E+02  0.18510273532E+01 -0.14458395753E+02  0.22914640722E+02  0.51100000000E-03 0.  1.
        -12    1    3    3    0    0 -0.27893163930E+01  0.64661226960E+00 -0.26203561050E+01  0.38813218733E+01  0.00000000000E+00 0.  1.
</event>
<event>
 7    1  0.1563903E-008  0.4614232E+02  0.7816164E-02  0.1320468E+00
        -11   -1    0    0    0    0  0.00000000000E+00  0.00000000000E+00  0.45593999997E+02  0.45594000000E+02  0.51100000000E-03 0. -1.
         11   -1    0    0    0    0 -0.00000000000E+00 -0.00000000000E+00 -0.45593999997E+02  0.45594000000E+02  0.51100000000E-03 0.  1.
    9900012    2    1    2    0    0 -0.17498514672E+02 -0.41282351617E+02  0.43223127100E+01  0.46142323649E+02  0.10000053688E+02 0.  0.
        -12    1    1    2    0    0  0.17498514672E+02  0.41282351617E+02 -0.43223127100E+01  0.45045676351E+02  0.00000000000E+00 0.  1.
         11    1    3    3    0    0 -0.30500186028E+01 -0.13813002685E+02  0.16146598201E+01  0.14237583477E+02  0.51100000000E-03 0. -1.
        -11    1    3    3    0    0  0.21896427866E+00 -0.32402007755E+01 -0.85607744380E+00  0.33585287362E+01  0.51100000000E-03 0.  1.
        -12    1    3    3    0    0 -0.14667460347E+02 -0.24229148157E+02  0.35637303337E+01  0.28546211436E+02  0.00000000000E+00 0.  1.
</event>
<event>
 7    1  0.1563903E-008  0.4614232E+02  0.7816164E-02  0.1320468E+00
        -11   -1    0    0    0    0  0.00000000000E+00  0.00000000000E+00  0.45593999997E+02  0.45594000000E+02  0.51100000000E-03 0.  1.
         11   -1    0    0    0    0 -0.00000000000E+00 -0.00000000000E+00 -0.45593999997E+02  0.45594000000E+02  0.51100000000E-03 0. -1.
    9900012    2    1    2    0    0  0.25687475284E+02  0.34353141194E+02 -0.13752416553E+02  0.46142315885E+02  0.99999828888E+01 0.  0.
        -12    1    1    2    0    0 -0.25687475284E+02 -0.34353141194E+02  0.13752416553E+02  0.45045684115E+02  0.00000000000E+00 0.  1.
         11    1    3    3    0    0  0.12762744268E+02  0.17808759701E+02 -0.24179034889E+01  0.22042817898E+02  0.51100000000E-03 0. -1.
        -11    1    3    3    0    0  0.46284519924E+01  0.54946533753E+01 -0.57263550308E+01  0.91872153431E+01  0.51100000000E-03 0.  1.
         12    1    3    3    0    0  0.82962790229E+01  0.11049728118E+02 -0.56081580333E+01  0.14912282644E+02  0.00000000000E+00 0. -1.
</event>
<event>
 7    1  0.1563903E-008  0.4614231E+02  0.7816164E-02  0.1320468E+00
        -11   -1    0    0    0    0  0.00000000000E+00  0.00000000000E+00  0.45593999997E+02  0.45594000000E+02  0.51100000000E-03 0.  1.
         11   -1    0    0    0    0 -0.00000000000E+00 -0.00000000000E+00 -0.45593999997E+02  0.45594000000E+02  0.51100000000E-03 0. -1.
    9900012    2    1    2    0    0  0.37240841024E+02  0.74074568857E+01 -0.24235576409E+02  0.46142314063E+02  0.99999662738E+01 0.  0.
        -12    1    1    2    0    0 -0.37240841024E+02 -0.74074568857E+01  0.24235576409E+02  0.45045685937E+02  0.00000000000E+00 0.  1.
         11    1    3    3    0    0  0.41496499314E+01 -0.53730902806E+00  0.16898742679E+00  0.41877025391E+01  0.51100000000E-03 0. -1.
        -11    1    3    3    0    0  0.11681864937E+02  0.18371447255E+01 -0.75391224308E+01  0.14024244594E+02  0.51100000000E-03 0.  1.
         12    1    3    3    0    0  0.21409326156E+02  0.61076211883E+01 -0.16865441405E+02  0.27930366929E+02  0.00000000000E+00 0. -1.
</event>
<event>
 7    1  0.1563903E-008  0.4614232E+02  0.7816164E-02  0.1320468E+00
        -11   -1    0    0    0    0  0.00000000000E+00  0.00000000000E+00  0.45593999997E+02  0.45594000000E+02  0.51100000000E-03 0. -1.
         11   -1    0    0    0    0 -0.00000000000E+00 -0.00000000000E+00 -0.45593999997E+02  0.45594000000E+02  0.51100000000E-03 0.  1.
    9900012    2    1    2    0    0  0.96007970231E+01  0.77525959999E+01  0.43322458325E+02  0.46142318259E+02  0.10000004540E+02 0.  0.
        -12    1    1    2    0    0 -0.96007970231E+01 -0.77525959999E+01 -0.43322458325E+02  0.45045681741E+02  0.00000000000E+00 0.  1.
         11    1    3    3    0    0  0.92340348032E+00  0.24800186191E+01  0.62822426371E+01  0.68168716543E+01  0.51100000000E-03 0. -1.
        -11    1    3    3    0    0  0.82908990849E+01  0.58832685367E+01  0.21647919141E+02  0.23916192416E+02  0.51100000000E-03 0.  1.
         12    1    3    3    0    0  0.38649445786E+00 -0.61069115587E+00  0.15392296547E+02  0.15409254188E+02  0.00000000000E+00 0. -1.
</event>
<event>
 7    1  0.1563903E-008  0.4614232E+02  0.7816164E-02  0.1320468E+00
        -11   -1    0    0    0    0  0.00000000000E+00  0.00000000000E+00  0.45593999997E+02  0.45594000000E+02  0.51100000000E-03 0.  1.
         11   -1    0    0    0    0 -0.00000000000E+00 -0.00000000000E+00 -0.45593999997E+02  0.45594000000E+02  0.51100000000E-03 0. -1.
    9900012    2    1    2    0    0  0.12620848799E+02  0.18382576022E+02 -0.39139603579E+02  0.46142317699E+02  0.99999994333E+01 0.  0.
        -12    1    1    2    0    0 -0.12620848799E+02 -0.18382576022E+02  0.39139603579E+02  0.45045682301E+02  0.00000000000E+00 0.  1.
         11    1    3    3    0    0  0.46992731953E+00  0.50893431357E+01 -0.14772600478E+02  0.15631761590E+02  0.51100000000E-03 0. -1.
        -11    1    3    3    0    0  0.67964046789E+00  0.15334580604E+00 -0.23616559152E+00  0.73566333983E+00  0.51100000000E-03 0.  1.
         12    1    3    3    0    0  0.11471281011E+02  0.13139887081E+02 -0.24130837509E+02  0.29774892770E+02  0.00000000000E+00 0. -1.
</event>
<event>
 7    1  0.1563903E-008  0.4614232E+02  0.7816164E-02  0.1320468E+00
        -11   -1    0    0    0    0  0.00000000000E+00  0.00000000000E+00  0.45593999997E+02  0.45594000000E+02  0.51100000000E-03 0.  1.
         11   -1    0    0    0    0 -0.00000000000E+00 -0.00000000000E+00 -0.45593999997E+02  0.45594000000E+02  0.51100000000E-03 0. -1.
    9900012    2    1    2    0    0  0.27220008207E+02  0.26084158799E+02 -0.24653627084E+02  0.46142317461E+02  0.99999972620E+01 0.  0.
        -12    1    1    2    0    0 -0.27220008207E+02 -0.26084158799E+02  0.24653627084E+02  0.45045682539E+02  0.00000000000E+00 0.  1.
         11    1    3    3    0    0 -0.48948384533E+00  0.79603791341E+00 -0.85573978039E+00  0.12671075832E+01  0.51100000000E-03 0. -1.
        -11    1    3    3    0    0  0.21914739771E+01  0.32331336099E+01 -0.47155579477E+01  0.61230873055E+01  0.51100000000E-03 0.  1.
         12    1    3    3    0    0  0.25518018075E+02  0.22054987276E+02 -0.19082329356E+02  0.38752122572E+02  0.00000000000E+00 0. -1.
</event>
<event>
 7    1  0.1563903E-008  0.4614232E+02  0.7816164E-02  0.1320468E+00
        -11   -1    0    0    0    0  0.00000000000E+00  0.00000000000E+00  0.45593999997E+02  0.45594000000E+02  0.51100000000E-03 0.  1.
         11   -1    0    0    0    0 -0.00000000000E+00 -0.00000000000E+00 -0.45593999997E+02  0.45594000000E+02  0.51100000000E-03 0. -1.
    9900012    2    1    2    0    0  0.27042061959E+02  0.31512987229E+02  0.17457720743E+02  0.46142317714E+02  0.99999995723E+01 0.  0.
        -12    1    1    2    0    0 -0.27042061959E+02 -0.31512987229E+02 -0.17457720743E+02  0.45045682286E+02  0.00000000000E+00 0.  1.
         11    1    3    3    0    0  0.11353015331E+02  0.13921156391E+02  0.99998588266E+01  0.20559346516E+02  0.51100000000E-03 0. -1.
        -11    1    3    3    0    0  0.14952637820E+02  0.16816688000E+02  0.85332300598E+01  0.24066540852E+02  0.51100000000E-03 0.  1.
        -12    1    3    3    0    0  0.73640880768E+00  0.77514283746E+00 -0.10753681431E+01  0.15164303458E+01  0.00000000000E+00 0.  1.
</event>
<event>
 7    1  0.1563903E-008  0.4614232E+02  0.7816164E-02  0.1320468E+00
        -11   -1    0    0    0    0  0.00000000000E+00  0.00000000000E+00  0.45593999997E+02  0.45594000000E+02  0.51100000000E-03 0.  1.
         11   -1    0    0    0    0 -0.00000000000E+00 -0.00000000000E+00 -0.45593999997E+02  0.45594000000E+02  0.51100000000E-03 0. -1.
    9900012    2    1    2    0    0 -0.18141407598E+02 -0.40177831782E+02 -0.92598318564E+01  0.46142319604E+02  0.10000016803E+02 0.  0.
        -12    1    1    2    0    0  0.18141407598E+02  0.40177831782E+02  0.92598318564E+01  0.45045680396E+02  0.00000000000E+00 0.  1.
         11    1    3    3    0    0 -0.62168375486E+01 -0.13585946400E+02  0.14932260390E+01  0.15015216714E+02  0.51100000000E-03 0. -1.
        -11    1    3    3    0    0 -0.31850740422E+01 -0.85621088176E+01 -0.26253791585E+01  0.95051049466E+01  0.51100000000E-03 0.  1.
         12    1    3    3    0    0 -0.87394960070E+01 -0.18029776564E+02 -0.81276787369E+01  0.21621997943E+02  0.00000000000E+00 0. -1.
</event>
<event>
 7    1  0.1563903E-008  0.4614232E+02  0.7816164E-02  0.1320468E+00
        -11   -1    0    0    0    0  0.00000000000E+00  0.00000000000E+00  0.45593999997E+02  0.45594000000E+02  0.51100000000E-03 0. -1.
         11   -1    0    0    0    0 -0.00000000000E+00 -0.00000000000E+00 -0.45593999997E+02  0.45594000000E+02  0.51100000000E-03 0.  1.
    9900012    2    1    2    0    0  0.40693354346E+02 -0.79877705562E+01  0.17588628715E+02  0.46142318448E+02  0.10000006268E+02 0.  0.
        -12    1    1    2    0    0 -0.40693354346E+02  0.79877705562E+01 -0.17588628715E+02  0.45045681552E+02  0.00000000000E+00 0.  1.
         11    1    3    3    0    0  0.29981220622E+01  0.14845564745E+01  0.31609169874E+01  0.46026123330E+01  0.51100000000E-03 0.  1.
        -11    1    3    3    0    0  0.17633489172E+02 -0.52115456060E+01  0.79426041032E+01  0.20029605792E+02  0.51100000000E-03 0. -1.
         12    1    3    3    0    0  0.20061743111E+02 -0.42607814247E+01  0.64851076246E+01  0.21510100323E+02  0.00000000000E+00 0. -1.
</event>
<event>
 7    1  0.1563903E-008  0.4614232E+02  0.7816164E-02  0.1320468E+00
        -11   -1    0    0    0    0  0.00000000000E+00  0.00000000000E+00  0.45593999997E+02  0.45594000000E+02  0.51100000000E-03 0. -1.
         11   -1    0    0    0    0 -0.00000000000E+00 -0.00000000000E+00 -0.45593999997E+02  0.45594000000E+02  0.51100000000E-03 0.  1.
    9900012    2    1    2    0    0 -0.62961437871E+01 -0.21197116314E+02  0.39244800265E+02  0.46142317472E+02  0.99999973595E+01 0.  0.
        -12    1    1    2    0    0  0.62961437871E+01  0.21197116314E+02 -0.39244800265E+02  0.45045682528E+02  0.00000000000E+00 0.  1.
         11    1    3    3    0    0 -0.13416668167E+01 -0.12894977455E+02  0.23432381881E+02  0.26779787794E+02  0.51100000000E-03 0. -1.
        -11    1    3    3    0    0 -0.33711160596E+01 -0.20590019565E+01  0.97399094355E+01  0.10510459011E+02  0.51100000000E-03 0.  1.
        -12    1    3    3    0    0 -0.15833609109E+01 -0.62431369030E+01  0.60725089480E+01  0.88520706666E+01  0.00000000000E+00 0.  1.
</event>
<event>
 7    1  0.1563903E-008  0.4614232E+02  0.7816164E-02  0.1320468E+00
        -11   -1    0    0    0    0  0.00000000000E+00  0.00000000000E+00  0.45593999997E+02  0.45594000000E+02  0.51100000000E-03 0.  1.
         11   -1    0    0    0    0 -0.00000000000E+00 -0.00000000000E+00 -0.45593999997E+02  0.45594000000E+02  0.51100000000E-03 0. -1.
    9900012    2    1    2    0    0  0.39617202011E+01 -0.27020885238E+02 -0.35823033947E+02  0.46142320661E+02  0.10000026440E+02 0.  0.
        -12    1    1    2    0    0 -0.39617202011E+01  0.27020885238E+02  0.35823033947E+02  0.45045679339E+02  0.00000000000E+00 0.  1.
         11    1    3    3    0    0  0.45340516312E+00 -0.80098612247E+01 -0.62717007071E+01  0.10183205934E+02  0.51100000000E-03 0. -1.
        -11    1    3    3    0    0  0.61543384004E+00 -0.13194438007E+02 -0.24083920163E+02  0.27468293791E+02  0.51100000000E-03 0.  1.
         12    1    3    3    0    0  0.28928811979E+01 -0.58165860070E+01 -0.54674130766E+01  0.84908209351E+01  0.00000000000E+00 0. -1.
</event>
<event>
 7    1  0.1563903E-008  0.4614231E+02  0.7816164E-02  0.1320468E+00
        -11   -1    0    0    0    0  0.00000000000E+00  0.00000000000E+00  0.45593999997E+02  0.45594000000E+02  0.51100000000E-03 0.  1.
         11   -1    0    0    0    0 -0.00000000000E+00 -0.00000000000E+00 -0.45593999997E+02  0.45594000000E+02  0.51100000000E-03 0. -1.
    9900012    2    1    2    0    0 -0.35346978753E+02 -0.25582328628E+02 -0.11191505034E+02  0.46142309530E+02  0.99999249406E+01 0.  0.
        -12    1    1    2    0    0  0.35346978753E+02  0.25582328628E+02  0.11191505034E+02  0.45045690470E+02  0.00000000000E+00 0.  1.
         11    1    3    3    0    0  0.19457790415E+00 -0.11617025242E+01  0.44202998437E-01  0.11787143342E+01  0.51100000000E-03 0. -1.
        -11    1    3    3    0    0 -0.15280977287E+02 -0.94985051083E+01 -0.17698219828E+01  0.18079328976E+02  0.51100000000E-03 0.  1.
         12    1    3    3    0    0 -0.20260579371E+02 -0.14922120995E+02 -0.94658860495E+01  0.26884266219E+02  0.00000000000E+00 0. -1.
</event>
<event>
 7    1  0.1563903E-008  0.4614231E+02  0.7816164E-02  0.1320468E+00
        -11   -1    0    0    0    0  0.00000000000E+00  0.00000000000E+00  0.45593999997E+02  0.45594000000E+02  0.51100000000E-03 0. -1.
         11   -1    0    0    0    0 -0.00000000000E+00 -0.00000000000E+00 -0.45593999997E+02  0.45594000000E+02  0.51100000000E-03 0.  1.
    9900012    2    1    2    0    0  0.16571194621E+02 -0.38249415949E+02  0.17073129960E+02  0.46142311214E+02  0.99999402963E+01 0.  0.
        -12    1    1    2    0    0 -0.16571194621E+02  0.38249415949E+02 -0.17073129960E+02  0.45045688786E+02  0.00000000000E+00 0.  1.
         11    1    3    3    0    0  0.12725973017E+02 -0.28080169240E+02  0.98320312233E+01  0.32359158394E+02  0.51100000000E-03 0. -1.
        -11    1    3    3    0    0  0.26440587850E+01 -0.37899640848E+01  0.52481933045E+01  0.69927396524E+01  0.51100000000E-03 0.  1.
        -12    1    3    3    0    0  0.12011628193E+01 -0.63792826242E+01  0.19929054324E+01  0.67904131671E+01  0.00000000000E+00 0.  1.
</event>
<event>
 7    1  0.1563903E-008  0.4614232E+02  0.7816164E-02  0.1320468E+00
        -11   -1    0    0    0    0  0.00000000000E+00  0.00000000000E+00  0.45593999997E+02  0.45594000000E+02  0.51100000000E-03 0.  1.
         11   -1    0    0    0    0 -0.00000000000E+00 -0.00000000000E+00 -0.45593999997E+02  0.45594000000E+02  0.51100000000E-03 0. -1.
    9900012    2    1    2    0    0  0.74096052088E+01  0.43078744787E+02  0.10882692668E+02  0.46142317616E+02  0.99999986750E+01 0.  0.
        -12    1    1    2    0    0 -0.74096052088E+01 -0.43078744787E+02 -0.10882692668E+02  0.45045682384E+02  0.00000000000E+00 0.  1.
         11    1    3    3    0    0 -0.97150233576E-01  0.42914280117E+01  0.34999665192E+01  0.55385520169E+01  0.51100000000E-03 0.  1.
        -11    1    3    3    0    0  0.29231959797E+01  0.27736596285E+02  0.40347335239E+01  0.28180541569E+02  0.51100000000E-03 0. -1.
         12    1    3    3    0    0  0.45835594626E+01  0.11050720490E+02  0.33479926253E+01  0.12423224030E+02  0.00000000000E+00 0. -1.
</event>
<event>
 7    1  0.1563903E-008  0.4614232E+02  0.7816164E-02  0.1320468E+00
        -11   -1    0    0    0    0  0.00000000000E+00  0.00000000000E+00  0.45593999997E+02  0.45594000000E+02  0.51100000000E-03 0. -1.
         11   -1    0    0    0    0 -0.00000000000E+00 -0.00000000000E+00 -0.45593999997E+02  0.45594000000E+02  0.51100000000E-03 0.  1.
    9900012    2    1    2    0    0  0.28495119187E+02 -0.68767203829E+01  0.34203106134E+02  0.46142316856E+02  0.99999917453E+01 0.  0.
        -12    1    1    2    0    0 -0.28495119187E+02  0.68767203829E+01 -0.34203106134E+02  0.45045683144E+02  0.00000000000E+00 0.  1.
         11    1    3    3    0    0  0.17745946985E+02 -0.17286419926E+01  0.17931337925E+02  0.25287145303E+02  0.51100000000E-03 0. -1.
        -11    1    3    3    0    0  0.30854257083E+01 -0.40308227309E+01  0.46169963477E+01  0.68617810535E+01  0.51100000000E-03 0.  1.
        -12    1    3    3    0    0  0.76637464932E+01 -0.11172556594E+01  0.11654771862E+02  0.13993390499E+02  0.00000000000E+00 0.  1.
</event>
<event>
 7    1  0.1563903E-008  0.4614231E+02  0.7816164E-02  0.1320468E+00
        -11   -1    0    0    0    0  0.00000000000E+00  0.00000000000E+00  0.45593999997E+02  0.45594000000E+02  0.51100000000E-03 0.  1.
         11   -1    0    0    0    0 -0.00000000000E+00 -0.00000000000E+00 -0.45593999997E+02  0.45594000000E+02  0.51100000000E-03 0. -1.
    9900012    2    1    2    0    0  0.26146557254E+02 -0.10850048638E+02 -0.35039240830E+02  0.46142307535E+02  0.99999067532E+01 0.  0.
        -12    1    1    2    0    0 -0.26146557254E+02  0.10850048638E+02  0.35039240830E+02  0.45045692465E+02  0.00000000000E+00 0.  1.
         11    1    3    3    0    0  0.19954206562E+02 -0.96474145566E+01 -0.27479960568E+02  0.35304266034E+02  0.51100000000E-03 0. -1.
        -11    1    3    3    0    0  0.17304955445E+01 -0.15749023741E+01 -0.37056670065E+00  0.23690192609E+01  0.51100000000E-03 0.  1.
        -12    1    3    3    0    0  0.44618551481E+01  0.37226829285E+00 -0.71887135609E+01  0.84690222402E+01  0.00000000000E+00 0.  1.
</event>
<event>
 7    1  0.1563903E-008  0.4614232E+02  0.7816164E-02  0.1320468E+00
        -11   -1    0    0    0    0  0.00000000000E+00  0.00000000000E+00  0.45593999997E+02  0.45594000000E+02  0.51100000000E-03 0.  1.
         11   -1    0    0    0    0 -0.00000000000E+00 -0.00000000000E+00 -0.45593999997E+02  0.45594000000E+02  0.51100000000E-03 0. -1.
    9900012    2    1    2    0    0  0.17322569782E+02 -0.23785102029E+02 -0.34107345037E+02  0.46142317767E+02  0.10000000053E+02 0.  0.
        -12    1    1    2    0    0 -0.17322569782E+02  0.23785102029E+02  0.34107345037E+02  0.45045682233E+02  0.00000000000E+00 0.  1.
         11    1    3    3    0    0  0.29776825958E+01 -0.10492175800E+02 -0.15166299187E+02  0.18680711387E+02  0.51100000000E-03 0. -1.
        -11    1    3    3    0    0  0.33360944826E+01 -0.21372199441E+01 -0.22116449139E+01  0.45374672420E+01  0.51100000000E-03 0.  1.
        -12    1    3    3    0    0  0.11008792703E+02 -0.11155706285E+02 -0.16729400936E+02  0.22924139137E+02  0.00000000000E+00 0.  1.
</event>
<event>
 7    1  0.1563903E-008  0.4614232E+02  0.7816164E-02  0.1320468E+00
        -11   -1    0    0    0    0  0.00000000000E+00  0.00000000000E+00  0.45593999997E+02  0.45594000000E+02  0.51100000000E-03 0. -1.
         11   -1    0    0    0    0 -0.00000000000E+00 -0.00000000000E+00 -0.45593999997E+02  0.45594000000E+02  0.51100000000E-03 0.  1.
    9900012    2    1    2    0    0 -0.35175208099E+02  0.21748134144E+02  0.17856004693E+02  0.46142317553E+02  0.99999981038E+01 0.  0.
        -12    1    1    2    0    0  0.35175208099E+02 -0.21748134144E+02 -0.17856004693E+02  0.45045682447E+02  0.00000000000E+00 0.  1.
         11    1    3    3    0    0 -0.22157967234E+02  0.17551688685E+02  0.89191108969E+01  0.29640982222E+02  0.51100000000E-03 0. -1.
        -11    1    3    3    0    0 -0.73590575713E+01  0.13508629069E+01  0.55771115621E+01  0.93319200901E+01  0.51100000000E-03 0.  1.
        -12    1    3    3    0    0 -0.56581832930E+01  0.28455825520E+01  0.33597822336E+01  0.71694152408E+01  0.00000000000E+00 0.  1.
</event>
<event>
 7    1  0.1563903E-008  0.4614232E+02  0.7816164E-02  0.1320468E+00
        -11   -1    0    0    0    0  0.00000000000E+00  0.00000000000E+00  0.45593999997E+02  0.45594000000E+02  0.51100000000E-03 0. -1.
         11   -1    0    0    0    0 -0.00000000000E+00 -0.00000000000E+00 -0.45593999997E+02  0.45594000000E+02  0.51100000000E-03 0.  1.
    9900012    2    1    2    0    0  0.10574047911E+02 -0.34796814581E+02  0.26579779164E+02  0.46142318136E+02  0.10000003419E+02 0.  0.
        -12    1    1    2    0    0 -0.10574047911E+02  0.34796814581E+02 -0.26579779164E+02  0.45045681864E+02  0.00000000000E+00 0.  1.
         11    1    3    3    0    0  0.51016988402E+01 -0.28689257911E+02  0.19487342722E+02  0.35055062077E+02  0.51100000000E-03 0. -1.
        -11    1    3    3    0    0  0.43015052562E+01 -0.31309670968E+01  0.45733756663E+01  0.70158155389E+01  0.51100000000E-03 0.  1.
        -12    1    3    3    0    0  0.11708438148E+01 -0.29765895724E+01  0.25190607755E+01  0.40714405205E+01  0.00000000000E+00 0.  1.
</event>
<event>
 7    1  0.1563903E-008  0.4614232E+02  0.7816164E-02  0.1320468E+00
        -11   -1    0    0    0    0  0.00000000000E+00  0.00000000000E+00  0.45593999997E+02  0.45594000000E+02  0.51100000000E-03 0. -1.
         11   -1    0    0    0    0 -0.00000000000E+00 -0.00000000000E+00 -0.45593999997E+02  0.45594000000E+02  0.51100000000E-03 0.  1.
    9900012    2    1    2    0    0  0.21459535025E+02  0.23082051691E+02  0.32184167221E+02  0.46142319037E+02  0.10000011630E+02 0.  0.
        -12    1    1    2    0    0 -0.21459535025E+02 -0.23082051691E+02 -0.32184167221E+02  0.45045680963E+02  0.00000000000E+00 0.  1.
         11    1    3    3    0    0  0.12169089544E+02  0.84584163376E+01  0.16292312525E+02  0.22024327344E+02  0.51100000000E-03 0. -1.
        -11    1    3    3    0    0  0.14782568027E+01  0.33768357793E+01  0.86267670373E+00  0.37858254597E+01  0.51100000000E-03 0.  1.
        -12    1    3    3    0    0  0.78121886785E+01  0.11246799574E+02  0.15029177992E+02  0.20332166233E+02  0.00000000000E+00 0.  1.
</event>
<event>
 7    1  0.1563903E-008  0.4614232E+02  0.7816164E-02  0.1320468E+00
        -11   -1    0    0    0    0  0.00000000000E+00  0.00000000000E+00  0.45593999997E+02  0.45594000000E+02  0.51100000000E-03 0.  1.
         11   -1    0    0    0    0 -0.00000000000E+00 -0.00000000000E+00 -0.45593999997E+02  0.45594000000E+02  0.51100000000E-03 0. -1.
    9900012    2    1    2    0    0  0.37610920515E+01 -0.20575003586E+02 -0.39895324687E+02  0.46142317434E+02  0.99999970165E+01 0.  0.
        -12    1    1    2    0    0 -0.37610920515E+01  0.20575003586E+02  0.39895324687E+02  0.45045682566E+02  0.00000000000E+00 0.  1.
         11    1    3    3    0    0  0.48170080809E+00 -0.12335718027E+01 -0.11662187769E+02  0.11737135889E+02  0.51100000000E-03 0. -1.
        -11    1    3    3    0    0  0.32887300962E+01 -0.16706813082E+02 -0.24508501691E+02  0.29842922183E+02  0.51100000000E-03 0.  1.
         12    1    3    3    0    0 -0.93388527342E-02 -0.26346187005E+01 -0.37246352270E+01  0.45622593620E+01  0.00000000000E+00 0. -1.
</event>
<event>
 7    1  0.1563903E-008  0.4614232E+02  0.7816164E-02  0.1320468E+00
        -11   -1    0    0    0    0  0.00000000000E+00  0.00000000000E+00  0.45593999997E+02  0.45594000000E+02  0.51100000000E-03 0. -1.
         11   -1    0    0    0    0 -0.00000000000E+00 -0.00000000000E+00 -0.45593999997E+02  0.45594000000E+02  0.51100000000E-03 0.  1.
    9900012    2    1    2    0    0  0.38808327797E+02 -0.20773467298E+02  0.95650548705E+01  0.46142317358E+02  0.99999963285E+01 0.  0.
        -12    1    1    2    0    0 -0.38808327797E+02  0.20773467298E+02 -0.95650548705E+01  0.45045682642E+02  0.00000000000E+00 0.  1.
         11    1    3    3    0    0  0.12088540015E+02 -0.90657835402E+01  0.92443000864E+00  0.15138553497E+02  0.51100000000E-03 0. -1.
        -11    1    3    3    0    0  0.24711750321E+02 -0.10787113928E+02  0.61147090747E+01  0.27648184355E+02  0.51100000000E-03 0.  1.
        -12    1    3    3    0    0  0.20080374609E+01 -0.92056983042E+00  0.25259157872E+01  0.33555795060E+01  0.00000000000E+00 0.  1.
</event>
<event>
 7    1  0.1563903E-008  0.4614232E+02  0.7816164E-02  0.1320468E+00
        -11   -1    0    0    0    0  0.00000000000E+00  0.00000000000E+00  0.45593999997E+02  0.45594000000E+02  0.51100000000E-03 0.  1.
         11   -1    0    0    0    0 -0.00000000000E+00 -0.00000000000E+00 -0.45593999997E+02  0.45594000000E+02  0.51100000000E-03 0. -1.
    9900012    2    1    2    0    0  0.26132916043E+02  0.20562076697E+02 -0.30387254250E+02  0.46142317411E+02  0.99999968113E+01 0.  0.
        -12    1    1    2    0    0 -0.26132916043E+02 -0.20562076697E+02  0.30387254250E+02  0.45045682589E+02  0.00000000000E+00 0.  1.
         11    1    3    3    0    0  0.15643326790E+01  0.10564334735E+01 -0.10555367114E+01  0.21627173706E+01  0.51100000000E-03 0. -1.
        -11    1    3    3    0    0  0.45685877013E+01  0.76120901932E+01 -0.45145278633E+01  0.99597626871E+01  0.51100000000E-03 0.  1.
        -12    1    3    3    0    0  0.19999995663E+02  0.11893553031E+02 -0.24817189675E+02  0.34019837354E+02  0.00000000000E+00 0.  1.
</event>
<event>
 7    1  0.1563903E-008  0.4614232E+02  0.7816164E-02  0.1320468E+00
        -11   -1    0    0    0    0  0.00000000000E+00  0.00000000000E+00  0.45593999997E+02  0.45594000000E+02  0.51100000000E-03 0. -1.
         11   -1    0    0    0    0 -0.00000000000E+00 -0.00000000000E+00 -0.45593999997E+02  0.45594000000E+02  0.51100000000E-03 0.  1.
    9900012    2    1    2    0    0 -0.38183302036E+02 -0.21432223308E+02 -0.10573958144E+02  0.46142319396E+02  0.10000014904E+02 0.  0.
        -12    1    1    2    0    0  0.38183302036E+02  0.21432223308E+02  0.10573958144E+02  0.45045680604E+02  0.00000000000E+00 0.  1.
         11    1    3    3    0    0 -0.29416429984E+02 -0.19575410292E+02 -0.96267155558E+01  0.36622352379E+02  0.51100000000E-03 0. -1.
        -11    1    3    3    0    0 -0.34024026662E+01  0.77373233117E+00 -0.54664496922E+00  0.35318304896E+01  0.51100000000E-03 0.  1.
         12    1    3    3    0    0 -0.53644693863E+01 -0.26305453465E+01 -0.40059761863E+00  0.59881365272E+01  0.00000000000E+00 0. -1.
</event>
<event>
 7    1  0.1563903E-008  0.4614232E+02  0.7816164E-02  0.1320468E+00
        -11   -1    0    0    0    0  0.00000000000E+00  0.00000000000E+00  0.45593999997E+02  0.45594000000E+02  0.51100000000E-03 0.  1.
         11   -1    0    0    0    0 -0.00000000000E+00 -0.00000000000E+00 -0.45593999997E+02  0.45594000000E+02  0.51100000000E-03 0. -1.
    9900012    2    1    2    0    0 -0.39189900574E+02  0.19179143146E+02 -0.11199357818E+02  0.46142318139E+02  0.10000003445E+02 0.  0.
        -12    1    1    2    0    0  0.39189900574E+02 -0.19179143146E+02  0.11199357818E+02  0.45045681861E+02  0.00000000000E+00 0.  1.
         11    1    3    3    0    0 -0.92981573997E+01  0.38526879855E+01  0.29753017795E+00  0.10069134035E+02  0.51100000000E-03 0. -1.
        -11    1    3    3    0    0 -0.43618265423E+01  0.46279931272E+01 -0.35059414599E+01  0.72619196465E+01  0.51100000000E-03 0.  1.
         12    1    3    3    0    0 -0.25529916632E+02  0.10698462033E+02 -0.79909465360E+01  0.28811264458E+02  0.00000000000E+00 0. -1.
</event>
<event>
 7    1  0.1563903E-008  0.4614232E+02  0.7816164E-02  0.1320468E+00
        -11   -1    0    0    0    0  0.00000000000E+00  0.00000000000E+00  0.45593999997E+02  0.45594000000E+02  0.51100000000E-03 0.  1.
         11   -1    0    0    0    0 -0.00000000000E+00 -0.00000000000E+00 -0.45593999997E+02  0.45594000000E+02  0.51100000000E-03 0. -1.
    9900012    2    1    2    0    0  0.41664100766E+02  0.41706990189E+01 -0.16607873084E+02  0.46142317950E+02  0.10000001725E+02 0.  0.
        -12    1    1    2    0    0 -0.41664100766E+02 -0.41706990189E+01  0.16607873084E+02  0.45045682050E+02  0.00000000000E+00 0.  1.
         11    1    3    3    0    0  0.30155090801E+02  0.18458261523E+01 -0.11663850823E+02  0.32384903762E+02  0.51100000000E-03 0. -1.
        -11    1    3    3    0    0  0.10918326392E+01  0.17536170585E+01  0.28876983236E+00  0.20858234769E+01  0.51100000000E-03 0.  1.
        -12    1    3    3    0    0  0.10417177326E+02  0.57125580813E+00 -0.52327920936E+01  0.11671590712E+02  0.00000000000E+00 0.  1.
</event>
<event>
 7    1  0.1563903E-008  0.4614232E+02  0.7816164E-02  0.1320468E+00
        -11   -1    0    0    0    0  0.00000000000E+00  0.00000000000E+00  0.45593999997E+02  0.45594000000E+02  0.51100000000E-03 0.  1.
         11   -1    0    0    0    0 -0.00000000000E+00 -0.00000000000E+00 -0.45593999997E+02  0.45594000000E+02  0.51100000000E-03 0. -1.
    9900012    2    1    2    0    0  0.10228000267E+02 -0.17627421218E+02 -0.40171825101E+02  0.46142317630E+02  0.99999988057E+01 0.  0.
        -12    1    1    2    0    0 -0.10228000267E+02  0.17627421218E+02  0.40171825101E+02  0.45045682370E+02  0.00000000000E+00 0.  1.
         11    1    3    3    0    0 -0.15833351130E+00  0.48257842719E+00 -0.65223245132E+01  0.65420691494E+01  0.51100000000E-03 0.  1.
        -11    1    3    3    0    0  0.68168857239E+01 -0.11722135158E+02 -0.21960610141E+02  0.25809819481E+02  0.51100000000E-03 0. -1.
        -12    1    3    3    0    0  0.35694480544E+01 -0.63878644874E+01 -0.11688890447E+02  0.13790429000E+02  0.00000000000E+00 0.  1.
</event>
<event>
 7    1  0.1563903E-008  0.4614232E+02  0.7816164E-02  0.1320468E+00
        -11   -1    0    0    0    0  0.00000000000E+00  0.00000000000E+00  0.45593999997E+02  0.45594000000E+02  0.51100000000E-03 0.  1.
         11   -1    0    0    0    0 -0.00000000000E+00 -0.00000000000E+00 -0.45593999997E+02  0.45594000000E+02  0.51100000000E-03 0. -1.
    9900012    2    1    2    0    0 -0.17299072837E+02 -0.39993334390E+02 -0.11418792838E+02  0.46142317116E+02  0.99999941162E+01 0.  0.
        -12    1    1    2    0    0  0.17299072837E+02  0.39993334390E+02  0.11418792838E+02  0.45045682884E+02  0.00000000000E+00 0.  1.
         11    1    3    3    0    0 -0.12716167268E+02 -0.33279139387E+02 -0.11873775067E+02  0.37552477454E+02  0.51100000000E-03 0. -1.
        -11    1    3    3    0    0 -0.48027850751E+01 -0.67295037312E+01  0.22407290374E+00  0.82706211298E+01  0.51100000000E-03 0.  1.
        -12    1    3    3    0    0  0.21987950631E+00  0.15308728609E-01  0.23090932557E+00  0.31921853189E+00  0.00000000000E+00 0.  1.
</event>
<event>
 7    1  0.1563903E-008  0.4614232E+02  0.7816164E-02  0.1320468E+00
        -11   -1    0    0    0    0  0.00000000000E+00  0.00000000000E+00  0.45593999997E+02  0.45594000000E+02  0.51100000000E-03 0.  1.
         11   -1    0    0    0    0 -0.00000000000E+00 -0.00000000000E+00 -0.45593999997E+02  0.45594000000E+02  0.51100000000E-03 0. -1.
    9900012    2    1    2    0    0 -0.33856900096E+02 -0.21807035024E+02 -0.20181105141E+02  0.46142318016E+02  0.10000002327E+02 0.  0.
        -12    1    1    2    0    0  0.33856900096E+02  0.21807035024E+02  0.20181105141E+02  0.45045681984E+02  0.00000000000E+00 0.  1.
         11    1    3    3    0    0 -0.17112574462E+02 -0.12217138722E+02 -0.12488509163E+02  0.24455296863E+02  0.51100000000E-03 0. -1.
        -11    1    3    3    0    0 -0.16570596303E+02 -0.79594652107E+01 -0.60172691396E+01  0.19342835274E+02  0.51100000000E-03 0.  1.
        -12    1    3    3    0    0 -0.17372933177E+00 -0.16304310915E+01 -0.16753268384E+01  0.23441858801E+01  0.00000000000E+00 0.  1.
</event>
<event>
 7    1  0.1563903E-008  0.4614232E+02  0.7816164E-02  0.1320468E+00
        -11   -1    0    0    0    0  0.00000000000E+00  0.00000000000E+00  0.45593999997E+02  0.45594000000E+02  0.51100000000E-03 0.  1.
         11   -1    0    0    0    0 -0.00000000000E+00 -0.00000000000E+00 -0.45593999997E+02  0.45594000000E+02  0.51100000000E-03 0. -1.
    9900012    2    1    2    0    0  0.17620860231E+02 -0.15753698027E+02 -0.38346312137E+02  0.46142319060E+02  0.10000011847E+02 0.  0.
        -12    1    1    2    0    0 -0.17620860231E+02  0.15753698027E+02  0.38346312137E+02  0.45045680940E+02  0.00000000000E+00 0.  1.
         11    1    3    3    0    0  0.66442056270E+01 -0.84284240074E+01 -0.18424300703E+02  0.21322257299E+02  0.51100000000E-03 0. -1.
        -11    1    3    3    0    0  0.30080690863E+00 -0.18587233184E+01 -0.42666219266E+00  0.19306418773E+01  0.51100000000E-03 0.  1.
        -12    1    3    3    0    0  0.10675847695E+02 -0.54665507010E+01 -0.19495349242E+02  0.22889419884E+02  0.00000000000E+00 0.  1.
</event>
<event>
 7    1  0.1563903E-008  0.4614232E+02  0.7816164E-02  0.1320468E+00
        -11   -1    0    0    0    0  0.00000000000E+00  0.00000000000E+00  0.45593999997E+02  0.45594000000E+02  0.51100000000E-03 0.  1.
         11   -1    0    0    0    0 -0.00000000000E+00 -0.00000000000E+00 -0.45593999997E+02  0.45594000000E+02  0.51100000000E-03 0. -1.
    9900012    2    1    2    0    0 -0.29302677582E+02 -0.11863673497E+02 -0.32089247974E+02  0.46142317655E+02  0.99999990363E+01 0.  0.
        -12    1    1    2    0    0  0.29302677582E+02  0.11863673497E+02  0.32089247974E+02  0.45045682345E+02  0.00000000000E+00 0.  1.
         11    1    3    3    0    0 -0.16002614753E+02 -0.10332934797E+02 -0.14177795748E+02  0.23745802008E+02  0.51100000000E-03 0. -1.
        -11    1    3    3    0    0 -0.42859703704E+01 -0.43101560880E+00 -0.67533653666E+01  0.80101972827E+01  0.51100000000E-03 0.  1.
         12    1    3    3    0    0 -0.90140924588E+01 -0.10997230909E+01 -0.11158086859E+02  0.14386318365E+02  0.00000000000E+00 0. -1.
</event>
<event>
 7    1  0.1563903E-008  0.4614232E+02  0.7816164E-02  0.1320468E+00
        -11   -1    0    0    0    0  0.00000000000E+00  0.00000000000E+00  0.45593999997E+02  0.45594000000E+02  0.51100000000E-03 0. -1.
         11   -1    0    0    0    0 -0.00000000000E+00 -0.00000000000E+00 -0.45593999997E+02  0.45594000000E+02  0.51100000000E-03 0.  1.
    9900012    2    1    2    0    0 -0.21191109435E+01 -0.15978241916E+02  0.42063271471E+02  0.46142315936E+02  0.99999833579E+01 0.  0.
        -12    1    1    2    0    0  0.21191109435E+01  0.15978241916E+02 -0.42063271471E+02  0.45045684064E+02  0.00000000000E+00 0.  1.
         11    1    3    3    0    0 -0.96583637851E+00 -0.15128291611E+02  0.33802002018E+02  0.37045558271E+02  0.51100000000E-03 0. -1.
        -11    1    3    3    0    0 -0.42057650291E+00 -0.16004658557E+01  0.14348926826E+01  0.21902723168E+01  0.51100000000E-03 0.  1.
         12    1    3    3    0    0 -0.73269806212E+00  0.75051555031E+00  0.68263767710E+01  0.69064853479E+01  0.00000000000E+00 0. -1.
</event>
<event>
 7    1  0.1563903E-008  0.4614232E+02  0.7816164E-02  0.1320468E+00
        -11   -1    0    0    0    0  0.00000000000E+00  0.00000000000E+00  0.45593999997E+02  0.45594000000E+02  0.51100000000E-03 0. -1.
         11   -1    0    0    0    0 -0.00000000000E+00 -0.00000000000E+00 -0.45593999997E+02  0.45594000000E+02  0.51100000000E-03 0.  1.
    9900012    2    1    2    0    0  0.43373691162E+02 -0.10148665860E+02 -0.66963318362E+01  0.46142319144E+02  0.10000012607E+02 0.  0.
        -12    1    1    2    0    0 -0.43373691162E+02  0.10148665860E+02  0.66963318362E+01  0.45045680856E+02  0.00000000000E+00 0.  1.
         11    1    3    3    0    0  0.22265371015E+02 -0.94666766071E+01 -0.21822644156E+01  0.24292529524E+02  0.51100000000E-03 0. -1.
        -11    1    3    3    0    0  0.12912975273E+02 -0.68193498896E-01 -0.43623146561E+01  0.13630090615E+02  0.51100000000E-03 0.  1.
        -12    1    3    3    0    0  0.81953448735E+01 -0.61379575394E+00 -0.15175276450E+00  0.82196990045E+01  0.00000000000E+00 0.  1.
</event>
<event>
 7    1  0.1563903E-008  0.4614232E+02  0.7816164E-02  0.1320468E+00
        -11   -1    0    0    0    0  0.00000000000E+00  0.00000000000E+00  0.45593999997E+02  0.45594000000E+02  0.51100000000E-03 0.  1.
         11   -1    0    0    0    0 -0.00000000000E+00 -0.00000000000E+00 -0.45593999997E+02  0.45594000000E+02  0.51100000000E-03 0. -1.
    9900012    2    1    2    0    0 -0.21610596865E+02 -0.41855386020E+01 -0.39301105056E+02  0.46142317755E+02  0.99999999455E+01 0.  0.
        -12    1    1    2    0    0  0.21610596865E+02  0.41855386020E+01  0.39301105056E+02  0.45045682245E+02  0.00000000000E+00 0.  1.
         11    1    3    3    0    0 -0.34856513123E+01 -0.30122743027E+01 -0.82256125969E+01  0.94278451621E+01  0.51100000000E-03 0.  1.
        -11    1    3    3    0    0 -0.11873280750E+02 -0.17175172217E+01 -0.13541452367E+02  0.18091312656E+02  0.51100000000E-03 0. -1.
        -12    1    3    3    0    0 -0.62516648032E+01  0.54425292237E+00 -0.17534040093E+02  0.18623159937E+02  0.00000000000E+00 0.  1.
</event>
<event>
 7    1  0.1563903E-008  0.4614232E+02  0.7816164E-02  0.1320468E+00
        -11   -1    0    0    0    0  0.00000000000E+00  0.00000000000E+00  0.45593999997E+02  0.45594000000E+02  0.51100000000E-03 0.  1.
         11   -1    0    0    0    0 -0.00000000000E+00 -0.00000000000E+00 -0.45593999997E+02  0.45594000000E+02  0.51100000000E-03 0. -1.
    9900012    2    1    2    0    0 -0.82207033532E+01 -0.87815046543E+01 -0.43409892122E+02  0.46142317392E+02  0.99999966324E+01 0.  0.
        -12    1    1    2    0    0  0.82207033532E+01  0.87815046543E+01  0.43409892122E+02  0.45045682608E+02  0.00000000000E+00 0.  1.
         11    1    3    3    0    0  0.26280922763E+00 -0.78333934905E+00 -0.82891009092E+01  0.83301790719E+01  0.51100000000E-03 0. -1.
        -11    1    3    3    0    0 -0.96711691671E+01 -0.80523078335E+01 -0.29588555746E+02  0.32153597091E+02  0.51100000000E-03 0.  1.
        -12    1    3    3    0    0  0.11876565863E+01  0.54142528213E-01 -0.55322354665E+01  0.56585412287E+01  0.00000000000E+00 0.  1.
</event>
<event>
 7    1  0.2507901E-008  0.4614232E+02  0.7816164E-02  0.1320468E+00
        -11   -1    0    0    0    0  0.00000000000E+00  0.00000000000E+00  0.45593999997E+02  0.45594000000E+02  0.51100000000E-03 0. -1.
         11   -1    0    0    0    0 -0.00000000000E+00 -0.00000000000E+00 -0.45593999997E+02  0.45594000000E+02  0.51100000000E-03 0.  1.
    9900012    2    1    2    0    0  0.40093109796E+02 -0.17969302971E+02  0.99378157024E+01  0.46142317817E+02  0.10000000509E+02 0.  0.
        -12    1    1    2    0    0 -0.40093109796E+02  0.17969302971E+02 -0.99378157024E+01  0.45045682183E+02  0.00000000000E+00 0.  1.
         11    1    3    3    0    0  0.20946917068E+02 -0.68972861159E+01  0.90031110007E+01  0.23820199378E+02  0.51100000000E-03 0. -1.
        -11    1    3    3    0    0  0.34836072639E+00 -0.52014139061E+00 -0.36748030701E+00  0.72590929122E+00  0.51100000000E-03 0.  1.
         12    1    3    3    0    0  0.18797832001E+02 -0.10551875465E+02  0.13021850087E+01  0.21596209148E+02  0.00000000000E+00 0. -1.
</event>
<event>
 7    1  0.1563903E-008  0.4614231E+02  0.7816164E-02  0.1320468E+00
        -11   -1    0    0    0    0  0.00000000000E+00  0.00000000000E+00  0.45593999997E+02  0.45594000000E+02  0.51100000000E-03 0.  1.
         11   -1    0    0    0    0 -0.00000000000E+00 -0.00000000000E+00 -0.45593999997E+02  0.45594000000E+02  0.51100000000E-03 0. -1.
    9900012    2    1    2    0    0 -0.58854431171E+01  0.84951365311E+01 -0.43844132822E+02  0.46142314654E+02  0.99999716703E+01 0.  0.
        -12    1    1    2    0    0  0.58854431171E+01 -0.84951365311E+01  0.43844132822E+02  0.45045685346E+02  0.00000000000E+00 0.  1.
         11    1    3    3    0    0 -0.15464628742E+01  0.47421105180E+01 -0.26061682075E+02  0.26534702418E+02  0.51100000000E-03 0. -1.
        -11    1    3    3    0    0 -0.43027266001E+01  0.50268998150E+01 -0.16595857061E+02  0.17866327261E+02  0.51100000000E-03 0.  1.
        -12    1    3    3    0    0 -0.36253642889E-01 -0.12738738019E+01 -0.11865936859E+01  0.17412849753E+01  0.00000000000E+00 0.  1.
</event>
<event>
 7    1  0.1563903E-008  0.4614232E+02  0.7816164E-02  0.1320468E+00
        -11   -1    0    0    0    0  0.00000000000E+00  0.00000000000E+00  0.45593999997E+02  0.45594000000E+02  0.51100000000E-03 0.  1.
         11   -1    0    0    0    0 -0.00000000000E+00 -0.00000000000E+00 -0.45593999997E+02  0.45594000000E+02  0.51100000000E-03 0. -1.
    9900012    2    1    2    0    0 -0.32177110369E+01  0.68347844889E+01 -0.44407720303E+02  0.46142316901E+02  0.99999921597E+01 0.  0.
        -12    1    1    2    0    0  0.32177110369E+01 -0.68347844889E+01  0.44407720303E+02  0.45045683099E+02  0.00000000000E+00 0.  1.
         11    1    3    3    0    0 -0.33871357453E+01  0.14751726318E+01 -0.22948036613E+02  0.23243519688E+02  0.51100000000E-03 0. -1.
        -11    1    3    3    0    0  0.29816946397E+01  0.19479155029E+01 -0.91051717838E+01  0.97769643144E+01  0.51100000000E-03 0.  1.
        -12    1    3    3    0    0 -0.28122699313E+01  0.34116963542E+01 -0.12354511906E+02  0.13121832898E+02  0.00000000000E+00 0.  1.
</event>
<event>
 7    1  0.1563903E-008  0.4614231E+02  0.7816164E-02  0.1320468E+00
        -11   -1    0    0    0    0  0.00000000000E+00  0.00000000000E+00  0.45593999997E+02  0.45594000000E+02  0.51100000000E-03 0.  1.
         11   -1    0    0    0    0 -0.00000000000E+00 -0.00000000000E+00 -0.45593999997E+02  0.45594000000E+02  0.51100000000E-03 0. -1.
    9900012    2    1    2    0    0 -0.43620130783E+01  0.29834132121E+02 -0.33466569289E+02  0.46142313664E+02  0.99999626431E+01 0.  0.
        -12    1    1    2    0    0  0.43620130783E+01 -0.29834132121E+02  0.33466569289E+02  0.45045686336E+02  0.00000000000E+00 0.  1.
         11    1    3    3    0    0 -0.17106655770E+00  0.32419766147E+01 -0.77017780863E+00  0.33365926116E+01  0.51100000000E-03 0. -1.
        -11    1    3    3    0    0 -0.49953033087E+01  0.21019172855E+02 -0.22734698842E+02  0.31362799849E+02  0.51100000000E-03 0.  1.
        -12    1    3    3    0    0  0.80435678805E+00  0.55729826511E+01 -0.99616926379E+01  0.11442921204E+02  0.00000000000E+00 0.  1.
</event>
<event>
 7    1  0.1563903E-008  0.4614232E+02  0.7816164E-02  0.1320468E+00
        -11   -1    0    0    0    0  0.00000000000E+00  0.00000000000E+00  0.45593999997E+02  0.45594000000E+02  0.51100000000E-03 0. -1.
         11   -1    0    0    0    0 -0.00000000000E+00 -0.00000000000E+00 -0.45593999997E+02  0.45594000000E+02  0.51100000000E-03 0.  1.
    9900012    2    1    2    0    0 -0.38773590964E+02  0.77552992676E+01  0.21577241692E+02  0.46142318942E+02  0.10000010765E+02 0.  0.
        -12    1    1    2    0    0  0.38773590964E+02 -0.77552992676E+01 -0.21577241692E+02  0.45045681058E+02  0.00000000000E+00 0.  1.
         11    1    3    3    0    0 -0.11940913976E+01  0.39973635971E+00  0.33856591151E+01  0.36122474068E+01  0.51100000000E-03 0. -1.
        -11    1    3    3    0    0 -0.37592728778E+02  0.72570838660E+01  0.18250939155E+02  0.42414328988E+02  0.51100000000E-03 0.  1.
        -12    1    3    3    0    0  0.13229211683E-01  0.98479041956E-01 -0.59356578120E-01  0.11574254668E+00  0.00000000000E+00 0.  1.
</event>
<event>
 7    1  0.1563903E-008  0.4614232E+02  0.7816164E-02  0.1320468E+00
        -11   -1    0    0    0    0  0.00000000000E+00  0.00000000000E+00  0.45593999997E+02  0.45594000000E+02  0.51100000000E-03 0.  1.
         11   -1    0    0    0    0 -0.00000000000E+00 -0.00000000000E+00 -0.45593999997E+02  0.45594000000E+02  0.51100000000E-03 0. -1.
    9900012    2    1    2    0    0 -0.26796968374E+02  0.79273563553E+01 -0.35329774668E+02  0.46142317955E+02  0.10000001766E+02 0.  0.
        -12    1    1    2    0    0  0.26796968374E+02 -0.79273563553E+01  0.35329774668E+02  0.45045682045E+02  0.00000000000E+00 0.  1.
         11    1    3    3    0    0 -0.11246287666E+02  0.42572434015E+01 -0.20637025702E+02  0.23884931185E+02  0.51100000000E-03 0. -1.
        -11    1    3    3    0    0 -0.94775868419E+01 -0.20141523257E+00 -0.90759637551E+01  0.13123960484E+02  0.51100000000E-03 0.  1.
        -12    1    3    3    0    0 -0.60730938661E+01  0.38715281864E+01 -0.56167852113E+01  0.91334262856E+01  0.00000000000E+00 0.  1.
</event>
<event>
 7    1  0.1563903E-008  0.4614232E+02  0.7816164E-02  0.1320468E+00
        -11   -1    0    0    0    0  0.00000000000E+00  0.00000000000E+00  0.45593999997E+02  0.45594000000E+02  0.51100000000E-03 0.  1.
         11   -1    0    0    0    0 -0.00000000000E+00 -0.00000000000E+00 -0.45593999997E+02  0.45594000000E+02  0.51100000000E-03 0. -1.
    9900012    2    1    2    0    0  0.25106188941E+02 -0.72659225568E+01 -0.36687860855E+02  0.46142317767E+02  0.10000000053E+02 0.  0.
        -12    1    1    2    0    0 -0.25106188941E+02  0.72659225568E+01  0.36687860855E+02  0.45045682233E+02  0.00000000000E+00 0.  1.
         11    1    3    3    0    0  0.94572468613E+01 -0.22931205473E+01 -0.98456952460E+01  0.13843252334E+02  0.51100000000E-03 0. -1.
        -11    1    3    3    0    0  0.11959921864E+02 -0.44106906520E+00 -0.15979443177E+02  0.19964390234E+02  0.51100000000E-03 0.  1.
        -12    1    3    3    0    0  0.36890202153E+01 -0.45317329443E+01 -0.10862722432E+02  0.12334675199E+02  0.00000000000E+00 0.  1.
</event>
<event>
 7    1  0.1563903E-008  0.4614231E+02  0.7816164E-02  0.1320468E+00
        -11   -1    0    0    0    0  0.00000000000E+00  0.00000000000E+00  0.45593999997E+02  0.45594000000E+02  0.51100000000E-03 0.  1.
         11   -1    0    0    0    0 -0.00000000000E+00 -0.00000000000E+00 -0.45593999997E+02  0.45594000000E+02  0.51100000000E-03 0. -1.
    9900012    2    1    2    0    0 -0.20165323653E+02  0.45084093381E+01 -0.40026840974E+02  0.46142311737E+02  0.99999450638E+01 0.  0.
        -12    1    1    2    0    0  0.20165323653E+02 -0.45084093381E+01  0.40026840974E+02  0.45045688263E+02  0.00000000000E+00 0.  1.
         11    1    3    3    0    0 -0.11942002457E+02  0.31760986549E+01 -0.22437943354E+02  0.25615626628E+02  0.51100000000E-03 0. -1.
        -11    1    3    3    0    0 -0.29125598941E+01  0.31344018755E+01 -0.41330733332E+01  0.59489306343E+01  0.51100000000E-03 0.  1.
        -12    1    3    3    0    0 -0.53107613021E+01 -0.18020911923E+01 -0.13455824287E+02  0.14577754474E+02  0.00000000000E+00 0.  1.
</event>
<event>
 7    1  0.1563903E-008  0.4614232E+02  0.7816164E-02  0.1320468E+00
        -11   -1    0    0    0    0  0.00000000000E+00  0.00000000000E+00  0.45593999997E+02  0.45594000000E+02  0.51100000000E-03 0.  1.
         11   -1    0    0    0    0 -0.00000000000E+00 -0.00000000000E+00 -0.45593999997E+02  0.45594000000E+02  0.51100000000E-03 0. -1.
    9900012    2    1    2    0    0 -0.36021104345E+02  0.23993947155E+02  0.12485351591E+02  0.46142318047E+02  0.10000002605E+02 0.  0.
        -12    1    1    2    0    0  0.36021104345E+02 -0.23993947155E+02 -0.12485351591E+02  0.45045681953E+02  0.00000000000E+00 0.  1.
         11    1    3    3    0    0 -0.20456322721E+02  0.13521984065E+02  0.41831703580E+01  0.24875773492E+02  0.51100000000E-03 0. -1.
        -11    1    3    3    0    0 -0.14834972205E+02  0.94096843495E+01  0.90654304519E+01  0.19768676977E+02  0.51100000000E-03 0.  1.
        -12    1    3    3    0    0 -0.72980941854E+00  0.10622787400E+01 -0.76324921917E+00  0.14978675774E+01  0.00000000000E+00 0.  1.
</event>
<event>
 7    1  0.1563903E-008  0.4614232E+02  0.7816164E-02  0.1320468E+00
        -11   -1    0    0    0    0  0.00000000000E+00  0.00000000000E+00  0.45593999997E+02  0.45594000000E+02  0.51100000000E-03 0.  1.
         11   -1    0    0    0    0 -0.00000000000E+00 -0.00000000000E+00 -0.45593999997E+02  0.45594000000E+02  0.51100000000E-03 0. -1.
    9900012    2    1    2    0    0 -0.11815439389E+02  0.36696616099E+01 -0.43313307522E+02  0.46142316158E+02  0.99999853839E+01 0.  0.
        -12    1    1    2    0    0  0.11815439389E+02 -0.36696616099E+01  0.43313307522E+02  0.45045683842E+02  0.00000000000E+00 0.  1.
         11    1    3    3    0    0 -0.11266607273E+02  0.98313160972E-02 -0.27645587677E+02  0.29853225192E+02  0.51100000000E-03 0. -1.
        -11    1    3    3    0    0 -0.30247737132E-01  0.38099596464E+01 -0.12245433573E+02  0.12824482488E+02  0.51100000000E-03 0.  1.
        -12    1    3    3    0    0 -0.51858437885E+00 -0.15012935263E+00 -0.34222862717E+01  0.34646084780E+01  0.00000000000E+00 0.  1.
</event>
<event>
 7    1  0.1563903E-008  0.4614232E+02  0.7816164E-02  0.1320468E+00
        -11   -1    0    0    0    0  0.00000000000E+00  0.00000000000E+00  0.45593999997E+02  0.45594000000E+02  0.51100000000E-03 0. -1.
         11   -1    0    0    0    0 -0.00000000000E+00 -0.00000000000E+00 -0.45593999997E+02  0.45594000000E+02  0.51100000000E-03 0.  1.
    9900012    2    1    2    0    0  0.44146715256E+01  0.79259928191E+01  0.44122586339E+02  0.46142319718E+02  0.10000017841E+02 0.  0.
        -12    1    1    2    0    0 -0.44146715256E+01 -0.79259928191E+01 -0.44122586339E+02  0.45045680282E+02  0.00000000000E+00 0.  1.
         11    1    3    3    0    0  0.11121288380E+01  0.26057968684E+01  0.28759461415E+02  0.28898678673E+02  0.51100000000E-03 0. -1.
        -11    1    3    3    0    0  0.18950886424E+01  0.73476938552E+00  0.13697278691E+01  0.24510001446E+01  0.51100000000E-03 0.  1.
        -12    1    3    3    0    0  0.14074540452E+01  0.45854265652E+01  0.13993397055E+02  0.14792640900E+02  0.00000000000E+00 0.  1.
</event>
<event>
 7    1  0.1563903E-008  0.4614232E+02  0.7816164E-02  0.1320468E+00
        -11   -1    0    0    0    0  0.00000000000E+00  0.00000000000E+00  0.45593999997E+02  0.45594000000E+02  0.51100000000E-03 0.  1.
         11   -1    0    0    0    0 -0.00000000000E+00 -0.00000000000E+00 -0.45593999997E+02  0.45594000000E+02  0.51100000000E-03 0. -1.
    9900012    2    1    2    0    0 -0.30537735664E+02  0.27867793544E+02 -0.17887042428E+02  0.46142317595E+02  0.99999984845E+01 0.  0.
        -12    1    1    2    0    0  0.30537735664E+02 -0.27867793544E+02  0.17887042428E+02  0.45045682405E+02  0.00000000000E+00 0.  1.
         11    1    3    3    0    0 -0.29777023746E+01 -0.88670148442E-02  0.34416433064E-01  0.29779145065E+01  0.51100000000E-03 0.  1.
        -11    1    3    3    0    0 -0.65062156875E+01  0.55106165247E+01 -0.32606530962E+01  0.91285045835E+01  0.51100000000E-03 0. -1.
         12    1    3    3    0    0 -0.21053817602E+02  0.22366044034E+02 -0.14660805765E+02  0.34035898505E+02  0.00000000000E+00 0. -1.
</event>
<event>
 7    1  0.1563903E-008  0.4614232E+02  0.7816164E-02  0.1320468E+00
        -11   -1    0    0    0    0  0.00000000000E+00  0.00000000000E+00  0.45593999997E+02  0.45594000000E+02  0.51100000000E-03 0. -1.
         11   -1    0    0    0    0 -0.00000000000E+00 -0.00000000000E+00 -0.45593999997E+02  0.45594000000E+02  0.51100000000E-03 0.  1.
    9900012    2    1    2    0    0 -0.29040296877E+02  0.34263482345E+02  0.34334263409E+01  0.46142317837E+02  0.10000000693E+02 0.  0.
        -12    1    1    2    0    0  0.29040296877E+02 -0.34263482345E+02 -0.34334263409E+01  0.45045682163E+02  0.00000000000E+00 0.  1.
         11    1    3    3    0    0 -0.23426968248E+02  0.26797208527E+02  0.66607083852E+01  0.36211576361E+02  0.51100000000E-03 0. -1.
        -11    1    3    3    0    0 -0.27155753321E+01  0.37732557890E+01 -0.11009992316E+01  0.47774478754E+01  0.51100000000E-03 0.  1.
         12    1    3    3    0    0 -0.28977532966E+01  0.36930180290E+01 -0.21262828127E+01  0.51532936002E+01  0.00000000000E+00 0. -1.
</event>
<event>
 7    1  0.1563903E-008  0.4614232E+02  0.7816164E-02  0.1320468E+00
        -11   -1    0    0    0    0  0.00000000000E+00  0.00000000000E+00  0.45593999997E+02  0.45594000000E+02  0.51100000000E-03 0.  1.
         11   -1    0    0    0    0 -0.00000000000E+00 -0.00000000000E+00 -0.45593999997E+02  0.45594000000E+02  0.51100000000E-03 0. -1.
    9900012    2    1    2    0    0 -0.29624741222E+02  0.30699041577E+02 -0.14458803063E+02  0.46142318384E+02  0.10000005681E+02 0.  0.
        -12    1    1    2    0    0  0.29624741222E+02 -0.30699041577E+02  0.14458803063E+02  0.45045681616E+02  0.00000000000E+00 0.  1.
         11    1    3    3    0    0 -0.16183114566E+02  0.16197968197E+02 -0.12555844686E+02  0.26113533021E+02  0.51100000000E-03 0. -1.
        -11    1    3    3    0    0 -0.12954710333E+02  0.14509009960E+02 -0.18383911898E+01  0.19537542637E+02  0.51100000000E-03 0.  1.
         12    1    3    3    0    0 -0.48691632322E+00 -0.79365805653E-02 -0.64567186458E-01  0.49124272686E+00  0.00000000000E+00 0. -1.
</event>
<event>
 7    1  0.1563903E-008  0.4614232E+02  0.7816164E-02  0.1320468E+00
        -11   -1    0    0    0    0  0.00000000000E+00  0.00000000000E+00  0.45593999997E+02  0.45594000000E+02  0.51100000000E-03 0. -1.
         11   -1    0    0    0    0 -0.00000000000E+00 -0.00000000000E+00 -0.45593999997E+02  0.45594000000E+02  0.51100000000E-03 0.  1.
    9900012    2    1    2    0    0  0.15631517030E+02 -0.37626694076E+02 -0.19209401395E+02  0.46142317258E+02  0.99999954095E+01 0.  0.
        -12    1    1    2    0    0 -0.15631517030E+02  0.37626694076E+02  0.19209401395E+02  0.45045682742E+02  0.00000000000E+00 0.  1.
         11    1    3    3    0    0  0.19707702051E+01 -0.82666761691E+01 -0.77187358125E+01  0.11480450901E+02  0.51100000000E-03 0. -1.
        -11    1    3    3    0    0  0.64757901964E+01 -0.88297373220E+01 -0.37401570754E+01  0.11571036905E+02  0.51100000000E-03 0.  1.
         12    1    3    3    0    0  0.71849566290E+01 -0.20530280585E+02 -0.77505085071E+01  0.23090829452E+02  0.00000000000E+00 0. -1.
</event>
<event>
 7    1  0.1563903E-008  0.4614232E+02  0.7816164E-02  0.1320468E+00
        -11   -1    0    0    0    0  0.00000000000E+00  0.00000000000E+00  0.45593999997E+02  0.45594000000E+02  0.51100000000E-03 0. -1.
         11   -1    0    0    0    0 -0.00000000000E+00 -0.00000000000E+00 -0.45593999997E+02  0.45594000000E+02  0.51100000000E-03 0.  1.
    9900012    2    1    2    0    0  0.14164315015E+02 -0.36696052887E+01  0.42603047147E+02  0.46142318198E+02  0.10000003984E+02 0.  0.
        -12    1    1    2    0    0 -0.14164315015E+02  0.36696052887E+01 -0.42603047147E+02  0.45045681802E+02  0.00000000000E+00 0.  1.
         11    1    3    3    0    0  0.84094246180E+01 -0.35140662854E+01  0.16026193083E+02  0.18436538429E+02  0.51100000000E-03 0. -1.
        -11    1    3    3    0    0  0.34309880656E+01  0.15273246979E+01  0.21894330347E+02  0.22214096908E+02  0.51100000000E-03 0.  1.
        -12    1    3    3    0    0  0.23239023312E+01 -0.16828637012E+01  0.46825237165E+01  0.54916828602E+01  0.00000000000E+00 0.  1.
</event>
<event>
 7    1  0.1563903E-008  0.4614232E+02  0.7816164E-02  0.1320468E+00
        -11   -1    0    0    0    0  0.00000000000E+00  0.00000000000E+00  0.45593999997E+02  0.45594000000E+02  0.51100000000E-03 0. -1.
         11   -1    0    0    0    0 -0.00000000000E+00 -0.00000000000E+00 -0.45593999997E+02  0.45594000000E+02  0.51100000000E-03 0.  1.
    9900012    2    1    2    0    0 -0.10039422088E+02  0.35274811417E+02  0.26153606660E+02  0.46142318102E+02  0.10000003105E+02 0.  0.
        -12    1    1    2    0    0  0.10039422088E+02 -0.35274811417E+02 -0.26153606660E+02  0.45045681898E+02  0.00000000000E+00 0.  1.
         11    1    3    3    0    0 -0.72785095297E+01  0.19604047477E+02  0.19959188150E+02  0.28907863468E+02  0.51100000000E-03 0. -1.
        -11    1    3    3    0    0 -0.20471176459E+01  0.13223643131E+02  0.60385848382E+01  0.14680597244E+02  0.51100000000E-03 0.  1.
         12    1    3    3    0    0 -0.71379491269E+00  0.24471208094E+01  0.15583367131E+00  0.25538573896E+01  0.00000000000E+00 0. -1.
</event>
<event>
 7    1  0.1563903E-008  0.4614232E+02  0.7816164E-02  0.1320468E+00
        -11   -1    0    0    0    0  0.00000000000E+00  0.00000000000E+00  0.45593999997E+02  0.45594000000E+02  0.51100000000E-03 0.  1.
         11   -1    0    0    0    0 -0.00000000000E+00 -0.00000000000E+00 -0.45593999997E+02  0.45594000000E+02  0.51100000000E-03 0. -1.
    9900012    2    1    2    0    0  0.26727681015E+02 -0.17673657441E+02 -0.31660478549E+02  0.46142323163E+02  0.10000049256E+02 0.  0.
        -12    1    1    2    0    0 -0.26727681015E+02  0.17673657441E+02  0.31660478549E+02  0.45045676837E+02  0.00000000000E+00 0.  1.
         11    1    3    3    0    0  0.37855784723E+01 -0.64162498569E+01 -0.10228093675E+02  0.12653567366E+02  0.51100000000E-03 0. -1.
        -11    1    3    3    0    0  0.18785831300E+02 -0.97843048918E+01 -0.18992385854E+02  0.28449091383E+02  0.51100000000E-03 0.  1.
         12    1    3    3    0    0  0.41562712428E+01 -0.14731026928E+01 -0.24399990203E+01  0.50396644140E+01  0.00000000000E+00 0. -1.
</event>
<event>
 7    1  0.1563903E-008  0.4614232E+02  0.7816164E-02  0.1320468E+00
        -11   -1    0    0    0    0  0.00000000000E+00  0.00000000000E+00  0.45593999997E+02  0.45594000000E+02  0.51100000000E-03 0. -1.
         11   -1    0    0    0    0 -0.00000000000E+00 -0.00000000000E+00 -0.45593999997E+02  0.45594000000E+02  0.51100000000E-03 0.  1.
    9900012    2    1    2    0    0 -0.37710968311E+02  0.14240164516E+02  0.20105079025E+02  0.46142316311E+02  0.99999867760E+01 0.  0.
        -12    1    1    2    0    0  0.37710968311E+02 -0.14240164516E+02 -0.20105079025E+02  0.45045683689E+02  0.00000000000E+00 0.  1.
         11    1    3    3    0    0 -0.11589036059E+02  0.54227162840E+01  0.53847203560E+01  0.13881888281E+02  0.51100000000E-03 0. -1.
        -11    1    3    3    0    0 -0.63556416337E+01  0.57543615839E+01  0.30346077616E+01  0.90948173342E+01  0.51100000000E-03 0.  1.
        -12    1    3    3    0    0 -0.19766290618E+02  0.30630866477E+01  0.11685750908E+02  0.23165610696E+02  0.00000000000E+00 0.  1.
</event>
<event>
 7    1  0.1563903E-008  0.4614232E+02  0.7816164E-02  0.1320468E+00
        -11   -1    0    0    0    0  0.00000000000E+00  0.00000000000E+00  0.45593999997E+02  0.45594000000E+02  0.51100000000E-03 0.  1.
         11   -1    0    0    0    0 -0.00000000000E+00 -0.00000000000E+00 -0.45593999997E+02  0.45594000000E+02  0.51100000000E-03 0. -1.
    9900012    2    1    2    0    0 -0.16211415677E+00 -0.45045386037E+02  0.20013618870E-01  0.46142317801E+02  0.10000000365E+02 0.  0.
        -12    1    1    2    0    0  0.16211415677E+00  0.45045386037E+02 -0.20013618870E-01  0.45045682199E+02  0.00000000000E+00 0.  1.
         11    1    3    3    0    0  0.18461342745E+01 -0.40037674396E+02  0.13295664286E+01  0.40102260908E+02  0.51100000000E-03 0.  1.
        -11    1    3    3    0    0 -0.10053401178E+01 -0.79232641079E+00  0.45919882593E+00  0.13599094516E+01  0.51100000000E-03 0. -1.
        -12    1    3    3    0    0 -0.10029083135E+01 -0.42153852300E+01 -0.17687516357E+01  0.46801474412E+01  0.00000000000E+00 0.  1.
</event>
<event>
 7    1  0.1563903E-008  0.4614232E+02  0.7816164E-02  0.1320468E+00
        -11   -1    0    0    0    0  0.00000000000E+00  0.00000000000E+00  0.45593999997E+02  0.45594000000E+02  0.51100000000E-03 0. -1.
         11   -1    0    0    0    0 -0.00000000000E+00 -0.00000000000E+00 -0.45593999997E+02  0.45594000000E+02  0.51100000000E-03 0.  1.
    9900012    2    1    2    0    0  0.36591884952E+02 -0.22917933658E+02  0.12841956580E+02  0.46142316785E+02  0.99999910973E+01 0.  0.
        -12    1    1    2    0    0 -0.36591884952E+02  0.22917933658E+02 -0.12841956580E+02  0.45045683215E+02  0.00000000000E+00 0.  1.
         11    1    3    3    0    0  0.10464508355E+02 -0.86555649779E+01  0.26437380941E+01  0.13835248157E+02  0.51100000000E-03 0. -1.
        -11    1    3    3    0    0  0.23679020385E+02 -0.12090764975E+02  0.65030340873E+01  0.27371007594E+02  0.51100000000E-03 0.  1.
        -12    1    3    3    0    0  0.24483562120E+01 -0.21716037050E+01  0.36951843983E+01  0.49360610339E+01  0.00000000000E+00 0.  1.
</event>
<event>
 7    1  0.1563903E-008  0.4614232E+02  0.7816164E-02  0.1320468E+00
        -11   -1    0    0    0    0  0.00000000000E+00  0.00000000000E+00  0.45593999997E+02  0.45594000000E+02  0.51100000000E-03 0.  1.
         11   -1    0    0    0    0 -0.00000000000E+00 -0.00000000000E+00 -0.45593999997E+02  0.45594000000E+02  0.51100000000E-03 0. -1.
    9900012    2    1    2    0    0 -0.13131307540E+02  0.42659455172E+02 -0.60706849878E+01  0.46142316861E+02  0.99999917884E+01 0.  0.
        -12    1    1    2    0    0  0.13131307540E+02 -0.42659455172E+02  0.60706849878E+01  0.45045683139E+02  0.00000000000E+00 0.  1.
         11    1    3    3    0    0 -0.81436163745E+01  0.13838313305E+02 -0.12708406615E+01  0.16106906563E+02  0.51100000000E-03 0. -1.
        -11    1    3    3    0    0 -0.53674072474E+00  0.15039475433E+02 -0.11086272001E+01  0.15089829901E+02  0.51100000000E-03 0.  1.
        -12    1    3    3    0    0 -0.44509504407E+01  0.13781666434E+02 -0.36912171262E+01  0.14945580397E+02  0.00000000000E+00 0.  1.
</event>
<event>
 7    1  0.1563903E-008  0.4614231E+02  0.7816164E-02  0.1320468E+00
        -11   -1    0    0    0    0  0.00000000000E+00  0.00000000000E+00  0.45593999997E+02  0.45594000000E+02  0.51100000000E-03 0. -1.
         11   -1    0    0    0    0 -0.00000000000E+00 -0.00000000000E+00 -0.45593999997E+02  0.45594000000E+02  0.51100000000E-03 0.  1.
    9900012    2    1    2    0    0 -0.14821711860E+02  0.42493216294E+02 -0.19384510759E+01  0.46142310239E+02  0.99999314033E+01 0.  0.
        -12    1    1    2    0    0  0.14821711860E+02 -0.42493216294E+02  0.19384510759E+01  0.45045689761E+02  0.00000000000E+00 0.  1.
         11    1    3    3    0    0 -0.18128174046E+01  0.14764330918E+02  0.13319920741E+01  0.14934723886E+02  0.51100000000E-03 0. -1.
        -11    1    3    3    0    0 -0.86911415801E+01  0.13081881699E+02 -0.68997342335E+00  0.15720929818E+02  0.51100000000E-03 0.  1.
         12    1    3    3    0    0 -0.43177528758E+01  0.14647003677E+02 -0.25804697266E+01  0.15486656535E+02  0.00000000000E+00 0. -1.
</event>
<event>
 7    1  0.1563903E-008  0.4614232E+02  0.7816164E-02  0.1320468E+00
        -11   -1    0    0    0    0  0.00000000000E+00  0.00000000000E+00  0.45593999997E+02  0.45594000000E+02  0.51100000000E-03 0.  1.
         11   -1    0    0    0    0 -0.00000000000E+00 -0.00000000000E+00 -0.45593999997E+02  0.45594000000E+02  0.51100000000E-03 0. -1.
    9900012    2    1    2    0    0  0.67952242372E+01  0.43149407641E+02 -0.11003047237E+02  0.46142317624E+02  0.99999987500E+01 0.  0.
        -12    1    1    2    0    0 -0.67952242372E+01 -0.43149407641E+02  0.11003047237E+02  0.45045682376E+02  0.00000000000E+00 0.  1.
         11    1    3    3    0    0  0.26662139622E+01  0.21413627911E+02 -0.12098485331E+01  0.21612864015E+02  0.51100000000E-03 0. -1.
        -11    1    3    3    0    0  0.22790139237E+01  0.42435870879E+01 -0.29930207996E+01  0.56709884152E+01  0.51100000000E-03 0.  1.
        -12    1    3    3    0    0  0.18499963513E+01  0.17492192642E+02 -0.68001779041E+01  0.18858465194E+02  0.00000000000E+00 0.  1.
</event>
<event>
 7    1  0.1563903E-008  0.4614232E+02  0.7816164E-02  0.1320468E+00
        -11   -1    0    0    0    0  0.00000000000E+00  0.00000000000E+00  0.45593999997E+02  0.45594000000E+02  0.51100000000E-03 0.  1.
         11   -1    0    0    0    0 -0.00000000000E+00 -0.00000000000E+00 -0.45593999997E+02  0.45594000000E+02  0.51100000000E-03 0. -1.
    9900012    2    1    2    0    0  0.10177063869E+02  0.13284339541E+02 -0.41821849889E+02  0.46142318363E+02  0.10000005488E+02 0.  0.
        -12    1    1    2    0    0 -0.10177063869E+02 -0.13284339541E+02  0.41821849889E+02  0.45045681637E+02  0.00000000000E+00 0.  1.
         11    1    3    3    0    0  0.15593565025E+01  0.25925427551E+01 -0.40988179137E+01  0.50944262866E+01  0.51100000000E-03 0. -1.
        -11    1    3    3    0    0 -0.91177620134E+00 -0.80665363126E+00 -0.35908674816E+01  0.37916164698E+01  0.51100000000E-03 0.  1.
        -12    1    3    3    0    0  0.95294835681E+01  0.11498450417E+02 -0.34132164493E+02  0.37256275607E+02  0.00000000000E+00 0.  1.
</event>
<event>
 7    1  0.1563903E-008  0.4614232E+02  0.7816164E-02  0.1320468E+00
        -11   -1    0    0    0    0  0.00000000000E+00  0.00000000000E+00  0.45593999997E+02  0.45594000000E+02  0.51100000000E-03 0.  1.
         11   -1    0    0    0    0 -0.00000000000E+00 -0.00000000000E+00 -0.45593999997E+02  0.45594000000E+02  0.51100000000E-03 0. -1.
    9900012    2    1    2    0    0  0.33804406471E+02 -0.55621484026E+01 -0.29247872416E+02  0.46142318381E+02  0.10000005650E+02 0.  0.
        -12    1    1    2    0    0 -0.33804406471E+02  0.55621484026E+01  0.29247872416E+02  0.45045681619E+02  0.00000000000E+00 0.  1.
         11    1    3    3    0    0  0.95448715412E+01  0.77110244704E+00 -0.13215907835E+02  0.16320520577E+02  0.51100000000E-03 0. -1.
        -11    1    3    3    0    0  0.23039775855E+02 -0.55818390211E+01 -0.14951490993E+02  0.28027402332E+02  0.51100000000E-03 0.  1.
        -12    1    3    3    0    0  0.12197590743E+01 -0.75141182861E+00 -0.10804735871E+01  0.17943954714E+01  0.00000000000E+00 0.  1.
</event>
<event>
 7    1  0.1563903E-008  0.4614232E+02  0.7816164E-02  0.1320468E+00
        -11   -1    0    0    0    0  0.00000000000E+00  0.00000000000E+00  0.45593999997E+02  0.45594000000E+02  0.51100000000E-03 0.  1.
         11   -1    0    0    0    0 -0.00000000000E+00 -0.00000000000E+00 -0.45593999997E+02  0.45594000000E+02  0.51100000000E-03 0. -1.
    9900012    2    1    2    0    0  0.35662591248E+02 -0.12922267701E+02 -0.24296254742E+02  0.46142318614E+02  0.10000007775E+02 0.  0.
        -12    1    1    2    0    0 -0.35662591248E+02  0.12922267701E+02  0.24296254742E+02  0.45045681386E+02  0.00000000000E+00 0.  1.
         11    1    3    3    0    0  0.10251686673E+02 -0.63059882384E+01 -0.46514405203E+01  0.12903428477E+02  0.51100000000E-03 0. -1.
        -11    1    3    3    0    0  0.20130713601E+01 -0.19192800599E+01 -0.32888784554E+01  0.43072977613E+01  0.51100000000E-03 0.  1.
         12    1    3    3    0    0  0.23397833215E+02 -0.46969994029E+01 -0.16355935767E+02  0.28931592375E+02  0.00000000000E+00 0. -1.
</event>
<event>
 7    1  0.1563903E-008  0.4614232E+02  0.7816164E-02  0.1320468E+00
        -11   -1    0    0    0    0  0.00000000000E+00  0.00000000000E+00  0.45593999997E+02  0.45594000000E+02  0.51100000000E-03 0. -1.
         11   -1    0    0    0    0 -0.00000000000E+00 -0.00000000000E+00 -0.45593999997E+02  0.45594000000E+02  0.51100000000E-03 0.  1.
    9900012    2    1    2    0    0  0.40950102106E+02 -0.10100829539E+02  0.15816947930E+02  0.46142318058E+02  0.10000002704E+02 0.  0.
        -12    1    1    2    0    0 -0.40950102106E+02  0.10100829539E+02 -0.15816947930E+02  0.45045681942E+02  0.00000000000E+00 0.  1.
         11    1    3    3    0    0  0.11919591428E+02 -0.41829344915E+01  0.61146769728E+01  0.14034346281E+02  0.51100000000E-03 0. -1.
        -11    1    3    3    0    0  0.16538320170E+02  0.51716450471E+00  0.48722308727E+01  0.17248829732E+02  0.51100000000E-03 0.  1.
        -12    1    3    3    0    0  0.12492190507E+02 -0.64350595525E+01  0.48300400844E+01  0.14859142045E+02  0.00000000000E+00 0.  1.
</event>
<event>
 7    1  0.1563903E-008  0.4614232E+02  0.7816164E-02  0.1320468E+00
        -11   -1    0    0    0    0  0.00000000000E+00  0.00000000000E+00  0.45593999997E+02  0.45594000000E+02  0.51100000000E-03 0.  1.
         11   -1    0    0    0    0 -0.00000000000E+00 -0.00000000000E+00 -0.45593999997E+02  0.45594000000E+02  0.51100000000E-03 0. -1.
    9900012    2    1    2    0    0  0.75282573599E+01  0.24139805827E+02 -0.37278795585E+02  0.46142317804E+02  0.10000000394E+02 0.  0.
        -12    1    1    2    0    0 -0.75282573599E+01 -0.24139805827E+02  0.37278795585E+02  0.45045682196E+02  0.00000000000E+00 0.  1.
         11    1    3    3    0    0  0.17809509044E+01  0.13701480754E+02 -0.19153586356E+02  0.23616990315E+02  0.51100000000E-03 0. -1.
        -11    1    3    3    0    0 -0.70792261285E+00  0.11594344910E+01 -0.51072007980E+01  0.52847841031E+01  0.51100000000E-03 0.  1.
         12    1    3    3    0    0  0.64552290684E+01  0.92788905822E+01 -0.13018008431E+02  0.17240543386E+02  0.00000000000E+00 0. -1.
</event>
<event>
 7    1  0.1563903E-008  0.4614232E+02  0.7816164E-02  0.1320468E+00
        -11   -1    0    0    0    0  0.00000000000E+00  0.00000000000E+00  0.45593999997E+02  0.45594000000E+02  0.51100000000E-03 0. -1.
         11   -1    0    0    0    0 -0.00000000000E+00 -0.00000000000E+00 -0.45593999997E+02  0.45594000000E+02  0.51100000000E-03 0.  1.
    9900012    2    1    2    0    0  0.17641497836E+02 -0.14110683100E+02  0.38971524071E+02  0.46142317500E+02  0.99999976235E+01 0.  0.
        -12    1    1    2    0    0 -0.17641497836E+02  0.14110683100E+02 -0.38971524071E+02  0.45045682500E+02  0.00000000000E+00 0.  1.
         11    1    3    3    0    0  0.79441097862E+01 -0.87821529994E+01  0.21305272696E+02  0.24375186902E+02  0.51100000000E-03 0. -1.
        -11    1    3    3    0    0  0.16049557640E+01 -0.41439250164E+01  0.49951941622E+01  0.66858030576E+01  0.51100000000E-03 0.  1.
        -12    1    3    3    0    0  0.80924322857E+01 -0.11846050840E+01  0.12671057212E+02  0.15081327540E+02  0.00000000000E+00 0.  1.
</event>
<event>
 7    1  0.1563903E-008  0.4614232E+02  0.7816164E-02  0.1320468E+00
        -11   -1    0    0    0    0  0.00000000000E+00  0.00000000000E+00  0.45593999997E+02  0.45594000000E+02  0.51100000000E-03 0.  1.
         11   -1    0    0    0    0 -0.00000000000E+00 -0.00000000000E+00 -0.45593999997E+02  0.45594000000E+02  0.51100000000E-03 0. -1.
    9900012    2    1    2    0    0  0.12261705892E+02 -0.28104244743E+02 -0.32998718867E+02  0.46142318178E+02  0.10000003802E+02 0.  0.
        -12    1    1    2    0    0 -0.12261705892E+02  0.28104244743E+02  0.32998718867E+02  0.45045681822E+02  0.00000000000E+00 0.  1.
         11    1    3    3    0    0  0.83169454736E+00 -0.68120367117E+01 -0.10770144125E+02  0.12770730783E+02  0.51100000000E-03 0.  1.
        -11    1    3    3    0    0  0.21421085048E+00 -0.18109902040E-01  0.33259556878E+00  0.39602314390E+00  0.51100000000E-03 0. -1.
         12    1    3    3    0    0  0.11215800494E+02 -0.21274098129E+02 -0.22561170310E+02  0.32975564251E+02  0.00000000000E+00 0. -1.
</event>
<event>
 7    1  0.1563903E-008  0.4614232E+02  0.7816164E-02  0.1320468E+00
        -11   -1    0    0    0    0  0.00000000000E+00  0.00000000000E+00  0.45593999997E+02  0.45594000000E+02  0.51100000000E-03 0.  1.
         11   -1    0    0    0    0 -0.00000000000E+00 -0.00000000000E+00 -0.45593999997E+02  0.45594000000E+02  0.51100000000E-03 0. -1.
    9900012    2    1    2    0    0 -0.42138958864E+02 -0.13998488764E+02 -0.75804987582E+01  0.46142317596E+02  0.99999984953E+01 0.  0.
        -12    1    1    2    0    0  0.42138958864E+02  0.13998488764E+02  0.75804987582E+01  0.45045682404E+02  0.00000000000E+00 0.  1.
         11    1    3    3    0    0 -0.27048181075E+02 -0.11920842892E+02 -0.68539306649E+01  0.30342823872E+02  0.51100000000E-03 0. -1.
        -11    1    3    3    0    0 -0.52473971675E+01  0.48668978311E+00  0.12994592110E+01  0.54277655145E+01  0.51100000000E-03 0.  1.
         12    1    3    3    0    0 -0.98433806217E+01 -0.25643356553E+01 -0.20260273043E+01  0.10371728210E+02  0.00000000000E+00 0. -1.
</event>
<event>
 7    1  0.1563903E-008  0.4614231E+02  0.7816164E-02  0.1320468E+00
        -11   -1    0    0    0    0  0.00000000000E+00  0.00000000000E+00  0.45593999997E+02  0.45594000000E+02  0.51100000000E-03 0. -1.
         11   -1    0    0    0    0 -0.00000000000E+00 -0.00000000000E+00 -0.45593999997E+02  0.45594000000E+02  0.51100000000E-03 0.  1.
    9900012    2    1    2    0    0 -0.18719991416E+02  0.18183399109E+02  0.36715662280E+02  0.46142312766E+02  0.99999544481E+01 0.  0.
        -12    1    1    2    0    0  0.18719991416E+02 -0.18183399109E+02 -0.36715662280E+02  0.45045687234E+02  0.00000000000E+00 0.  1.
         11    1    3    3    0    0 -0.62541259567E+01  0.10442968724E+02  0.21529626876E+02  0.24732458854E+02  0.51100000000E-03 0. -1.
        -11    1    3    3    0    0 -0.73600690997E+00  0.17452718224E+01  0.23341439108E+01  0.30059787030E+01  0.51100000000E-03 0.  1.
         12    1    3    3    0    0 -0.11729858549E+02  0.59951585629E+01  0.12851891492E+02  0.18403875209E+02  0.00000000000E+00 0. -1.
</event>
<event>
 7    1  0.1563903E-008  0.4614232E+02  0.7816164E-02  0.1320468E+00
        -11   -1    0    0    0    0  0.00000000000E+00  0.00000000000E+00  0.45593999997E+02  0.45594000000E+02  0.51100000000E-03 0.  1.
         11   -1    0    0    0    0 -0.00000000000E+00 -0.00000000000E+00 -0.45593999997E+02  0.45594000000E+02  0.51100000000E-03 0. -1.
    9900012    2    1    2    0    0 -0.28488268576E+02  0.12565024279E+01 -0.34870524323E+02  0.46142315286E+02  0.99999774272E+01 0.  0.
        -12    1    1    2    0    0  0.28488268576E+02 -0.12565024279E+01  0.34870524323E+02  0.45045684714E+02  0.00000000000E+00 0.  1.
         11    1    3    3    0    0 -0.16753263008E+02  0.30718197795E+01 -0.21697720412E+02  0.27584397211E+02  0.51100000000E-03 0. -1.
        -11    1    3    3    0    0 -0.13694583174E+01  0.66110741529E+00 -0.47094888417E+01  0.49489154881E+01  0.51100000000E-03 0.  1.
        -12    1    3    3    0    0 -0.10365547250E+02 -0.24764247669E+01 -0.84633150698E+01  0.13609002586E+02  0.00000000000E+00 0.  1.
</event>
<event>
 7    1  0.1563903E-008  0.4614232E+02  0.7816164E-02  0.1320468E+00
        -11   -1    0    0    0    0  0.00000000000E+00  0.00000000000E+00  0.45593999997E+02  0.45594000000E+02  0.51100000000E-03 0. -1.
         11   -1    0    0    0    0 -0.00000000000E+00 -0.00000000000E+00 -0.45593999997E+02  0.45594000000E+02  0.51100000000E-03 0.  1.
    9900012    2    1    2    0    0 -0.40079971062E+02 -0.10672202327E+02  0.17573090291E+02  0.46142317797E+02  0.10000000323E+02 0.  0.
        -12    1    1    2    0    0  0.40079971062E+02  0.10672202327E+02 -0.17573090291E+02  0.45045682203E+02  0.00000000000E+00 0.  1.
         11    1    3    3    0    0 -0.59798648093E+01 -0.58016017098E+00  0.19414410360E+01  0.63138389684E+01  0.51100000000E-03 0. -1.
        -11    1    3    3    0    0 -0.30305787636E+02 -0.60309874810E+01  0.14600505697E+02  0.34175844410E+02  0.51100000000E-03 0.  1.
        -12    1    3    3    0    0 -0.37943186161E+01 -0.40610546747E+01  0.10311435580E+01  0.56526344185E+01  0.00000000000E+00 0.  1.
</event>
<event>
 7    1  0.1563903E-008  0.4614232E+02  0.7816164E-02  0.1320468E+00
        -11   -1    0    0    0    0  0.00000000000E+00  0.00000000000E+00  0.45593999997E+02  0.45594000000E+02  0.51100000000E-03 0. -1.
         11   -1    0    0    0    0 -0.00000000000E+00 -0.00000000000E+00 -0.45593999997E+02  0.45594000000E+02  0.51100000000E-03 0.  1.
    9900012    2    1    2    0    0  0.25252827342E+02 -0.66893191000E+01  0.36696883296E+02  0.46142317383E+02  0.99999965526E+01 0.  0.
        -12    1    1    2    0    0 -0.25252827342E+02  0.66893191000E+01 -0.36696883296E+02  0.45045682617E+02  0.00000000000E+00 0.  1.
         11    1    3    3    0    0  0.17266522282E+02 -0.32993378090E+01  0.19977251793E+02  0.26610317758E+02  0.51100000000E-03 0. -1.
        -11    1    3    3    0    0  0.70493066142E+01 -0.20611572145E+01  0.16260870434E+02  0.17842561484E+02  0.51100000000E-03 0.  1.
        -12    1    3    3    0    0  0.93699844566E+00 -0.13288240765E+01  0.45876106918E+00  0.16894381409E+01  0.00000000000E+00 0.  1.
</event>
<event>
 7    1  0.1563903E-008  0.4614232E+02  0.7816164E-02  0.1320468E+00
        -11   -1    0    0    0    0  0.00000000000E+00  0.00000000000E+00  0.45593999997E+02  0.45594000000E+02  0.51100000000E-03 0. -1.
         11   -1    0    0    0    0 -0.00000000000E+00 -0.00000000000E+00 -0.45593999997E+02  0.45594000000E+02  0.51100000000E-03 0.  1.
    9900012    2    1    2    0    0  0.13898023089E+01  0.29781322946E+02  0.33767659266E+02  0.46142316975E+02  0.99999928305E+01 0.  0.
        -12    1    1    2    0    0 -0.13898023089E+01 -0.29781322946E+02 -0.33767659266E+02  0.45045683025E+02  0.00000000000E+00 0.  1.
         11    1    3    3    0    0  0.67111743789E+00  0.20060684807E+02  0.20262435570E+02  0.28521005750E+02  0.51100000000E-03 0. -1.
        -11    1    3    3    0    0  0.31468809401E+00  0.21870580324E+01  0.67531920007E-01  0.22106135472E+01  0.51100000000E-03 0.  1.
        -12    1    3    3    0    0  0.40399677705E+00  0.75335801071E+01  0.13437691777E+02  0.15410697677E+02  0.00000000000E+00 0.  1.
</event>
<event>
 7    1  0.1563903E-008  0.4614232E+02  0.7816164E-02  0.1320468E+00
        -11   -1    0    0    0    0  0.00000000000E+00  0.00000000000E+00  0.45593999997E+02  0.45594000000E+02  0.51100000000E-03 0.  1.
         11   -1    0    0    0    0 -0.00000000000E+00 -0.00000000000E+00 -0.45593999997E+02  0.45594000000E+02  0.51100000000E-03 0. -1.
    9900012    2    1    2    0    0 -0.12830588127E+02  0.63259043673E+01 -0.42713843579E+02  0.46142317731E+02  0.99999997263E+01 0.  0.
        -12    1    1    2    0    0  0.12830588127E+02 -0.63259043673E+01  0.42713843579E+02  0.45045682269E+02  0.00000000000E+00 0.  1.
         11    1    3    3    0    0 -0.59473430059E+00  0.11328760022E+01 -0.21539024970E+01  0.25052770610E+01  0.51100000000E-03 0. -1.
        -11    1    3    3    0    0 -0.19053458029E+01  0.52279356951E+01 -0.11065455004E+02  0.12385715521E+02  0.51100000000E-03 0.  1.
        -12    1    3    3    0    0 -0.10330508023E+02 -0.34907330049E-01 -0.29494486079E+02  0.31251325149E+02  0.00000000000E+00 0.  1.
</event>
<event>
 7    1  0.1563903E-008  0.4614232E+02  0.7816164E-02  0.1320468E+00
        -11   -1    0    0    0    0  0.00000000000E+00  0.00000000000E+00  0.45593999997E+02  0.45594000000E+02  0.51100000000E-03 0.  1.
         11   -1    0    0    0    0 -0.00000000000E+00 -0.00000000000E+00 -0.45593999997E+02  0.45594000000E+02  0.51100000000E-03 0. -1.
    9900012    2    1    2    0    0  0.35978655505E+02 -0.61287550023E+01 -0.26402432029E+02  0.46142315336E+02  0.99999778831E+01 0.  0.
        -12    1    1    2    0    0 -0.35978655505E+02  0.61287550023E+01  0.26402432029E+02  0.45045684664E+02  0.00000000000E+00 0.  1.
         11    1    3    3    0    0  0.15774195390E+02 -0.42705346774E+01 -0.77718342235E+01  0.18095969554E+02  0.51100000000E-03 0.  1.
        -11    1    3    3    0    0  0.20212334766E+02 -0.20893184599E+01 -0.17273788256E+02  0.26669973552E+02  0.51100000000E-03 0. -1.
        -12    1    3    3    0    0 -0.78746514432E-02  0.23109813499E+00 -0.13568095502E+01  0.13763722294E+01  0.00000000000E+00 0.  1.
</event>
<event>
 7    1  0.1563903E-008  0.4614232E+02  0.7816164E-02  0.1320468E+00
        -11   -1    0    0    0    0  0.00000000000E+00  0.00000000000E+00  0.45593999997E+02  0.45594000000E+02  0.51100000000E-03 0.  1.
         11   -1    0    0    0    0 -0.00000000000E+00 -0.00000000000E+00 -0.45593999997E+02  0.45594000000E+02  0.51100000000E-03 0. -1.
    9900012    2    1    2    0    0 -0.15732970848E+02 -0.98541791356E+01 -0.41042444045E+02  0.46142318394E+02  0.10000005772E+02 0.  0.
        -12    1    1    2    0    0  0.15732970848E+02  0.98541791356E+01  0.41042444045E+02  0.45045681606E+02  0.00000000000E+00 0.  1.
         11    1    3    3    0    0 -0.88141921644E+01 -0.43959083362E+01 -0.24912433343E+02  0.26788865764E+02  0.51100000000E-03 0. -1.
        -11    1    3    3    0    0 -0.80244364755E+01 -0.51853705994E+01 -0.14523231564E+02  0.17384012895E+02  0.51100000000E-03 0.  1.
        -12    1    3    3    0    0  0.11056577916E+01 -0.27290019996E+00 -0.16067791382E+01  0.19694397351E+01  0.00000000000E+00 0.  1.
</event>
<event>
 7    1  0.1563903E-008  0.4614232E+02  0.7816164E-02  0.1320468E+00
        -11   -1    0    0    0    0  0.00000000000E+00  0.00000000000E+00  0.45593999997E+02  0.45594000000E+02  0.51100000000E-03 0.  1.
         11   -1    0    0    0    0 -0.00000000000E+00 -0.00000000000E+00 -0.45593999997E+02  0.45594000000E+02  0.51100000000E-03 0. -1.
    9900012    2    1    2    0    0 -0.35228126552E+02 -0.18972463292E+02 -0.20691501482E+02  0.46142317662E+02  0.99999990929E+01 0.  0.
        -12    1    1    2    0    0  0.35228126552E+02  0.18972463292E+02  0.20691501482E+02  0.45045682338E+02  0.00000000000E+00 0.  1.
         11    1    3    3    0    0 -0.15949271171E+02 -0.13752247351E+02 -0.10223904896E+02  0.23410078806E+02  0.51100000000E-03 0. -1.
        -11    1    3    3    0    0 -0.11024689682E+02 -0.15215173661E+01 -0.55318586634E+01  0.12428204143E+02  0.51100000000E-03 0.  1.
        -12    1    3    3    0    0 -0.82541656987E+01 -0.36986985751E+01 -0.49357379223E+01  0.10304034713E+02  0.00000000000E+00 0.  1.
</event>
<event>
 7    1  0.1563903E-008  0.4614232E+02  0.7816164E-02  0.1320468E+00
        -11   -1    0    0    0    0  0.00000000000E+00  0.00000000000E+00  0.45593999997E+02  0.45594000000E+02  0.51100000000E-03 0. -1.
         11   -1    0    0    0    0 -0.00000000000E+00 -0.00000000000E+00 -0.45593999997E+02  0.45594000000E+02  0.51100000000E-03 0.  1.
    9900012    2    1    2    0    0  0.16987739339E+02 -0.25267458918E+02  0.33197679765E+02  0.46142315303E+02  0.99999775886E+01 0.  0.
        -12    1    1    2    0    0 -0.16987739339E+02  0.25267458918E+02 -0.33197679765E+02  0.45045684697E+02  0.00000000000E+00 0.  1.
         11    1    3    3    0    0  0.72746242077E+01 -0.85975808185E+01  0.12098010743E+02  0.16528775438E+02  0.51100000000E-03 0. -1.
        -11    1    3    3    0    0  0.17975935530E+01  0.41535225386E+00  0.28229153932E+01  0.33723451269E+01  0.51100000000E-03 0.  1.
        -12    1    3    3    0    0  0.79155215780E+01 -0.17085230353E+02  0.18276753629E+02  0.26241194738E+02  0.00000000000E+00 0.  1.
</event>
<event>
 7    1  0.1563903E-008  0.4614232E+02  0.7816164E-02  0.1320468E+00
        -11   -1    0    0    0    0  0.00000000000E+00  0.00000000000E+00  0.45593999997E+02  0.45594000000E+02  0.51100000000E-03 0.  1.
         11   -1    0    0    0    0 -0.00000000000E+00 -0.00000000000E+00 -0.45593999997E+02  0.45594000000E+02  0.51100000000E-03 0. -1.
    9900012    2    1    2    0    0  0.38885413171E+02 -0.14481002667E+02 -0.17531081344E+02  0.46142316425E+02  0.99999878120E+01 0.  0.
        -12    1    1    2    0    0 -0.38885413171E+02  0.14481002667E+02  0.17531081344E+02  0.45045683575E+02  0.00000000000E+00 0.  1.
         11    1    3    3    0    0  0.32089889302E+02 -0.11297777494E+02 -0.14556163998E+02  0.37003819834E+02  0.51100000000E-03 0. -1.
        -11    1    3    3    0    0  0.38561422119E+01 -0.87447645546E+00  0.56057968531E+00  0.39935938294E+01  0.51100000000E-03 0.  1.
         12    1    3    3    0    0  0.29393816573E+01 -0.23087487176E+01 -0.35354970310E+01  0.51449027614E+01  0.00000000000E+00 0. -1.
</event>
<event>
 7    1  0.1563903E-008  0.4614232E+02  0.7816164E-02  0.1320468E+00
        -11   -1    0    0    0    0  0.00000000000E+00  0.00000000000E+00  0.45593999997E+02  0.45594000000E+02  0.51100000000E-03 0. -1.
         11   -1    0    0    0    0 -0.00000000000E+00 -0.00000000000E+00 -0.45593999997E+02  0.45594000000E+02  0.51100000000E-03 0.  1.
    9900012    2    1    2    0    0 -0.29039141022E+02 -0.33967919113E+02  0.56588148375E+01  0.46142318459E+02  0.10000006361E+02 0.  0.
        -12    1    1    2    0    0  0.29039141022E+02  0.33967919113E+02 -0.56588148375E+01  0.45045681541E+02  0.00000000000E+00 0.  1.
         11    1    3    3    0    0 -0.14304218841E+02 -0.15150093076E+02  0.32594224218E+01  0.21089329806E+02  0.51100000000E-03 0. -1.
        -11    1    3    3    0    0 -0.13786759620E+00  0.22121282099E+00 -0.80774336484E+00  0.84875920662E+00  0.51100000000E-03 0.  1.
        -12    1    3    3    0    0 -0.14597054585E+02 -0.19039038858E+02  0.32071357806E+01  0.24204229447E+02  0.00000000000E+00 0.  1.
</event>
<event>
 7    1  0.1563903E-008  0.4614232E+02  0.7816164E-02  0.1320468E+00
        -11   -1    0    0    0    0  0.00000000000E+00  0.00000000000E+00  0.45593999997E+02  0.45594000000E+02  0.51100000000E-03 0.  1.
         11   -1    0    0    0    0 -0.00000000000E+00 -0.00000000000E+00 -0.45593999997E+02  0.45594000000E+02  0.51100000000E-03 0. -1.
    9900012    2    1    2    0    0  0.54397054278E+00  0.42916709478E+02  0.13673828047E+02  0.46142318411E+02  0.10000005924E+02 0.  0.
        -12    1    1    2    0    0 -0.54397054278E+00 -0.42916709478E+02 -0.13673828047E+02  0.45045681589E+02  0.00000000000E+00 0.  1.
         11    1    3    3    0    0  0.12378581199E+00  0.80256107372E+01  0.30554154440E+01  0.85884407449E+01  0.51100000000E-03 0. -1.
        -11    1    3    3    0    0 -0.30971269004E+01  0.19075984581E+02  0.88511575406E+01  0.21256254911E+02  0.51100000000E-03 0.  1.
        -12    1    3    3    0    0  0.35173116311E+01  0.15815114160E+02  0.17672550623E+01  0.16297622755E+02  0.00000000000E+00 0.  1.
</event>
<event>
 7    1  0.1563903E-008  0.4614231E+02  0.7816164E-02  0.1320468E+00
        -11   -1    0    0    0    0  0.00000000000E+00  0.00000000000E+00  0.45593999997E+02  0.45594000000E+02  0.51100000000E-03 0.  1.
         11   -1    0    0    0    0 -0.00000000000E+00 -0.00000000000E+00 -0.45593999997E+02  0.45594000000E+02  0.51100000000E-03 0. -1.
    9900012    2    1    2    0    0 -0.31095858083E+02  0.32309996525E+02  0.42691311208E+01  0.46142314902E+02  0.99999739293E+01 0.  0.
        -12    1    1    2    0    0  0.31095858083E+02 -0.32309996525E+02 -0.42691311208E+01  0.45045685098E+02  0.00000000000E+00 0.  1.
         11    1    3    3    0    0 -0.41492986228E+01  0.58024926514E+00  0.40747739836E+00  0.42094425239E+01  0.51100000000E-03 0. -1.
        -11    1    3    3    0    0 -0.23586139622E+02  0.26197803170E+02  0.26744910259E+01  0.35352281054E+02  0.51100000000E-03 0.  1.
        -12    1    3    3    0    0 -0.33604198383E+01  0.55319440905E+01  0.11871626966E+01  0.65805913244E+01  0.00000000000E+00 0.  1.
</event>
<event>
 7    1  0.1563903E-008  0.4614232E+02  0.7816164E-02  0.1320468E+00
        -11   -1    0    0    0    0  0.00000000000E+00  0.00000000000E+00  0.45593999997E+02  0.45594000000E+02  0.51100000000E-03 0.  1.
         11   -1    0    0    0    0 -0.00000000000E+00 -0.00000000000E+00 -0.45593999997E+02  0.45594000000E+02  0.51100000000E-03 0. -1.
    9900012    2    1    2    0    0  0.32840789157E+01 -0.64641325789E+01 -0.44458332170E+02  0.46142317814E+02  0.10000000479E+02 0.  0.
        -12    1    1    2    0    0 -0.32840789157E+01  0.64641325789E+01  0.44458332170E+02  0.45045682186E+02  0.00000000000E+00 0.  1.
         11    1    3    3    0    0  0.99734610933E+00 -0.48139393014E+01 -0.18719606611E+02  0.19354389238E+02  0.51100000000E-03 0.  1.
        -11    1    3    3    0    0 -0.70693646031E+00  0.14722758125E+00 -0.20374718906E+02  0.20387511027E+02  0.51100000000E-03 0. -1.
        -12    1    3    3    0    0  0.29936692667E+01 -0.17974208587E+01 -0.53640066530E+01  0.64004175485E+01  0.00000000000E+00 0.  1.
</event>
<event>
 7    1  0.1563903E-008  0.4614232E+02  0.7816164E-02  0.1320468E+00
        -11   -1    0    0    0    0  0.00000000000E+00  0.00000000000E+00  0.45593999997E+02  0.45594000000E+02  0.51100000000E-03 0.  1.
         11   -1    0    0    0    0 -0.00000000000E+00 -0.00000000000E+00 -0.45593999997E+02  0.45594000000E+02  0.51100000000E-03 0. -1.
    9900012    2    1    2    0    0  0.26890105964E+02 -0.26871315323E+02 -0.24165427865E+02  0.46142319965E+02  0.10000020093E+02 0.  0.
        -12    1    1    2    0    0 -0.26890105964E+02  0.26871315323E+02  0.24165427865E+02  0.45045680035E+02  0.00000000000E+00 0.  1.
         11    1    3    3    0    0  0.10987709581E+02 -0.12599017551E+02 -0.54590884293E+01  0.17585978842E+02  0.51100000000E-03 0. -1.
        -11    1    3    3    0    0  0.61235040925E+01 -0.55354968521E+01 -0.91961118757E+01  0.12357487676E+02  0.51100000000E-03 0.  1.
         12    1    3    3    0    0  0.97788922907E+01 -0.87368009204E+01 -0.95102275597E+01  0.16198853447E+02  0.00000000000E+00 0. -1.
</event>
<event>
 7    1  0.1563903E-008  0.4614231E+02  0.7816164E-02  0.1320468E+00
        -11   -1    0    0    0    0  0.00000000000E+00  0.00000000000E+00  0.45593999997E+02  0.45594000000E+02  0.51100000000E-03 0.  1.
         11   -1    0    0    0    0 -0.00000000000E+00 -0.00000000000E+00 -0.45593999997E+02  0.45594000000E+02  0.51100000000E-03 0. -1.
    9900012    2    1    2    0    0 -0.42167954058E+02 -0.68541376974E+01 -0.14282793942E+02  0.46142314792E+02  0.99999729283E+01 0.  0.
        -12    1    1    2    0    0  0.42167954058E+02  0.68541376974E+01  0.14282793942E+02  0.45045685208E+02  0.00000000000E+00 0.  1.
         11    1    3    3    0    0 -0.15830280498E+01 -0.24907900106E+01 -0.10279668805E+01  0.31251766113E+01  0.51100000000E-03 0. -1.
        -11    1    3    3    0    0 -0.30303095587E+02 -0.19681556757E+01 -0.98646378019E+01  0.31929020000E+02  0.51100000000E-03 0.  1.
         12    1    3    3    0    0 -0.10281830421E+02 -0.23951920111E+01 -0.33901892599E+01  0.11088118181E+02  0.00000000000E+00 0. -1.
</event>
<event>
 7    1  0.1563903E-008  0.4614232E+02  0.7816164E-02  0.1320468E+00
        -11   -1    0    0    0    0  0.00000000000E+00  0.00000000000E+00  0.45593999997E+02  0.45594000000E+02  0.51100000000E-03 0.  1.
         11   -1    0    0    0    0 -0.00000000000E+00 -0.00000000000E+00 -0.45593999997E+02  0.45594000000E+02  0.51100000000E-03 0. -1.
    9900012    2    1    2    0    0 -0.42359669456E+01 -0.88821491607E+01 -0.43957679710E+02  0.46142316575E+02  0.99999891880E+01 0.  0.
        -12    1    1    2    0    0  0.42359669456E+01  0.88821491607E+01  0.43957679710E+02  0.45045683425E+02  0.00000000000E+00 0.  1.
         11    1    3    3    0    0 -0.45278665401E+00 -0.24965625227E+01 -0.21059116818E+02  0.21211417718E+02  0.51100000000E-03 0. -1.
        -11    1    3    3    0    0 -0.25532332429E+01 -0.66858587617E+01 -0.22488872299E+02  0.23600192477E+02  0.51100000000E-03 0.  1.
        -12    1    3    3    0    0 -0.12299470487E+01  0.30027212375E+00 -0.40969059301E+00  0.13307063812E+01  0.00000000000E+00 0.  1.
</event>
<event>
 7    1  0.1563903E-008  0.4614232E+02  0.7816164E-02  0.1320468E+00
        -11   -1    0    0    0    0  0.00000000000E+00  0.00000000000E+00  0.45593999997E+02  0.45594000000E+02  0.51100000000E-03 0. -1.
         11   -1    0    0    0    0 -0.00000000000E+00 -0.00000000000E+00 -0.45593999997E+02  0.45594000000E+02  0.51100000000E-03 0.  1.
    9900012    2    1    2    0    0 -0.12173041308E+02 -0.38274053300E+02  0.20396749889E+02  0.46142317669E+02  0.99999991558E+01 0.  0.
        -12    1    1    2    0    0  0.12173041308E+02  0.38274053300E+02 -0.20396749889E+02  0.45045682331E+02  0.00000000000E+00 0.  1.
         11    1    3    3    0    0 -0.49427275299E+01 -0.18457379214E+02  0.77984190683E+01  0.20637847347E+02  0.51100000000E-03 0. -1.
        -11    1    3    3    0    0 -0.61744458154E+00 -0.72467324913E+00  0.29775373124E+01  0.31260386814E+01  0.51100000000E-03 0.  1.
        -12    1    3    3    0    0 -0.66128691964E+01 -0.19092000837E+02  0.96207935080E+01  0.22378431640E+02  0.00000000000E+00 0.  1.
</event>
<event>
 7    1  0.1563903E-008  0.4614232E+02  0.7816164E-02  0.1320468E+00
        -11   -1    0    0    0    0  0.00000000000E+00  0.00000000000E+00  0.45593999997E+02  0.45594000000E+02  0.51100000000E-03 0.  1.
         11   -1    0    0    0    0 -0.00000000000E+00 -0.00000000000E+00 -0.45593999997E+02  0.45594000000E+02  0.51100000000E-03 0. -1.
    9900012    2    1    2    0    0 -0.43727397210E+02  0.10089038998E+02 -0.39037892324E+01  0.46142317132E+02  0.99999942663E+01 0.  0.
        -12    1    1    2    0    0  0.43727397210E+02 -0.10089038998E+02  0.39037892324E+01  0.45045682868E+02  0.00000000000E+00 0.  1.
         11    1    3    3    0    0 -0.44863613788E+01 -0.50878970714E+00  0.17065160242E+01  0.48268522444E+01  0.51100000000E-03 0.  1.
        -11    1    3    3    0    0 -0.12712621879E+02  0.23586222263E+01  0.22149549318E+00  0.12931469922E+02  0.51100000000E-03 0. -1.
         12    1    3    3    0    0 -0.26528413952E+02  0.82392064784E+01 -0.58318007499E+01  0.28383994966E+02  0.00000000000E+00 0. -1.
</event>
<event>
 7    1  0.1563903E-008  0.4614232E+02  0.7816164E-02  0.1320468E+00
        -11   -1    0    0    0    0  0.00000000000E+00  0.00000000000E+00  0.45593999997E+02  0.45594000000E+02  0.51100000000E-03 0.  1.
         11   -1    0    0    0    0 -0.00000000000E+00 -0.00000000000E+00 -0.45593999997E+02  0.45594000000E+02  0.51100000000E-03 0. -1.
    9900012    2    1    2    0    0 -0.10715949542E+02  0.79801000895E+01 -0.43018599341E+02  0.46142318062E+02  0.10000002740E+02 0.  0.
        -12    1    1    2    0    0  0.10715949542E+02 -0.79801000895E+01  0.43018599341E+02  0.45045681938E+02  0.00000000000E+00 0.  1.
         11    1    3    3    0    0 -0.84703995431E+00  0.27279301712E+01 -0.10273989918E+02  0.10663674263E+02  0.51100000000E-03 0. -1.
        -11    1    3    3    0    0 -0.10763198798E+02  0.58654447211E+01 -0.31636983517E+02  0.33928581115E+02  0.51100000000E-03 0.  1.
        -12    1    3    3    0    0  0.89428920978E+00 -0.61327480286E+00 -0.11076259058E+01  0.15500626832E+01  0.00000000000E+00 0.  1.
</event>
<event>
 7    1  0.1563903E-008  0.4614232E+02  0.7816164E-02  0.1320468E+00
        -11   -1    0    0    0    0  0.00000000000E+00  0.00000000000E+00  0.45593999997E+02  0.45594000000E+02  0.51100000000E-03 0.  1.
         11   -1    0    0    0    0 -0.00000000000E+00 -0.00000000000E+00 -0.45593999997E+02  0.45594000000E+02  0.51100000000E-03 0. -1.
    9900012    2    1    2    0    0 -0.51159368556E+01  0.39540008653E+02 -0.20964933048E+02  0.46142317500E+02  0.99999976226E+01 0.  0.
        -12    1    1    2    0    0  0.51159368556E+01 -0.39540008653E+02  0.20964933048E+02  0.45045682500E+02  0.00000000000E+00 0.  1.
         11    1    3    3    0    0 -0.22100044231E+01  0.20722101993E+01 -0.77673296310E+00  0.31275372128E+01  0.51100000000E-03 0.  1.
        -11    1    3    3    0    0 -0.22314164580E+01  0.31251229311E+02 -0.14352922300E+02  0.34461934532E+02  0.51100000000E-03 0. -1.
         12    1    3    3    0    0 -0.67451597446E+00  0.62165691422E+01 -0.58352777845E+01  0.85528457558E+01  0.00000000000E+00 0. -1.
</event>
<event>
 7    1  0.1563903E-008  0.4614232E+02  0.7816164E-02  0.1320468E+00
        -11   -1    0    0    0    0  0.00000000000E+00  0.00000000000E+00  0.45593999997E+02  0.45594000000E+02  0.51100000000E-03 0.  1.
         11   -1    0    0    0    0 -0.00000000000E+00 -0.00000000000E+00 -0.45593999997E+02  0.45594000000E+02  0.51100000000E-03 0. -1.
    9900012    2    1    2    0    0 -0.38325383454E+01  0.22795636878E+02 -0.38662436697E+02  0.46142318496E+02  0.10000006702E+02 0.  0.
        -12    1    1    2    0    0  0.38325383454E+01 -0.22795636878E+02  0.38662436697E+02  0.45045681504E+02  0.00000000000E+00 0.  1.
         11    1    3    3    0    0 -0.13198429260E+01  0.45812985732E+01 -0.29011964376E+01  0.55809697183E+01  0.51100000000E-03 0. -1.
        -11    1    3    3    0    0 -0.16691920262E+01  0.18116753559E+02 -0.34866660528E+02  0.39327941444E+02  0.51100000000E-03 0.  1.
        -12    1    3    3    0    0 -0.84350339322E+00  0.97584745198E-01 -0.89457973089E+00  0.12334073341E+01  0.00000000000E+00 0.  1.
</event>
<event>
 7    1  0.1563903E-008  0.4614232E+02  0.7816164E-02  0.1320468E+00
        -11   -1    0    0    0    0  0.00000000000E+00  0.00000000000E+00  0.45593999997E+02  0.45594000000E+02  0.51100000000E-03 0.  1.
         11   -1    0    0    0    0 -0.00000000000E+00 -0.00000000000E+00 -0.45593999997E+02  0.45594000000E+02  0.51100000000E-03 0. -1.
    9900012    2    1    2    0    0  0.13386401049E+02  0.11023298782E+02 -0.41574088154E+02  0.46142315912E+02  0.99999831420E+01 0.  0.
        -12    1    1    2    0    0 -0.13386401049E+02 -0.11023298782E+02  0.41574088154E+02  0.45045684088E+02  0.00000000000E+00 0.  1.
         11    1    3    3    0    0  0.83917110816E+01  0.81866462258E+01 -0.27549870501E+02  0.29940563725E+02  0.51100000000E-03 0. -1.
        -11    1    3    3    0    0  0.21013071024E+01  0.25125955331E+01 -0.20171852478E+01  0.38467732499E+01  0.51100000000E-03 0.  1.
         12    1    3    3    0    0  0.28933828648E+01  0.32405702318E+00 -0.12007032405E+02  0.12354978937E+02  0.00000000000E+00 0. -1.
</event>
<event>
 7    1  0.1563903E-008  0.4614232E+02  0.7816164E-02  0.1320468E+00
        -11   -1    0    0    0    0  0.00000000000E+00  0.00000000000E+00  0.45593999997E+02  0.45594000000E+02  0.51100000000E-03 0.  1.
         11   -1    0    0    0    0 -0.00000000000E+00 -0.00000000000E+00 -0.45593999997E+02  0.45594000000E+02  0.51100000000E-03 0. -1.
    9900012    2    1    2    0    0 -0.38967147782E+02  0.21756516714E+01 -0.22493141626E+02  0.46142317780E+02  0.10000000169E+02 0.  0.
        -12    1    1    2    0    0  0.38967147782E+02 -0.21756516714E+01  0.22493141626E+02  0.45045682220E+02  0.00000000000E+00 0.  1.
         11    1    3    3    0    0 -0.18151621877E+02 -0.30197686766E+01 -0.90959962252E+01  0.20526507916E+02  0.51100000000E-03 0. -1.
        -11    1    3    3    0    0 -0.18173134464E+02  0.49046302597E+01 -0.10039760975E+02  0.21333424829E+02  0.51100000000E-03 0.  1.
         12    1    3    3    0    0 -0.26423914411E+01  0.29079008833E+00 -0.33573844260E+01  0.42823850349E+01  0.00000000000E+00 0. -1.
</event>
<event>
 7    1  0.1563903E-008  0.4614232E+02  0.7816164E-02  0.1320468E+00
        -11   -1    0    0    0    0  0.00000000000E+00  0.00000000000E+00  0.45593999997E+02  0.45594000000E+02  0.51100000000E-03 0. -1.
         11   -1    0    0    0    0 -0.00000000000E+00 -0.00000000000E+00 -0.45593999997E+02  0.45594000000E+02  0.51100000000E-03 0.  1.
    9900012    2    1    2    0    0  0.18954885376E+02 -0.26983300974E+02  0.30687573882E+02  0.46142318722E+02  0.10000008761E+02 0.  0.
        -12    1    1    2    0    0 -0.18954885376E+02  0.26983300974E+02 -0.30687573882E+02  0.45045681278E+02  0.00000000000E+00 0.  1.
         11    1    3    3    0    0  0.52087342760E+01 -0.91949113492E+01  0.12697460544E+02  0.16519770337E+02  0.51100000000E-03 0. -1.
        -11    1    3    3    0    0 -0.21991319736E+00 -0.20627878236E+00 -0.46728725311E+00  0.55612083981E+00  0.51100000000E-03 0.  1.
         12    1    3    3    0    0  0.13966064297E+02 -0.17582110843E+02  0.18457400591E+02  0.29066427545E+02  0.00000000000E+00 0. -1.
</event>
<event>
 7    1  0.1563903E-008  0.4614232E+02  0.7816164E-02  0.1320468E+00
        -11   -1    0    0    0    0  0.00000000000E+00  0.00000000000E+00  0.45593999997E+02  0.45594000000E+02  0.51100000000E-03 0.  1.
         11   -1    0    0    0    0 -0.00000000000E+00 -0.00000000000E+00 -0.45593999997E+02  0.45594000000E+02  0.51100000000E-03 0. -1.
    9900012    2    1    2    0    0  0.45944779382E+01  0.41954810776E+02 -0.15741600960E+02  0.46142319014E+02  0.10000011422E+02 0.  0.
        -12    1    1    2    0    0 -0.45944779382E+01 -0.41954810776E+02  0.15741600960E+02  0.45045680986E+02  0.00000000000E+00 0.  1.
         11    1    3    3    0    0  0.34876251631E+00  0.66553086151E+01 -0.36874115919E+01  0.76165459734E+01  0.51100000000E-03 0. -1.
        -11    1    3    3    0    0 -0.22879307618E+01  0.17082775667E+02 -0.54267083496E+01  0.18069449782E+02  0.51100000000E-03 0.  1.
        -12    1    3    3    0    0  0.65336461837E+01  0.18216726493E+02 -0.66274810181E+01  0.20456323258E+02  0.00000000000E+00 0.  1.
</event>
<event>
 7    1  0.1563903E-008  0.4614232E+02  0.7816164E-02  0.1320468E+00
        -11   -1    0    0    0    0  0.00000000000E+00  0.00000000000E+00  0.45593999997E+02  0.45594000000E+02  0.51100000000E-03 0. -1.
         11   -1    0    0    0    0 -0.00000000000E+00 -0.00000000000E+00 -0.45593999997E+02  0.45594000000E+02  0.51100000000E-03 0.  1.
    9900012    2    1    2    0    0  0.42908911631E+02 -0.13619807678E+02 -0.15619390812E+01  0.46142317496E+02  0.99999975823E+01 0.  0.
        -12    1    1    2    0    0 -0.42908911631E+02  0.13619807678E+02  0.15619390812E+01  0.45045682504E+02  0.00000000000E+00 0.  1.
         11    1    3    3    0    0  0.31168371643E+02 -0.79927479155E+01 -0.19493532562E+01  0.32235871146E+02  0.51100000000E-03 0. -1.
        -11    1    3    3    0    0  0.19871337432E+01 -0.15479489140E+00  0.17341728615E+01  0.26419723213E+01  0.51100000000E-03 0.  1.
         12    1    3    3    0    0  0.97534062446E+01 -0.54722648708E+01 -0.13467586865E+01  0.11264474029E+02  0.00000000000E+00 0. -1.
</event>
<event>
 7    1  0.1563903E-008  0.4614232E+02  0.7816164E-02  0.1320468E+00
        -11   -1    0    0    0    0  0.00000000000E+00  0.00000000000E+00  0.45593999997E+02  0.45594000000E+02  0.51100000000E-03 0. -1.
         11   -1    0    0    0    0 -0.00000000000E+00 -0.00000000000E+00 -0.45593999997E+02  0.45594000000E+02  0.51100000000E-03 0.  1.
    9900012    2    1    2    0    0 -0.35433105546E+02  0.99121813401E+01  0.25987636288E+02  0.46142317106E+02  0.99999940234E+01 0.  0.
        -12    1    1    2    0    0  0.35433105546E+02 -0.99121813401E+01 -0.25987636288E+02  0.45045682894E+02  0.00000000000E+00 0.  1.
         11    1    3    3    0    0 -0.76943971937E+01  0.41170397946E+01  0.10875199686E+02  0.13943591120E+02  0.51100000000E-03 0. -1.
        -11    1    3    3    0    0 -0.24164951669E+02  0.55309757850E+01  0.13868285263E+02  0.28405385382E+02  0.51100000000E-03 0.  1.
        -12    1    3    3    0    0 -0.35737566834E+01  0.26416576059E+00  0.12441513384E+01  0.37933406035E+01  0.00000000000E+00 0.  1.
</event>
<event>
 7    1  0.1563903E-008  0.4614232E+02  0.7816164E-02  0.1320468E+00
        -11   -1    0    0    0    0  0.00000000000E+00  0.00000000000E+00  0.45593999997E+02  0.45594000000E+02  0.51100000000E-03 0.  1.
         11   -1    0    0    0    0 -0.00000000000E+00 -0.00000000000E+00 -0.45593999997E+02  0.45594000000E+02  0.51100000000E-03 0. -1.
    9900012    2    1    2    0    0  0.41870258490E+02  0.14791159395E+02  0.75641644036E+01  0.46142317350E+02  0.99999962535E+01 0.  0.
        -12    1    1    2    0    0 -0.41870258490E+02 -0.14791159395E+02 -0.75641644036E+01  0.45045682650E+02  0.00000000000E+00 0.  1.
         11    1    3    3    0    0  0.16079269548E+02  0.47746308548E+01  0.23877228165E+01  0.16942291153E+02  0.51100000000E-03 0. -1.
        -11    1    3    3    0    0  0.22081988556E+02  0.71776122216E+01  0.68978261253E+01  0.24222145679E+02  0.51100000000E-03 0.  1.
        -12    1    3    3    0    0  0.37090003861E+01  0.28389163183E+01 -0.17213845382E+01  0.49778805184E+01  0.00000000000E+00 0.  1.
</event>
<event>
 7    1  0.1563903E-008  0.4614232E+02  0.7816164E-02  0.1320468E+00
        -11   -1    0    0    0    0  0.00000000000E+00  0.00000000000E+00  0.45593999997E+02  0.45594000000E+02  0.51100000000E-03 0. -1.
         11   -1    0    0    0    0 -0.00000000000E+00 -0.00000000000E+00 -0.45593999997E+02  0.45594000000E+02  0.51100000000E-03 0.  1.
    9900012    2    1    2    0    0 -0.35458116496E+02 -0.15063544364E+02  0.23343629747E+02  0.46142318254E+02  0.10000004490E+02 0.  0.
        -12    1    1    2    0    0  0.35458116496E+02  0.15063544364E+02 -0.23343629747E+02  0.45045681746E+02  0.00000000000E+00 0.  1.
         11    1    3    3    0    0 -0.31776412899E+02 -0.12720179631E+02  0.20335922119E+02  0.39813227893E+02  0.51100000000E-03 0. -1.
        -11    1    3    3    0    0 -0.98551477751E+00 -0.22492922827E+01  0.24544653209E+00  0.24679544994E+01  0.51100000000E-03 0.  1.
         12    1    3    3    0    0 -0.26961888190E+01 -0.94072450142E-01  0.27622610958E+01  0.38611358607E+01  0.00000000000E+00 0. -1.
</event>
<event>
 7    1  0.1563903E-008  0.4614232E+02  0.7816164E-02  0.1320468E+00
        -11   -1    0    0    0    0  0.00000000000E+00  0.00000000000E+00  0.45593999997E+02  0.45594000000E+02  0.51100000000E-03 0.  1.
         11   -1    0    0    0    0 -0.00000000000E+00 -0.00000000000E+00 -0.45593999997E+02  0.45594000000E+02  0.51100000000E-03 0. -1.
    9900012    2    1    2    0    0 -0.62768540333E+01 -0.33164094861E+02 -0.29830476586E+02  0.46142318544E+02  0.10000007136E+02 0.  0.
        -12    1    1    2    0    0  0.62768540333E+01  0.33164094861E+02  0.29830476586E+02  0.45045681456E+02  0.00000000000E+00 0.  1.
         11    1    3    3    0    0 -0.49567895711E+01 -0.90938367892E+01 -0.11744643013E+02  0.15658999654E+02  0.51100000000E-03 0. -1.
        -11    1    3    3    0    0 -0.70019118483E+00 -0.19512862740E+02 -0.12238758287E+02  0.23044072658E+02  0.51100000000E-03 0.  1.
         12    1    3    3    0    0 -0.61987327742E+00 -0.45573953317E+01 -0.58470752862E+01  0.74392462315E+01  0.00000000000E+00 0. -1.
</event>
<event>
 7    1  0.1563903E-008  0.4614232E+02  0.7816164E-02  0.1320468E+00
        -11   -1    0    0    0    0  0.00000000000E+00  0.00000000000E+00  0.45593999997E+02  0.45594000000E+02  0.51100000000E-03 0. -1.
         11   -1    0    0    0    0 -0.00000000000E+00 -0.00000000000E+00 -0.45593999997E+02  0.45594000000E+02  0.51100000000E-03 0.  1.
    9900012    2    1    2    0    0  0.26302739620E+02  0.34257203737E+02  0.12795449528E+02  0.46142315989E+02  0.99999838401E+01 0.  0.
        -12    1    1    2    0    0 -0.26302739620E+02 -0.34257203737E+02 -0.12795449528E+02  0.45045684011E+02  0.00000000000E+00 0.  1.
         11    1    3    3    0    0  0.13812997783E+00  0.27627065416E+01 -0.59631188525E+00  0.28297023609E+01  0.51100000000E-03 0.  1.
        -11    1    3    3    0    0  0.22282032921E+02  0.28232758048E+02  0.12933535288E+02  0.38221119206E+02  0.51100000000E-03 0. -1.
         12    1    3    3    0    0  0.38825767213E+01  0.32617391477E+01  0.45822612474E+00  0.50914944216E+01  0.00000000000E+00 0. -1.
</event>
<event>
 7    1  0.1563903E-008  0.4614232E+02  0.7816164E-02  0.1320468E+00
        -11   -1    0    0    0    0  0.00000000000E+00  0.00000000000E+00  0.45593999997E+02  0.45594000000E+02  0.51100000000E-03 0. -1.
         11   -1    0    0    0    0 -0.00000000000E+00 -0.00000000000E+00 -0.45593999997E+02  0.45594000000E+02  0.51100000000E-03 0.  1.
    9900012    2    1    2    0    0 -0.14459611967E+02  0.41511390708E+02  0.98406125459E+01  0.46142316611E+02  0.99999895122E+01 0.  0.
        -12    1    1    2    0    0  0.14459611967E+02 -0.41511390708E+02 -0.98406125459E+01  0.45045683389E+02  0.00000000000E+00 0.  1.
         11    1    3    3    0    0 -0.58613259005E+01  0.19435757333E+02  0.60704714682E+01  0.21188544748E+02  0.51100000000E-03 0. -1.
        -11    1    3    3    0    0 -0.86356601878E+01  0.19810793672E+02  0.13715150372E+01  0.21654635221E+02  0.51100000000E-03 0.  1.
         12    1    3    3    0    0  0.37374121447E-01  0.22648397029E+01  0.23986260405E+01  0.32991366426E+01  0.00000000000E+00 0. -1.
</event>
<event>
 7    1  0.1563903E-008  0.4614232E+02  0.7816164E-02  0.1320468E+00
        -11   -1    0    0    0    0  0.00000000000E+00  0.00000000000E+00  0.45593999997E+02  0.45594000000E+02  0.51100000000E-03 0. -1.
         11   -1    0    0    0    0 -0.00000000000E+00 -0.00000000000E+00 -0.45593999997E+02  0.45594000000E+02  0.51100000000E-03 0.  1.
    9900012    2    1    2    0    0  0.39693361268E+02  0.14512466497E+02  0.15586489174E+02  0.46142320325E+02  0.10000023383E+02 0.  0.
        -12    1    1    2    0    0 -0.39693361268E+02 -0.14512466497E+02 -0.15586489174E+02  0.45045679675E+02  0.00000000000E+00 0.  1.
         11    1    3    3    0    0  0.99206242421E+00  0.22231018914E+01  0.61060178588E+00  0.25098216421E+01  0.51100000000E-03 0. -1.
        -11    1    3    3    0    0  0.95961653749E+01  0.27540917583E+01  0.12197852118E+01  0.10057797350E+02  0.51100000000E-03 0.  1.
         12    1    3    3    0    0  0.29105133469E+02  0.95352728474E+01  0.13756102176E+02  0.33574701333E+02  0.00000000000E+00 0. -1.
</event>
<event>
 7    1  0.1563903E-008  0.4614232E+02  0.7816164E-02  0.1320468E+00
        -11   -1    0    0    0    0  0.00000000000E+00  0.00000000000E+00  0.45593999997E+02  0.45594000000E+02  0.51100000000E-03 0.  1.
         11   -1    0    0    0    0 -0.00000000000E+00 -0.00000000000E+00 -0.45593999997E+02  0.45594000000E+02  0.51100000000E-03 0. -1.
    9900012    2    1    2    0    0 -0.42587135151E+01 -0.13818701434E+02 -0.42661696526E+02  0.46142317625E+02  0.99999987599E+01 0.  0.
        -12    1    1    2    0    0  0.42587135151E+01  0.13818701434E+02  0.42661696526E+02  0.45045682375E+02  0.00000000000E+00 0.  1.
         11    1    3    3    0    0  0.13121138495E+01 -0.98742513882E+01 -0.25671482895E+02  0.27536294550E+02  0.51100000000E-03 0. -1.
        -11    1    3    3    0    0 -0.32824937392E+01 -0.91481162949E+00 -0.10983784646E+02  0.11500224819E+02  0.51100000000E-03 0.  1.
         12    1    3    3    0    0 -0.22883336254E+01 -0.30296384165E+01 -0.60064289846E+01  0.71057982566E+01  0.00000000000E+00 0. -1.
</event>
<event>
 7    1  0.1563903E-008  0.4614232E+02  0.7816164E-02  0.1320468E+00
        -11   -1    0    0    0    0  0.00000000000E+00  0.00000000000E+00  0.45593999997E+02  0.45594000000E+02  0.51100000000E-03 0.  1.
         11   -1    0    0    0    0 -0.00000000000E+00 -0.00000000000E+00 -0.45593999997E+02  0.45594000000E+02  0.51100000000E-03 0. -1.
    9900012    2    1    2    0    0  0.17906049979E+01 -0.24002465095E+02 -0.38076091368E+02  0.46142319511E+02  0.10000015956E+02 0.  0.
        -12    1    1    2    0    0 -0.17906049979E+01  0.24002465095E+02  0.38076091368E+02  0.45045680489E+02  0.00000000000E+00 0.  1.
         11    1    3    3    0    0  0.14340189532E+01 -0.16695625416E+02 -0.26253905505E+02  0.31145912620E+02  0.51100000000E-03 0. -1.
        -11    1    3    3    0    0 -0.43378486731E+00 -0.45631780168E+01 -0.24468734031E+01  0.51959554112E+01  0.51100000000E-03 0.  1.
        -12    1    3    3    0    0  0.79037091197E+00 -0.27436616615E+01 -0.93753124598E+01  0.98004514799E+01  0.00000000000E+00 0.  1.
</event>
<event>
 7    1  0.1563903E-008  0.4614232E+02  0.7816164E-02  0.1320468E+00
        -11   -1    0    0    0    0  0.00000000000E+00  0.00000000000E+00  0.45593999997E+02  0.45594000000E+02  0.51100000000E-03 0.  1.
         11   -1    0    0    0    0 -0.00000000000E+00 -0.00000000000E+00 -0.45593999997E+02  0.45594000000E+02  0.51100000000E-03 0. -1.
    9900012    2    1    2    0    0  0.17859402956E+02 -0.31241843976E+02 -0.27094323678E+02  0.46142318026E+02  0.10000002413E+02 0.  0.
        -12    1    1    2    0    0 -0.17859402956E+02  0.31241843976E+02  0.27094323678E+02  0.45045681974E+02  0.00000000000E+00 0.  1.
         11    1    3    3    0    0  0.14908216616E+02 -0.29137130279E+02 -0.27031296243E+02  0.42449007767E+02  0.51100000000E-03 0. -1.
        -11    1    3    3    0    0  0.26293979849E+01 -0.20662505295E+01  0.65282709559E-01  0.33447551640E+01  0.51100000000E-03 0.  1.
         12    1    3    3    0    0  0.32178835550E+00 -0.38463167563E-01 -0.12831014388E+00  0.34855509467E+00  0.00000000000E+00 0. -1.
</event>
<event>
 7    1  0.1568763E-008  0.4614232E+02  0.7816164E-02  0.1320468E+00
        -11   -1    0    0    0    0  0.00000000000E+00  0.00000000000E+00  0.45593999997E+02  0.45594000000E+02  0.51100000000E-03 0. -1.
         11   -1    0    0    0    0 -0.00000000000E+00 -0.00000000000E+00 -0.45593999997E+02  0.45594000000E+02  0.51100000000E-03 0.  1.
    9900012    2    1    2    0    0 -0.32960416706E+02  0.24295026696E+02 -0.18774345966E+02  0.46142318097E+02  0.10000003065E+02 0.  0.
        -12    1    1    2    0    0  0.32960416706E+02 -0.24295026696E+02  0.18774345966E+02  0.45045681903E+02  0.00000000000E+00 0.  1.
         11    1    3    3    0    0 -0.17975442729E+02  0.12429427670E+02 -0.12182187576E+02  0.25020249957E+02  0.51100000000E-03 0. -1.
        -11    1    3    3    0    0 -0.29466651622E+01  0.26925253920E+01  0.11058589284E+01  0.41419141463E+01  0.51100000000E-03 0.  1.
        -12    1    3    3    0    0 -0.12038308815E+02  0.91730736341E+01 -0.76980173177E+01  0.16980153994E+02  0.00000000000E+00 0.  1.
</event>
<event>
 7    1  0.1563903E-008  0.4614232E+02  0.7816164E-02  0.1320468E+00
        -11   -1    0    0    0    0  0.00000000000E+00  0.00000000000E+00  0.45593999997E+02  0.45594000000E+02  0.51100000000E-03 0.  1.
         11   -1    0    0    0    0 -0.00000000000E+00 -0.00000000000E+00 -0.45593999997E+02  0.45594000000E+02  0.51100000000E-03 0. -1.
    9900012    2    1    2    0    0  0.31361487143E+02  0.31984903408E+02 -0.47472697423E+01  0.46142317723E+02  0.99999996487E+01 0.  0.
        -12    1    1    2    0    0 -0.31361487143E+02 -0.31984903408E+02  0.47472697423E+01  0.45045682277E+02  0.00000000000E+00 0.  1.
         11    1    3    3    0    0  0.22337679664E+02  0.16807395037E+02 -0.44767876691E+01  0.28310812224E+02  0.51100000000E-03 0. -1.
        -11    1    3    3    0    0  0.49730801100E+01  0.10550176608E+02  0.18306589567E+00  0.11664958878E+02  0.51100000000E-03 0.  1.
         12    1    3    3    0    0  0.40507273695E+01  0.46273317624E+01 -0.45354796884E+00  0.61665466204E+01  0.00000000000E+00 0. -1.
</event>
<event>
 7    1  0.1563903E-008  0.4614232E+02  0.7816164E-02  0.1320468E+00
        -11   -1    0    0    0    0  0.00000000000E+00  0.00000000000E+00  0.45593999997E+02  0.45594000000E+02  0.51100000000E-03 0. -1.
         11   -1    0    0    0    0 -0.00000000000E+00 -0.00000000000E+00 -0.45593999997E+02  0.45594000000E+02  0.51100000000E-03 0.  1.
    9900012    2    1    2    0    0  0.25375122799E+01 -0.37352088657E+02  0.25049871394E+02  0.46142317050E+02  0.99999935127E+01 0.  0.
        -12    1    1    2    0    0 -0.25375122799E+01  0.37352088657E+02 -0.25049871394E+02  0.45045682950E+02  0.00000000000E+00 0.  1.
         11    1    3    3    0    0 -0.22467098757E+01 -0.25380174569E+02  0.17038056276E+02  0.30651204353E+02  0.51100000000E-03 0. -1.
        -11    1    3    3    0    0  0.48095763346E+01 -0.11461474362E+02  0.67824948663E+01  0.14159790109E+02  0.51100000000E-03 0.  1.
        -12    1    3    3    0    0 -0.25354179008E-01 -0.51043972640E+00  0.12293202520E+01  0.13313225870E+01  0.00000000000E+00 0.  1.
</event>
<event>
 7    1  0.1563903E-008  0.4614232E+02  0.7816164E-02  0.1320468E+00
        -11   -1    0    0    0    0  0.00000000000E+00  0.00000000000E+00  0.45593999997E+02  0.45594000000E+02  0.51100000000E-03 0.  1.
         11   -1    0    0    0    0 -0.00000000000E+00 -0.00000000000E+00 -0.45593999997E+02  0.45594000000E+02  0.51100000000E-03 0. -1.
    9900012    2    1    2    0    0 -0.28017498877E+02 -0.21897494431E+02 -0.27652000441E+02  0.46142316144E+02  0.99999852513E+01 0.  0.
        -12    1    1    2    0    0  0.28017498877E+02  0.21897494431E+02  0.27652000441E+02  0.45045683856E+02  0.00000000000E+00 0.  1.
         11    1    3    3    0    0 -0.24151640938E+02 -0.14450383251E+02 -0.23471675456E+02  0.36647440361E+02  0.51100000000E-03 0. -1.
        -11    1    3    3    0    0 -0.39310552085E+01 -0.67727895947E+01 -0.40021179110E+01  0.87943630799E+01  0.51100000000E-03 0.  1.
         12    1    3    3    0    0  0.65197268862E-01 -0.67432158597E+00 -0.17820707375E+00  0.70051270246E+00  0.00000000000E+00 0. -1.
</event>
<event>
 7    1  0.1563903E-008  0.4614232E+02  0.7816164E-02  0.1320468E+00
        -11   -1    0    0    0    0  0.00000000000E+00  0.00000000000E+00  0.45593999997E+02  0.45594000000E+02  0.51100000000E-03 0.  1.
         11   -1    0    0    0    0 -0.00000000000E+00 -0.00000000000E+00 -0.45593999997E+02  0.45594000000E+02  0.51100000000E-03 0. -1.
    9900012    2    1    2    0    0  0.62999129513E+01  0.44532783440E+02  0.25011513361E+01  0.46142318053E+02  0.10000002661E+02 0.  0.
        -12    1    1    2    0    0 -0.62999129513E+01 -0.44532783440E+02 -0.25011513361E+01  0.45045681947E+02  0.00000000000E+00 0.  1.
         11    1    3    3    0    0  0.49867820911E+00  0.45023425459E+01  0.22892542628E+01  0.50754757114E+01  0.51100000000E-03 0. -1.
        -11    1    3    3    0    0  0.41771469663E+00  0.12816892534E+02 -0.29132019251E+01  0.13150435944E+02  0.51100000000E-03 0.  1.
        -12    1    3    3    0    0  0.53835200456E+01  0.27213548360E+02  0.31250989985E+01  0.27916406398E+02  0.00000000000E+00 0.  1.
</event>
<event>
 7    1  0.1563903E-008  0.4614232E+02  0.7816164E-02  0.1320468E+00
        -11   -1    0    0    0    0  0.00000000000E+00  0.00000000000E+00  0.45593999997E+02  0.45594000000E+02  0.51100000000E-03 0.  1.
         11   -1    0    0    0    0 -0.00000000000E+00 -0.00000000000E+00 -0.45593999997E+02  0.45594000000E+02  0.51100000000E-03 0. -1.
    9900012    2    1    2    0    0  0.29568038475E+01  0.35941035471E+02 -0.26992827828E+02  0.46142317922E+02  0.10000001469E+02 0.  0.
        -12    1    1    2    0    0 -0.29568038475E+01 -0.35941035471E+02  0.26992827828E+02  0.45045682078E+02  0.00000000000E+00 0.  1.
         11    1    3    3    0    0  0.16955460782E+01  0.14094653808E+02 -0.96323061542E+01  0.17155624867E+02  0.51100000000E-03 0. -1.
        -11    1    3    3    0    0  0.20800956252E+00  0.21908618208E+02 -0.15466804401E+02  0.26818889954E+02  0.51100000000E-03 0.  1.
        -12    1    3    3    0    0  0.10532482068E+01 -0.62236545176E-01 -0.18937172734E+01  0.21678031009E+01  0.00000000000E+00 0.  1.
</event>
<event>
 7    1  0.1563903E-008  0.4614232E+02  0.7816164E-02  0.1320468E+00
        -11   -1    0    0    0    0  0.00000000000E+00  0.00000000000E+00  0.45593999997E+02  0.45594000000E+02  0.51100000000E-03 0. -1.
         11   -1    0    0    0    0 -0.00000000000E+00 -0.00000000000E+00 -0.45593999997E+02  0.45594000000E+02  0.51100000000E-03 0.  1.
    9900012    2    1    2    0    0  0.28902490708E+02 -0.28602709386E+02  0.19381551941E+02  0.46142317532E+02  0.99999979117E+01 0.  0.
        -12    1    1    2    0    0 -0.28902490708E+02  0.28602709386E+02 -0.19381551941E+02  0.45045682468E+02  0.00000000000E+00 0.  1.
         11    1    3    3    0    0  0.17794125122E+02 -0.12306027910E+02  0.10057114521E+02  0.23858222158E+02  0.51100000000E-03 0. -1.
        -11    1    3    3    0    0  0.36999486081E+01 -0.90218886089E+01  0.33827368419E+01  0.10321191916E+02  0.51100000000E-03 0.  1.
        -12    1    3    3    0    0  0.74084169781E+01 -0.72747928674E+01  0.59417005783E+01  0.11962903458E+02  0.00000000000E+00 0.  1.
</event>
<event>
 7    1  0.1563903E-008  0.4614232E+02  0.7816164E-02  0.1320468E+00
        -11   -1    0    0    0    0  0.00000000000E+00  0.00000000000E+00  0.45593999997E+02  0.45594000000E+02  0.51100000000E-03 0.  1.
         11   -1    0    0    0    0 -0.00000000000E+00 -0.00000000000E+00 -0.45593999997E+02  0.45594000000E+02  0.51100000000E-03 0. -1.
    9900012    2    1    2    0    0 -0.75887918763E+01 -0.31742215781E+01 -0.44288237715E+02  0.46142318246E+02  0.10000004423E+02 0.  0.
        -12    1    1    2    0    0  0.75887918763E+01  0.31742215781E+01  0.44288237715E+02  0.45045681754E+02  0.00000000000E+00 0.  1.
         11    1    3    3    0    0 -0.42053098373E+01 -0.19090077960E+01 -0.13888340243E+02  0.14636083375E+02  0.51100000000E-03 0. -1.
        -11    1    3    3    0    0  0.66745368023E+00 -0.22054017290E+01 -0.22129696312E+02  0.22249331458E+02  0.51100000000E-03 0.  1.
        -12    1    3    3    0    0 -0.40509357193E+01  0.94018794690E+00 -0.82702011597E+01  0.92569034131E+01  0.00000000000E+00 0.  1.
</event>
<event>
 7    1  0.1563903E-008  0.4614232E+02  0.7816164E-02  0.1320468E+00
        -11   -1    0    0    0    0  0.00000000000E+00  0.00000000000E+00  0.45593999997E+02  0.45594000000E+02  0.51100000000E-03 0.  1.
         11   -1    0    0    0    0 -0.00000000000E+00 -0.00000000000E+00 -0.45593999997E+02  0.45594000000E+02  0.51100000000E-03 0. -1.
    9900012    2    1    2    0    0  0.13206475342E+02  0.31514241083E+02 -0.29352258215E+02  0.46142318250E+02  0.10000004459E+02 0.  0.
        -12    1    1    2    0    0 -0.13206475342E+02 -0.31514241083E+02  0.29352258215E+02  0.45045681750E+02  0.00000000000E+00 0.  1.
         11    1    3    3    0    0  0.49998427474E+01  0.21432805107E+02 -0.17351923355E+02  0.28025930968E+02  0.51100000000E-03 0. -1.
        -11    1    3    3    0    0  0.59607709057E+00 -0.25283829499E+00 -0.18944352371E+00  0.67462894329E+00  0.51100000000E-03 0.  1.
         12    1    3    3    0    0  0.76105555037E+01  0.10334274271E+02 -0.11810891337E+02  0.17441758339E+02  0.00000000000E+00 0. -1.
</event>
<event>
 7    1  0.1563903E-008  0.4614232E+02  0.7816164E-02  0.1320468E+00
        -11   -1    0    0    0    0  0.00000000000E+00  0.00000000000E+00  0.45593999997E+02  0.45594000000E+02  0.51100000000E-03 0.  1.
         11   -1    0    0    0    0 -0.00000000000E+00 -0.00000000000E+00 -0.45593999997E+02  0.45594000000E+02  0.51100000000E-03 0. -1.
    9900012    2    1    2    0    0 -0.13464620378E+02 -0.47076548037E+01 -0.42727690754E+02  0.46142316823E+02  0.99999914465E+01 0.  0.
        -12    1    1    2    0    0  0.13464620378E+02  0.47076548037E+01  0.42727690754E+02  0.45045683177E+02  0.00000000000E+00 0.  1.
         11    1    3    3    0    0 -0.85580010651E-01 -0.55880266686E+00 -0.10765234654E+02  0.10780067800E+02  0.51100000000E-03 0. -1.
        -11    1    3    3    0    0 -0.50392335692E+01 -0.39443105050E+01 -0.10038394993E+02  0.11904656006E+02  0.51100000000E-03 0.  1.
         12    1    3    3    0    0 -0.83398067983E+01 -0.20454163182E+00 -0.21924061108E+02  0.23457593017E+02  0.00000000000E+00 0. -1.
</event>
<event>
 7    1  0.1563903E-008  0.4614232E+02  0.7816164E-02  0.1320468E+00
        -11   -1    0    0    0    0  0.00000000000E+00  0.00000000000E+00  0.45593999997E+02  0.45594000000E+02  0.51100000000E-03 0.  1.
         11   -1    0    0    0    0 -0.00000000000E+00 -0.00000000000E+00 -0.45593999997E+02  0.45594000000E+02  0.51100000000E-03 0. -1.
    9900012    2    1    2    0    0  0.25538368494E+02  0.37052977139E+02  0.19955073088E+01  0.46142318413E+02  0.10000005946E+02 0.  0.
        -12    1    1    2    0    0 -0.25538368494E+02 -0.37052977139E+02 -0.19955073088E+01  0.45045681587E+02  0.00000000000E+00 0.  1.
         11    1    3    3    0    0  0.33936429781E+01  0.26489339725E+01  0.44146379110E+00  0.43276499851E+01  0.51100000000E-03 0. -1.
        -11    1    3    3    0    0  0.22150985878E+02  0.31448994355E+02 -0.19139735243E-01  0.38466944093E+02  0.51100000000E-03 0.  1.
        -12    1    3    3    0    0 -0.62603626392E-02  0.29550488121E+01  0.15731832530E+01  0.33477243347E+01  0.00000000000E+00 0.  1.
</event>
<event>
 7    1  0.1563903E-008  0.4614232E+02  0.7816164E-02  0.1320468E+00
        -11   -1    0    0    0    0  0.00000000000E+00  0.00000000000E+00  0.45593999997E+02  0.45594000000E+02  0.51100000000E-03 0.  1.
         11   -1    0    0    0    0 -0.00000000000E+00 -0.00000000000E+00 -0.45593999997E+02  0.45594000000E+02  0.51100000000E-03 0. -1.
    9900012    2    1    2    0    0 -0.31047466117E+02 -0.25576679325E+02  0.20273182177E+02  0.46142316598E+02  0.99999893945E+01 0.  0.
        -12    1    1    2    0    0  0.31047466117E+02  0.25576679325E+02 -0.20273182177E+02  0.45045683402E+02  0.00000000000E+00 0.  1.
         11    1    3    3    0    0 -0.17423333244E+02 -0.12853582625E+02  0.55940766940E+01  0.22362486935E+02  0.51100000000E-03 0. -1.
        -11    1    3    3    0    0 -0.52759409623E+01 -0.50221542423E+01  0.67258495429E+01  0.99143652649E+01  0.51100000000E-03 0.  1.
         12    1    3    3    0    0 -0.83481919108E+01 -0.77009424575E+01  0.79532559403E+01  0.13865464398E+02  0.00000000000E+00 0. -1.
</event>
<event>
 7    1  0.1563903E-008  0.4614232E+02  0.7816164E-02  0.1320468E+00
        -11   -1    0    0    0    0  0.00000000000E+00  0.00000000000E+00  0.45593999997E+02  0.45594000000E+02  0.51100000000E-03 0.  1.
         11   -1    0    0    0    0 -0.00000000000E+00 -0.00000000000E+00 -0.45593999997E+02  0.45594000000E+02  0.51100000000E-03 0. -1.
    9900012    2    1    2    0    0  0.10470867809E+02  0.67176860320E+01 -0.43293730293E+02  0.46142318065E+02  0.10000002770E+02 0.  0.
        -12    1    1    2    0    0 -0.10470867809E+02 -0.67176860320E+01  0.43293730293E+02  0.45045681935E+02  0.00000000000E+00 0.  1.
         11    1    3    3    0    0  0.82700287748E+01  0.60782313517E+01 -0.37961184416E+02  0.39324162990E+02  0.51100000000E-03 0. -1.
        -11    1    3    3    0    0  0.24659276022E+01  0.66436933069E+00 -0.14705303473E+01  0.29469722276E+01  0.51100000000E-03 0.  1.
         12    1    3    3    0    0 -0.26508856770E+00 -0.24914650371E-01 -0.38620155297E+01  0.38711828476E+01  0.00000000000E+00 0. -1.
</event>
<event>
 7    1  0.1563903E-008  0.4614232E+02  0.7816164E-02  0.1320468E+00
        -11   -1    0    0    0    0  0.00000000000E+00  0.00000000000E+00  0.45593999997E+02  0.45594000000E+02  0.51100000000E-03 0.  1.
         11   -1    0    0    0    0 -0.00000000000E+00 -0.00000000000E+00 -0.45593999997E+02  0.45594000000E+02  0.51100000000E-03 0. -1.
    9900012    2    1    2    0    0  0.26596318667E+02  0.11040378319E+02 -0.34638985394E+02  0.46142318418E+02  0.10000005991E+02 0.  0.
        -12    1    1    2    0    0 -0.26596318667E+02 -0.11040378319E+02  0.34638985394E+02  0.45045681582E+02  0.00000000000E+00 0.  1.
         11    1    3    3    0    0  0.15109349344E+02  0.43620525867E+01 -0.19452758304E+02  0.25014590668E+02  0.51100000000E-03 0. -1.
        -11    1    3    3    0    0  0.11487151928E+01  0.28658848943E+01 -0.11767943622E+01  0.33041924964E+01  0.51100000000E-03 0.  1.
        -12    1    3    3    0    0  0.10338254130E+02  0.38124408376E+01 -0.14009432727E+02  0.17823535254E+02  0.00000000000E+00 0.  1.
</event>
<event>
 7    1  0.1563903E-008  0.4614232E+02  0.7816164E-02  0.1320468E+00
        -11   -1    0    0    0    0  0.00000000000E+00  0.00000000000E+00  0.45593999997E+02  0.45594000000E+02  0.51100000000E-03 0. -1.
         11   -1    0    0    0    0 -0.00000000000E+00 -0.00000000000E+00 -0.45593999997E+02  0.45594000000E+02  0.51100000000E-03 0.  1.
    9900012    2    1    2    0    0 -0.42319280902E+02  0.14436875559E+02 -0.54560583469E+01  0.46142317802E+02  0.10000000372E+02 0.  0.
        -12    1    1    2    0    0  0.42319280902E+02 -0.14436875559E+02  0.54560583469E+01  0.45045682198E+02  0.00000000000E+00 0.  1.
         11    1    3    3    0    0 -0.24642852465E+02  0.87381629903E+01 -0.76042634326E+01  0.27229588551E+02  0.51100000000E-03 0. -1.
        -11    1    3    3    0    0 -0.13750964383E+02  0.56042979222E+01  0.20010856791E+01  0.14983374814E+02  0.51100000000E-03 0.  1.
         12    1    3    3    0    0 -0.39254640541E+01  0.94414646694E-01  0.14711940664E+00  0.39293544363E+01  0.00000000000E+00 0. -1.
</event>
<event>
 7    1  0.1563903E-008  0.4614232E+02  0.7816164E-02  0.1320468E+00
        -11   -1    0    0    0    0  0.00000000000E+00  0.00000000000E+00  0.45593999997E+02  0.45594000000E+02  0.51100000000E-03 0. -1.
         11   -1    0    0    0    0 -0.00000000000E+00 -0.00000000000E+00 -0.45593999997E+02  0.45594000000E+02  0.51100000000E-03 0.  1.
    9900012    2    1    2    0    0  0.36778205698E+02 -0.30683556948E+00  0.26007359287E+02  0.46142319857E+02  0.10000019114E+02 0.  0.
        -12    1    1    2    0    0 -0.36778205698E+02  0.30683556948E+00 -0.26007359287E+02  0.45045680143E+02  0.00000000000E+00 0.  1.
         11    1    3    3    0    0  0.10022587095E+02 -0.22997270726E+01  0.70652308851E+01  0.12476316940E+02  0.51100000000E-03 0. -1.
        -11    1    3    3    0    0  0.56955724499E+01 -0.24164103926E+01  0.29329391379E+01  0.68469494642E+01  0.51100000000E-03 0.  1.
         12    1    3    3    0    0  0.21060046154E+02  0.44093018957E+01  0.16009189264E+02  0.26819053453E+02  0.00000000000E+00 0. -1.
</event>
<event>
 7    1  0.1563903E-008  0.4614232E+02  0.7816164E-02  0.1320468E+00
        -11   -1    0    0    0    0  0.00000000000E+00  0.00000000000E+00  0.45593999997E+02  0.45594000000E+02  0.51100000000E-03 0.  1.
         11   -1    0    0    0    0 -0.00000000000E+00 -0.00000000000E+00 -0.45593999997E+02  0.45594000000E+02  0.51100000000E-03 0. -1.
    9900012    2    1    2    0    0 -0.40795740481E+01 -0.40108724381E+02 -0.20093799466E+02  0.46142317933E+02  0.10000001565E+02 0.  0.
        -12    1    1    2    0    0  0.40795740481E+01  0.40108724381E+02  0.20093799466E+02  0.45045682067E+02  0.00000000000E+00 0.  1.
         11    1    3    3    0    0  0.13165185810E+01 -0.24993699162E+02 -0.94648571688E+01  0.26758208843E+02  0.51100000000E-03 0. -1.
        -11    1    3    3    0    0 -0.20471161653E+01 -0.46802075901E+01 -0.46101877401E+01  0.68810507149E+01  0.51100000000E-03 0.  1.
         12    1    3    3    0    0 -0.33489764638E+01 -0.10434817629E+02 -0.60187545575E+01  0.12503058375E+02  0.00000000000E+00 0. -1.
</event>
<event>
 7    1  0.1563903E-008  0.4614232E+02  0.7816164E-02  0.1320468E+00
        -11   -1    0    0    0    0  0.00000000000E+00  0.00000000000E+00  0.45593999997E+02  0.45594000000E+02  0.51100000000E-03 0. -1.
         11   -1    0    0    0    0 -0.00000000000E+00 -0.00000000000E+00 -0.45593999997E+02  0.45594000000E+02  0.51100000000E-03 0.  1.
    9900012    2    1    2    0    0  0.19555017569E+02 -0.23011561928E+02  0.33424281692E+02  0.46142319840E+02  0.10000018953E+02 0.  0.
        -12    1    1    2    0    0 -0.19555017569E+02  0.23011561928E+02 -0.33424281692E+02  0.45045680160E+02  0.00000000000E+00 0.  1.
         11    1    3    3    0    0  0.57770766907E+01 -0.10166221112E+02  0.10568941483E+02  0.15761636689E+02  0.51100000000E-03 0. -1.
        -11    1    3    3    0    0  0.76463516928E+01 -0.63326419200E+01  0.69047147890E+01  0.12093144110E+02  0.51100000000E-03 0.  1.
        -12    1    3    3    0    0  0.61315891854E+01 -0.65126988961E+01  0.15950625420E+02  0.18287539040E+02  0.00000000000E+00 0.  1.
</event>
<event>
 7    1  0.1563903E-008  0.4614232E+02  0.7816164E-02  0.1320468E+00
        -11   -1    0    0    0    0  0.00000000000E+00  0.00000000000E+00  0.45593999997E+02  0.45594000000E+02  0.51100000000E-03 0.  1.
         11   -1    0    0    0    0 -0.00000000000E+00 -0.00000000000E+00 -0.45593999997E+02  0.45594000000E+02  0.51100000000E-03 0. -1.
    9900012    2    1    2    0    0 -0.90584176663E+01  0.29901763012E+02 -0.32449084236E+02  0.46142318414E+02  0.10000005950E+02 0.  0.
        -12    1    1    2    0    0  0.90584176663E+01 -0.29901763012E+02  0.32449084236E+02  0.45045681586E+02  0.00000000000E+00 0.  1.
         11    1    3    3    0    0 -0.73073659013E+01  0.12706240012E+02 -0.16618628146E+02  0.22159082413E+02  0.51100000000E-03 0. -1.
        -11    1    3    3    0    0 -0.17938419766E+01  0.17977218444E+01 -0.15053780538E+01  0.29522595097E+01  0.51100000000E-03 0.  1.
         12    1    3    3    0    0  0.42790211668E-01  0.15397801156E+02 -0.14325078036E+02  0.21030976491E+02  0.00000000000E+00 0. -1.
</event>
<event>
 7    1  0.1563903E-008  0.4614232E+02  0.7816164E-02  0.1320468E+00
        -11   -1    0    0    0    0  0.00000000000E+00  0.00000000000E+00  0.45593999997E+02  0.45594000000E+02  0.51100000000E-03 0.  1.
         11   -1    0    0    0    0 -0.00000000000E+00 -0.00000000000E+00 -0.45593999997E+02  0.45594000000E+02  0.51100000000E-03 0. -1.
    9900012    2    1    2    0    0 -0.12452311111E+02  0.17756738941E+02 -0.39481027688E+02  0.46142318996E+02  0.10000011265E+02 0.  0.
        -12    1    1    2    0    0  0.12452311111E+02 -0.17756738941E+02  0.39481027688E+02  0.45045681004E+02  0.00000000000E+00 0.  1.
         11    1    3    3    0    0  0.72054665174E+00  0.19778288992E+01 -0.18678470072E+01  0.28142223323E+01  0.51100000000E-03 0. -1.
        -11    1    3    3    0    0 -0.11892792004E+01  0.42384424317E+00 -0.39784782056E+00  0.13237492619E+01  0.51100000000E-03 0.  1.
         12    1    3    3    0    0 -0.11983578562E+02  0.15355065799E+02 -0.37215332860E+02  0.42004347402E+02  0.00000000000E+00 0. -1.
</event>
<event>
 7    1  0.1563903E-008  0.4614232E+02  0.7816164E-02  0.1320468E+00
        -11   -1    0    0    0    0  0.00000000000E+00  0.00000000000E+00  0.45593999997E+02  0.45594000000E+02  0.51100000000E-03 0. -1.
         11   -1    0    0    0    0 -0.00000000000E+00 -0.00000000000E+00 -0.45593999997E+02  0.45594000000E+02  0.51100000000E-03 0.  1.
    9900012    2    1    2    0    0 -0.22797492749E+02 -0.76344778380E+01  0.38093337518E+02  0.46142319954E+02  0.10000020001E+02 0.  0.
        -12    1    1    2    0    0  0.22797492749E+02  0.76344778380E+01 -0.38093337518E+02  0.45045680046E+02  0.00000000000E+00 0.  1.
         11    1    3    3    0    0 -0.25790977264E+01  0.75230948641E+00  0.91434756086E+01  0.95299979597E+01  0.51100000000E-03 0. -1.
        -11    1    3    3    0    0 -0.10175191283E+02 -0.36304304007E+01  0.10444329280E+02  0.15026594987E+02  0.51100000000E-03 0.  1.
         12    1    3    3    0    0 -0.10043203740E+02 -0.47563569237E+01  0.18505532630E+02  0.21585727008E+02  0.00000000000E+00 0. -1.
</event>
<event>
 7    1  0.1563903E-008  0.4614232E+02  0.7816164E-02  0.1320468E+00
        -11   -1    0    0    0    0  0.00000000000E+00  0.00000000000E+00  0.45593999997E+02  0.45594000000E+02  0.51100000000E-03 0. -1.
         11   -1    0    0    0    0 -0.00000000000E+00 -0.00000000000E+00 -0.45593999997E+02  0.45594000000E+02  0.51100000000E-03 0.  1.
    9900012    2    1    2    0    0 -0.58249163123E+01  0.20358979418E+02  0.39757965992E+02  0.46142317046E+02  0.99999934788E+01 0.  0.
        -12    1    1    2    0    0  0.58249163123E+01 -0.20358979418E+02 -0.39757965992E+02  0.45045682954E+02  0.00000000000E+00 0.  1.
         11    1    3    3    0    0  0.16186793631E+01  0.62870900266E+01  0.13114500113E+02  0.14633445847E+02  0.51100000000E-03 0. -1.
        -11    1    3    3    0    0 -0.25101063756E+01  0.12004563401E+01  0.68017576999E+01  0.73488528023E+01  0.51100000000E-03 0.  1.
        -12    1    3    3    0    0 -0.49334892998E+01  0.12871433051E+02  0.19841708179E+02  0.24160018397E+02  0.00000000000E+00 0.  1.
</event>
<event>
 7    1  0.1563903E-008  0.4614232E+02  0.7816164E-02  0.1320468E+00
        -11   -1    0    0    0    0  0.00000000000E+00  0.00000000000E+00  0.45593999997E+02  0.45594000000E+02  0.51100000000E-03 0.  1.
         11   -1    0    0    0    0 -0.00000000000E+00 -0.00000000000E+00 -0.45593999997E+02  0.45594000000E+02  0.51100000000E-03 0. -1.
    9900012    2    1    2    0    0 -0.38342083496E+01 -0.10841382015E+02 -0.43553148440E+02  0.46142318113E+02  0.10000003209E+02 0.  0.
        -12    1    1    2    0    0  0.38342083496E+01  0.10841382015E+02  0.43553148440E+02  0.45045681887E+02  0.00000000000E+00 0.  1.
         11    1    3    3    0    0 -0.16385479341E+01 -0.81661419120E+01 -0.18683781738E+02  0.20456158324E+02  0.51100000000E-03 0. -1.
        -11    1    3    3    0    0 -0.31937146584E+01 -0.10103001765E+01 -0.75672785090E+01  0.82755195644E+01  0.51100000000E-03 0.  1.
         12    1    3    3    0    0  0.99805424294E+00 -0.16649399267E+01 -0.17302088192E+02  0.17410640225E+02  0.00000000000E+00 0. -1.
</event>
<event>
 7    1  0.1563903E-008  0.4614232E+02  0.7816164E-02  0.1320468E+00
        -11   -1    0    0    0    0  0.00000000000E+00  0.00000000000E+00  0.45593999997E+02  0.45594000000E+02  0.51100000000E-03 0. -1.
         11   -1    0    0    0    0 -0.00000000000E+00 -0.00000000000E+00 -0.45593999997E+02  0.45594000000E+02  0.51100000000E-03 0.  1.
    9900012    2    1    2    0    0  0.33195335773E+02 -0.30269475868E+02 -0.33078732301E+01  0.46142317502E+02  0.99999976364E+01 0.  0.
        -12    1    1    2    0    0 -0.33195335773E+02  0.30269475868E+02  0.33078732301E+01  0.45045682498E+02  0.00000000000E+00 0.  1.
         11    1    3    3    0    0  0.98912598743E+01 -0.10636765060E+02 -0.12628451467E+01  0.14579868689E+02  0.51100000000E-03 0. -1.
        -11    1    3    3    0    0  0.11560617490E+02 -0.50481858113E+01  0.71673395180E+00  0.12635100497E+02  0.51100000000E-03 0.  1.
         12    1    3    3    0    0  0.11743458409E+02 -0.14584524996E+02 -0.27617620352E+01  0.18927348317E+02  0.00000000000E+00 0. -1.
</event>
<event>
 7    1  0.1563903E-008  0.4614232E+02  0.7816164E-02  0.1320468E+00
        -11   -1    0    0    0    0  0.00000000000E+00  0.00000000000E+00  0.45593999997E+02  0.45594000000E+02  0.51100000000E-03 0.  1.
         11   -1    0    0    0    0 -0.00000000000E+00 -0.00000000000E+00 -0.45593999997E+02  0.45594000000E+02  0.51100000000E-03 0. -1.
    9900012    2    1    2    0    0 -0.31207145583E+02 -0.24387411370E+02 -0.21458838125E+02  0.46142317605E+02  0.99999985734E+01 0.  0.
        -12    1    1    2    0    0  0.31207145583E+02  0.24387411370E+02  0.21458838125E+02  0.45045682395E+02  0.00000000000E+00 0.  1.
         11    1    3    3    0    0 -0.18861619446E+02 -0.17476045922E+02 -0.11607124875E+02  0.28211668106E+02  0.51100000000E-03 0. -1.
        -11    1    3    3    0    0 -0.59699044133E+01 -0.33544117106E+01 -0.77320948604E+01  0.10328462026E+02  0.51100000000E-03 0.  1.
         12    1    3    3    0    0 -0.63756217234E+01 -0.35569537374E+01 -0.21196183901E+01  0.76021874726E+01  0.00000000000E+00 0. -1.
</event>
<event>
 7    1  0.1563903E-008  0.4614232E+02  0.7816164E-02  0.1320468E+00
        -11   -1    0    0    0    0  0.00000000000E+00  0.00000000000E+00  0.45593999997E+02  0.45594000000E+02  0.51100000000E-03 0.  1.
         11   -1    0    0    0    0 -0.00000000000E+00 -0.00000000000E+00 -0.45593999997E+02  0.45594000000E+02  0.51100000000E-03 0. -1.
    9900012    2    1    2    0    0 -0.18418139165E+02 -0.14563256537E+02 -0.38442130611E+02  0.46142315443E+02  0.99999788637E+01 0.  0.
        -12    1    1    2    0    0  0.18418139165E+02  0.14563256537E+02  0.38442130611E+02  0.45045684557E+02  0.00000000000E+00 0.  1.
         11    1    3    3    0    0 -0.11024506593E+02 -0.12698269138E+02 -0.24485276234E+02  0.29703779848E+02  0.51100000000E-03 0. -1.
        -11    1    3    3    0    0 -0.51994300076E+01  0.29148813153E+00 -0.62183753579E+01  0.81109327507E+01  0.51100000000E-03 0.  1.
        -12    1    3    3    0    0 -0.21942025636E+01 -0.21564755299E+01 -0.77384790191E+01  0.83276028442E+01  0.00000000000E+00 0.  1.
</event>
<event>
 7    1  0.1563903E-008  0.4614232E+02  0.7816164E-02  0.1320468E+00
        -11   -1    0    0    0    0  0.00000000000E+00  0.00000000000E+00  0.45593999997E+02  0.45594000000E+02  0.51100000000E-03 0.  1.
         11   -1    0    0    0    0 -0.00000000000E+00 -0.00000000000E+00 -0.45593999997E+02  0.45594000000E+02  0.51100000000E-03 0. -1.
    9900012    2    1    2    0    0  0.13567001173E+02  0.35822184525E+01 -0.42804411928E+02  0.46142317739E+02  0.99999997972E+01 0.  0.
        -12    1    1    2    0    0 -0.13567001173E+02 -0.35822184525E+01  0.42804411928E+02  0.45045682261E+02  0.00000000000E+00 0.  1.
         11    1    3    3    0    0  0.90600696230E+01  0.94865878636E+00 -0.33426862540E+02  0.34645922626E+02  0.51100000000E-03 0. -1.
        -11    1    3    3    0    0  0.78815548923E+00  0.36978508632E+00  0.27042418419E+00  0.91162469569E+00  0.51100000000E-03 0.  1.
        -12    1    3    3    0    0  0.37187760610E+01  0.22637745798E+01 -0.96479735724E+01  0.10584770418E+02  0.00000000000E+00 0.  1.
</event>
<event>
 7    1  0.1563903E-008  0.4614232E+02  0.7816164E-02  0.1320468E+00
        -11   -1    0    0    0    0  0.00000000000E+00  0.00000000000E+00  0.45593999997E+02  0.45594000000E+02  0.51100000000E-03 0.  1.
         11   -1    0    0    0    0 -0.00000000000E+00 -0.00000000000E+00 -0.45593999997E+02  0.45594000000E+02  0.51100000000E-03 0. -1.
    9900012    2    1    2    0    0 -0.22757442151E+02 -0.21462123366E+01 -0.38815023269E+02  0.46142318387E+02  0.10000005707E+02 0.  0.
        -12    1    1    2    0    0  0.22757442151E+02  0.21462123366E+01  0.38815023269E+02  0.45045681613E+02  0.00000000000E+00 0.  1.
         11    1    3    3    0    0  0.48719815518E+00  0.97899472528E+00 -0.27249124268E+01  0.29361438502E+01  0.51100000000E-03 0. -1.
        -11    1    3    3    0    0 -0.74098381663E+01 -0.26509303558E+01 -0.10778052123E+02  0.13345394008E+02  0.51100000000E-03 0.  1.
         12    1    3    3    0    0 -0.15834802140E+02 -0.47427670607E+00 -0.25312058719E+02  0.29860780529E+02  0.00000000000E+00 0. -1.
</event>
<event>
 7    1  0.1563903E-008  0.4614232E+02  0.7816164E-02  0.1320468E+00
        -11   -1    0    0    0    0  0.00000000000E+00  0.00000000000E+00  0.45593999997E+02  0.45594000000E+02  0.51100000000E-03 0. -1.
         11   -1    0    0    0    0 -0.00000000000E+00 -0.00000000000E+00 -0.45593999997E+02  0.45594000000E+02  0.51100000000E-03 0.  1.
    9900012    2    1    2    0    0 -0.36850987383E+02  0.41138915797E+01  0.25577220588E+02  0.46142316655E+02  0.99999899145E+01 0.  0.
        -12    1    1    2    0    0  0.36850987383E+02 -0.41138915797E+01 -0.25577220588E+02  0.45045683345E+02  0.00000000000E+00 0.  1.
         11    1    3    3    0    0 -0.59477480393E+01 -0.35990726379E-01  0.21416582613E+01  0.63216850950E+01  0.51100000000E-03 0.  1.
        -11    1    3    3    0    0 -0.20521390263E+02  0.34254737122E+01  0.10769395100E+02  0.23427360064E+02  0.51100000000E-03 0. -1.
        -12    1    3    3    0    0 -0.10381849081E+02  0.72440859388E+00  0.12666167227E+02  0.16393271496E+02  0.00000000000E+00 0.  1.
</event>
<event>
 7    1  0.1563903E-008  0.4614232E+02  0.7816164E-02  0.1320468E+00
        -11   -1    0    0    0    0  0.00000000000E+00  0.00000000000E+00  0.45593999997E+02  0.45594000000E+02  0.51100000000E-03 0. -1.
         11   -1    0    0    0    0 -0.00000000000E+00 -0.00000000000E+00 -0.45593999997E+02  0.45594000000E+02  0.51100000000E-03 0.  1.
    9900012    2    1    2    0    0  0.25329679941E+02  0.28804774445E+02  0.23617911471E+02  0.46142318087E+02  0.10000002975E+02 0.  0.
        -12    1    1    2    0    0 -0.25329679941E+02 -0.28804774445E+02 -0.23617911471E+02  0.45045681913E+02  0.00000000000E+00 0.  1.
         11    1    3    3    0    0  0.58842295924E+00 -0.37648938091E+00  0.19672392556E+01  0.20875862575E+01  0.51100000000E-03 0. -1.
        -11    1    3    3    0    0  0.24510504577E+02  0.29175681059E+02  0.21645917932E+02  0.43823862943E+02  0.51100000000E-03 0.  1.
        -12    1    3    3    0    0  0.23075240490E+00  0.55827665214E-02  0.47542832832E-02  0.23086888673E+00  0.00000000000E+00 0.  1.
</event>
<event>
 7    1  0.1563903E-008  0.4614232E+02  0.7816164E-02  0.1320468E+00
        -11   -1    0    0    0    0  0.00000000000E+00  0.00000000000E+00  0.45593999997E+02  0.45594000000E+02  0.51100000000E-03 0.  1.
         11   -1    0    0    0    0 -0.00000000000E+00 -0.00000000000E+00 -0.45593999997E+02  0.45594000000E+02  0.51100000000E-03 0. -1.
    9900012    2    1    2    0    0 -0.12519871743E+01 -0.76808987253E+01 -0.44368342691E+02  0.46142317518E+02  0.99999977811E+01 0.  0.
        -12    1    1    2    0    0  0.12519871743E+01  0.76808987253E+01  0.44368342691E+02  0.45045682482E+02  0.00000000000E+00 0.  1.
         11    1    3    3    0    0  0.18560502219E+01 -0.59318078664E+00 -0.88477675265E+01  0.90597889785E+01  0.51100000000E-03 0.  1.
        -11    1    3    3    0    0 -0.82265170489E+00 -0.50538905625E+01 -0.32048305599E+02  0.32454775575E+02  0.51100000000E-03 0. -1.
        -12    1    3    3    0    0 -0.22853856913E+01 -0.20338273761E+01 -0.34722695662E+01  0.46277529638E+01  0.00000000000E+00 0.  1.
</event>
<event>
 7    1  0.1563903E-008  0.4614232E+02  0.7816164E-02  0.1320468E+00
        -11   -1    0    0    0    0  0.00000000000E+00  0.00000000000E+00  0.45593999997E+02  0.45594000000E+02  0.51100000000E-03 0.  1.
         11   -1    0    0    0    0 -0.00000000000E+00 -0.00000000000E+00 -0.45593999997E+02  0.45594000000E+02  0.51100000000E-03 0. -1.
    9900012    2    1    2    0    0  0.67936978650E+01  0.43406346466E+02  0.99422449102E+01  0.46142317876E+02  0.10000001043E+02 0.  0.
        -12    1    1    2    0    0 -0.67936978650E+01 -0.43406346466E+02 -0.99422449102E+01  0.45045682124E+02  0.00000000000E+00 0.  1.
         11    1    3    3    0    0  0.76584447227E+01  0.23737739114E+02  0.42746431154E+01  0.25306216783E+02  0.51100000000E-03 0. -1.
        -11    1    3    3    0    0 -0.13668968958E+01  0.90205485646E+01  0.43092505552E+01  0.10090012098E+02  0.51100000000E-03 0.  1.
         12    1    3    3    0    0  0.50215003815E+00  0.10648058787E+02  0.13583512396E+01  0.10746088995E+02  0.00000000000E+00 0. -1.
</event>
<event>
 7    1  0.1563903E-008  0.4614232E+02  0.7816164E-02  0.1320468E+00
        -11   -1    0    0    0    0  0.00000000000E+00  0.00000000000E+00  0.45593999997E+02  0.45594000000E+02  0.51100000000E-03 0.  1.
         11   -1    0    0    0    0 -0.00000000000E+00 -0.00000000000E+00 -0.45593999997E+02  0.45594000000E+02  0.51100000000E-03 0. -1.
    9900012    2    1    2    0    0  0.29012247813E+01 -0.96593054555E+01 -0.43902097108E+02  0.46142318546E+02  0.10000007159E+02 0.  0.
        -12    1    1    2    0    0 -0.29012247813E+01  0.96593054555E+01  0.43902097108E+02  0.45045681454E+02  0.00000000000E+00 0.  1.
         11    1    3    3    0    0  0.21417682749E+01 -0.75441599613E+01 -0.24655001525E+02  0.25872197845E+02  0.51100000000E-03 0. -1.
        -11    1    3    3    0    0  0.26404022900E+01 -0.26372120806E+01 -0.16392425246E+02  0.16811847535E+02  0.51100000000E-03 0.  1.
        -12    1    3    3    0    0 -0.18809457836E+01  0.52206658650E+00 -0.28546703370E+01  0.34582731665E+01  0.00000000000E+00 0.  1.
</event>
<event>
 7    1  0.1563903E-008  0.4614232E+02  0.7816164E-02  0.1320468E+00
        -11   -1    0    0    0    0  0.00000000000E+00  0.00000000000E+00  0.45593999997E+02  0.45594000000E+02  0.51100000000E-03 0. -1.
         11   -1    0    0    0    0 -0.00000000000E+00 -0.00000000000E+00 -0.45593999997E+02  0.45594000000E+02  0.51100000000E-03 0.  1.
    9900012    2    1    2    0    0 -0.44178906380E+02 -0.44528659651E+01  0.75835131950E+01  0.46142318114E+02  0.10000003217E+02 0.  0.
        -12    1    1    2    0    0  0.44178906380E+02  0.44528659651E+01 -0.75835131950E+01  0.45045681886E+02  0.00000000000E+00 0.  1.
         11    1    3    3    0    0 -0.29037908675E+02 -0.40738161656E+01  0.79054502816E+01  0.30369265101E+02  0.51100000000E-03 0. -1.
        -11    1    3    3    0    0 -0.35988094414E+00  0.83269901756E+00 -0.25462460685E+00  0.94219737812E+00  0.51100000000E-03 0.  1.
         12    1    3    3    0    0 -0.14781116760E+02 -0.12117488171E+01 -0.67312479740E-01  0.14830855634E+02  0.00000000000E+00 0. -1.
</event>
<event>
 7    1  0.1958789E-008  0.4614232E+02  0.7816164E-02  0.1320468E+00
        -11   -1    0    0    0    0  0.00000000000E+00  0.00000000000E+00  0.45593999997E+02  0.45594000000E+02  0.51100000000E-03 0. -1.
         11   -1    0    0    0    0 -0.00000000000E+00 -0.00000000000E+00 -0.45593999997E+02  0.45594000000E+02  0.51100000000E-03 0.  1.
    9900012    2    1    2    0    0 -0.39617975307E+02  0.17299808899E+02 -0.12658835891E+02  0.46142317837E+02  0.10000000695E+02 0.  0.
        -12    1    1    2    0    0  0.39617975307E+02 -0.17299808899E+02  0.12658835891E+02  0.45045682163E+02  0.00000000000E+00 0.  1.
         11    1    3    3    0    0 -0.38793598611E+02  0.15595408941E+02 -0.13190013853E+02  0.43842177625E+02  0.51100000000E-03 0. -1.
        -11    1    3    3    0    0 -0.20829576925E-02  0.39503162903E+00  0.63788577923E+00  0.75030184267E+00  0.51100000000E-03 0.  1.
         12    1    3    3    0    0 -0.82229373870E+00  0.13093683289E+01 -0.10670781737E+00  0.15498383696E+01  0.00000000000E+00 0. -1.
</event>
<event>
 7    1  0.1563903E-008  0.4614232E+02  0.7816164E-02  0.1320468E+00
        -11   -1    0    0    0    0  0.00000000000E+00  0.00000000000E+00  0.45593999997E+02  0.45594000000E+02  0.51100000000E-03 0. -1.
         11   -1    0    0    0    0 -0.00000000000E+00 -0.00000000000E+00 -0.45593999997E+02  0.45594000000E+02  0.51100000000E-03 0.  1.
    9900012    2    1    2    0    0  0.13093119260E+02 -0.67638842501E+00  0.43095545823E+02  0.46142319374E+02  0.10000014710E+02 0.  0.
        -12    1    1    2    0    0 -0.13093119260E+02  0.67638842501E+00 -0.43095545823E+02  0.45045680626E+02  0.00000000000E+00 0.  1.
         11    1    3    3    0    0  0.84573884228E+01  0.20858067409E+01  0.16673017067E+02  0.18811366433E+02  0.51100000000E-03 0. -1.
        -11    1    3    3    0    0 -0.70801885540E+00 -0.29617078732E+00  0.11526112645E+01  0.13847457611E+01  0.51100000000E-03 0.  1.
         12    1    3    3    0    0  0.53437496926E+01 -0.24660243786E+01  0.25269917491E+02  0.25946207180E+02  0.00000000000E+00 0. -1.
</event>
<event>
 7    1  0.1563903E-008  0.4614232E+02  0.7816164E-02  0.1320468E+00
        -11   -1    0    0    0    0  0.00000000000E+00  0.00000000000E+00  0.45593999997E+02  0.45594000000E+02  0.51100000000E-03 0.  1.
         11   -1    0    0    0    0 -0.00000000000E+00 -0.00000000000E+00 -0.45593999997E+02  0.45594000000E+02  0.51100000000E-03 0. -1.
    9900012    2    1    2    0    0 -0.19117817866E+02 -0.34833530887E+02 -0.21219033695E+02  0.46142320685E+02  0.10000026659E+02 0.  0.
        -12    1    1    2    0    0  0.19117817866E+02  0.34833530887E+02  0.21219033695E+02  0.45045679315E+02  0.00000000000E+00 0.  1.
         11    1    3    3    0    0 -0.19014197926E+01 -0.38523218873E+01 -0.32011612466E+01  0.53575381229E+01  0.51100000000E-03 0. -1.
        -11    1    3    3    0    0 -0.11397593410E+02 -0.11378160361E+02 -0.70465394965E+01  0.17579004178E+02  0.51100000000E-03 0.  1.
        -12    1    3    3    0    0 -0.58188046625E+01 -0.19603048639E+02 -0.10971332952E+02  0.23205778384E+02  0.00000000000E+00 0.  1.
</event>
<event>
 7    1  0.1563903E-008  0.4614232E+02  0.7816164E-02  0.1320468E+00
        -11   -1    0    0    0    0  0.00000000000E+00  0.00000000000E+00  0.45593999997E+02  0.45594000000E+02  0.51100000000E-03 0.  1.
         11   -1    0    0    0    0 -0.00000000000E+00 -0.00000000000E+00 -0.45593999997E+02  0.45594000000E+02  0.51100000000E-03 0. -1.
    9900012    2    1    2    0    0 -0.13254000442E+02  0.27429771510E+02 -0.33182112396E+02  0.46142317900E+02  0.10000001268E+02 0.  0.
        -12    1    1    2    0    0  0.13254000442E+02 -0.27429771510E+02  0.33182112396E+02  0.45045682100E+02  0.00000000000E+00 0.  1.
         11    1    3    3    0    0 -0.88225355677E+01  0.18815496790E+02 -0.28678545494E+02  0.35416366629E+02  0.51100000000E-03 0. -1.
        -11    1    3    3    0    0 -0.10217364036E+01  0.29506489436E+01 -0.15273145128E+01  0.34760558610E+01  0.51100000000E-03 0.  1.
         12    1    3    3    0    0 -0.34097284704E+01  0.56636257757E+01 -0.29762523892E+01  0.72498954098E+01  0.00000000000E+00 0. -1.
</event>
<event>
 7    1  0.1563903E-008  0.4614232E+02  0.7816164E-02  0.1320468E+00
        -11   -1    0    0    0    0  0.00000000000E+00  0.00000000000E+00  0.45593999997E+02  0.45594000000E+02  0.51100000000E-03 0. -1.
         11   -1    0    0    0    0 -0.00000000000E+00 -0.00000000000E+00 -0.45593999997E+02  0.45594000000E+02  0.51100000000E-03 0.  1.
    9900012    2    1    2    0    0 -0.35413985068E+02 -0.13598188595E+02  0.24290987900E+02  0.46142321355E+02  0.10000032773E+02 0.  0.
        -12    1    1    2    0    0  0.35413985068E+02  0.13598188595E+02 -0.24290987900E+02  0.45045678645E+02  0.00000000000E+00 0.  1.
         11    1    3    3    0    0 -0.21726533126E+02 -0.82624687684E+01  0.14631277035E+02  0.27466068153E+02  0.51100000000E-03 0. -1.
        -11    1    3    3    0    0 -0.46754852080E+01  0.94397595433E+00  0.15242201245E+01  0.50074444362E+01  0.51100000000E-03 0.  1.
        -12    1    3    3    0    0 -0.90119667333E+01 -0.62796957809E+01  0.81354907398E+01  0.13668808766E+02  0.00000000000E+00 0.  1.
</event>
<event>
 7    1  0.1563903E-008  0.4614232E+02  0.7816164E-02  0.1320468E+00
        -11   -1    0    0    0    0  0.00000000000E+00  0.00000000000E+00  0.45593999997E+02  0.45594000000E+02  0.51100000000E-03 0. -1.
         11   -1    0    0    0    0 -0.00000000000E+00 -0.00000000000E+00 -0.45593999997E+02  0.45594000000E+02  0.51100000000E-03 0.  1.
    9900012    2    1    2    0    0  0.10792390492E+02 -0.15073151809E+02  0.41054084389E+02  0.46142318264E+02  0.10000004587E+02 0.  0.
        -12    1    1    2    0    0 -0.10792390492E+02  0.15073151809E+02 -0.41054084389E+02  0.45045681736E+02  0.00000000000E+00 0.  1.
         11    1    3    3    0    0  0.64357568242E+01 -0.11209930820E+02  0.19126140929E+02  0.23084427261E+02  0.51100000000E-03 0. -1.
        -11    1    3    3    0    0  0.43100871080E+00  0.10349297314E+00  0.85641675697E+01  0.85756309230E+01  0.51100000000E-03 0.  1.
        -12    1    3    3    0    0  0.39256249570E+01 -0.39667139630E+01  0.13363775891E+02  0.14482260080E+02  0.00000000000E+00 0.  1.
</event>
<event>
 7    1  0.2348134E-008  0.4614232E+02  0.7816164E-02  0.1320468E+00
        -11   -1    0    0    0    0  0.00000000000E+00  0.00000000000E+00  0.45593999997E+02  0.45594000000E+02  0.51100000000E-03 0. -1.
         11   -1    0    0    0    0 -0.00000000000E+00 -0.00000000000E+00 -0.45593999997E+02  0.45594000000E+02  0.51100000000E-03 0.  1.
    9900012    2    1    2    0    0 -0.13120063305E+02  0.15910773148E+02  0.40047780505E+02  0.46142317780E+02  0.10000000170E+02 0.  0.
        -12    1    1    2    0    0  0.13120063305E+02 -0.15910773148E+02 -0.40047780505E+02  0.45045682220E+02  0.00000000000E+00 0.  1.
         11    1    3    3    0    0 -0.64704208205E+01  0.50363211148E+01  0.22661732361E+02  0.24099481111E+02  0.51100000000E-03 0. -1.
        -11    1    3    3    0    0 -0.17481791425E+01  0.39331533740E+01  0.27159020818E+01  0.50893958538E+01  0.51100000000E-03 0.  1.
         12    1    3    3    0    0 -0.49014633423E+01  0.69412986593E+01  0.14670146062E+02  0.16953440815E+02  0.00000000000E+00 0. -1.
</event>
<event>
 7    1  0.1563903E-008  0.4614232E+02  0.7816164E-02  0.1320468E+00
        -11   -1    0    0    0    0  0.00000000000E+00  0.00000000000E+00  0.45593999997E+02  0.45594000000E+02  0.51100000000E-03 0.  1.
         11   -1    0    0    0    0 -0.00000000000E+00 -0.00000000000E+00 -0.45593999997E+02  0.45594000000E+02  0.51100000000E-03 0. -1.
    9900012    2    1    2    0    0  0.10676456779E+02 -0.21326361631E+02 -0.38214041702E+02  0.46142318598E+02  0.10000007627E+02 0.  0.
        -12    1    1    2    0    0 -0.10676456779E+02  0.21326361631E+02  0.38214041702E+02  0.45045681402E+02  0.00000000000E+00 0.  1.
         11    1    3    3    0    0  0.49859425119E+01 -0.77340655182E+01 -0.11109322127E+02  0.14425409199E+02  0.51100000000E-03 0. -1.
        -11    1    3    3    0    0  0.57017876833E+01 -0.14363049755E+02 -0.26691657509E+02  0.30842376074E+02  0.51100000000E-03 0.  1.
        -12    1    3    3    0    0 -0.11273416691E-01  0.77075364135E+00 -0.41306206640E+00  0.87453332485E+00  0.00000000000E+00 0.  1.
</event>
<event>
 7    1  0.1563903E-008  0.4614232E+02  0.7816164E-02  0.1320468E+00
        -11   -1    0    0    0    0  0.00000000000E+00  0.00000000000E+00  0.45593999997E+02  0.45594000000E+02  0.51100000000E-03 0.  1.
         11   -1    0    0    0    0 -0.00000000000E+00 -0.00000000000E+00 -0.45593999997E+02  0.45594000000E+02  0.51100000000E-03 0. -1.
    9900012    2    1    2    0    0 -0.37207014693E+02 -0.79151443731E+01 -0.24126790020E+02  0.46142318193E+02  0.10000003934E+02 0.  0.
        -12    1    1    2    0    0  0.37207014693E+02  0.79151443731E+01  0.24126790020E+02  0.45045681807E+02  0.00000000000E+00 0.  1.
         11    1    3    3    0    0 -0.23371613348E+02 -0.26727370787E+01 -0.10620126706E+02  0.25810132225E+02  0.51100000000E-03 0. -1.
        -11    1    3    3    0    0 -0.42019069649E+01 -0.30192173879E+01 -0.59719045945E+01  0.79016036678E+01  0.51100000000E-03 0.  1.
         12    1    3    3    0    0 -0.96334943802E+01 -0.22231899065E+01 -0.75347587199E+01  0.12430582299E+02  0.00000000000E+00 0. -1.
</event>
<event>
 7    1  0.1563903E-008  0.4614233E+02  0.7816164E-02  0.1320468E+00
        -11   -1    0    0    0    0  0.00000000000E+00  0.00000000000E+00  0.45593999997E+02  0.45594000000E+02  0.51100000000E-03 0.  1.
         11   -1    0    0    0    0 -0.00000000000E+00 -0.00000000000E+00 -0.45593999997E+02  0.45594000000E+02  0.51100000000E-03 0. -1.
    9900012    2    1    2    0    0  0.41266968191E+02 -0.11899457830E+02 -0.13585019153E+02  0.46142328669E+02  0.10000099464E+02 0.  0.
        -12    1    1    2    0    0 -0.41266968191E+02  0.11899457830E+02  0.13585019153E+02  0.45045671331E+02  0.00000000000E+00 0.  1.
         11    1    3    3    0    0  0.12796273545E+02 -0.50756494046E+00 -0.75594116743E+00  0.12828627600E+02  0.51100000000E-03 0.  1.
        -11    1    3    3    0    0  0.25738535605E+02 -0.10861733271E+02 -0.11274169090E+02  0.30125675987E+02  0.51100000000E-03 0. -1.
        -12    1    3    3    0    0  0.27321590413E+01 -0.53015961811E+00 -0.15549088950E+01  0.31880250814E+01  0.00000000000E+00 0.  1.
</event>
<event>
 7    1  0.1563903E-008  0.4614232E+02  0.7816164E-02  0.1320468E+00
        -11   -1    0    0    0    0  0.00000000000E+00  0.00000000000E+00  0.45593999997E+02  0.45594000000E+02  0.51100000000E-03 0.  1.
         11   -1    0    0    0    0 -0.00000000000E+00 -0.00000000000E+00 -0.45593999997E+02  0.45594000000E+02  0.51100000000E-03 0. -1.
    9900012    2    1    2    0    0  0.14562494112E+02  0.25384973411E+02 -0.34243983509E+02  0.46142317450E+02  0.99999971644E+01 0.  0.
        -12    1    1    2    0    0 -0.14562494112E+02 -0.25384973411E+02  0.34243983509E+02  0.45045682550E+02  0.00000000000E+00 0.  1.
         11    1    3    3    0    0  0.31136866691E+01  0.78869963578E+01 -0.11142485280E+02  0.14001954674E+02  0.51100000000E-03 0. -1.
        -11    1    3    3    0    0  0.21775229322E+01  0.58655539671E+01 -0.25177483399E+01  0.67442854644E+01  0.51100000000E-03 0.  1.
        -12    1    3    3    0    0  0.92712845104E+01  0.11632423086E+02 -0.20583749889E+02  0.25396077312E+02  0.00000000000E+00 0.  1.
</event>
<event>
 7    1  0.1563903E-008  0.4614232E+02  0.7816164E-02  0.1320468E+00
        -11   -1    0    0    0    0  0.00000000000E+00  0.00000000000E+00  0.45593999997E+02  0.45594000000E+02  0.51100000000E-03 0.  1.
         11   -1    0    0    0    0 -0.00000000000E+00 -0.00000000000E+00 -0.45593999997E+02  0.45594000000E+02  0.51100000000E-03 0. -1.
    9900012    2    1    2    0    0 -0.32850162787E+00 -0.26297517778E+02 -0.36571108303E+02  0.46142319662E+02  0.10000017332E+02 0.  0.
        -12    1    1    2    0    0  0.32850162787E+00  0.26297517778E+02  0.36571108303E+02  0.45045680338E+02  0.00000000000E+00 0.  1.
         11    1    3    3    0    0  0.10634454145E+01 -0.16774701435E+02 -0.16799206838E+02  0.23764151048E+02  0.51100000000E-03 0.  1.
        -11    1    3    3    0    0  0.12444309997E+01 -0.31158658711E+01 -0.45455628843E+01  0.56497230760E+01  0.51100000000E-03 0. -1.
         12    1    3    3    0    0 -0.26363780421E+01 -0.64069504720E+01 -0.15226338581E+02  0.16728445538E+02  0.00000000000E+00 0. -1.
</event>
<event>
 7    1  0.1563903E-008  0.4614232E+02  0.7816164E-02  0.1320468E+00
        -11   -1    0    0    0    0  0.00000000000E+00  0.00000000000E+00  0.45593999997E+02  0.45594000000E+02  0.51100000000E-03 0.  1.
         11   -1    0    0    0    0 -0.00000000000E+00 -0.00000000000E+00 -0.45593999997E+02  0.45594000000E+02  0.51100000000E-03 0. -1.
    9900012    2    1    2    0    0 -0.23858920991E+02 -0.37838240410E+02 -0.53040389604E+01  0.46142318992E+02  0.10000011226E+02 0.  0.
        -12    1    1    2    0    0  0.23858920991E+02  0.37838240410E+02  0.53040389604E+01  0.45045681008E+02  0.00000000000E+00 0.  1.
         11    1    3    3    0    0 -0.19609909132E+02 -0.28394105442E+02 -0.35443335251E+01  0.34689134617E+02  0.51100000000E-03 0. -1.
        -11    1    3    3    0    0 -0.37700838162E+01 -0.68048147659E+01  0.70380525224E+00  0.78111700835E+01  0.51100000000E-03 0.  1.
         12    1    3    3    0    0 -0.47892804230E+00 -0.26393202016E+01 -0.24635106875E+01  0.36420142921E+01  0.00000000000E+00 0. -1.
</event>
<event>
 7    1  0.1563903E-008  0.4614232E+02  0.7816164E-02  0.1320468E+00
        -11   -1    0    0    0    0  0.00000000000E+00  0.00000000000E+00  0.45593999997E+02  0.45594000000E+02  0.51100000000E-03 0. -1.
         11   -1    0    0    0    0 -0.00000000000E+00 -0.00000000000E+00 -0.45593999997E+02  0.45594000000E+02  0.51100000000E-03 0.  1.
    9900012    2    1    2    0    0  0.29570448287E+02  0.30175249837E+02  0.15625498504E+02  0.46142319651E+02  0.10000017236E+02 0.  0.
        -12    1    1    2    0    0 -0.29570448287E+02 -0.30175249837E+02 -0.15625498504E+02  0.45045680349E+02  0.00000000000E+00 0.  1.
         11    1    3    3    0    0  0.74189890950E+01  0.87648944118E+01  0.23823222541E+01  0.11727754808E+02  0.51100000000E-03 0. -1.
        -11    1    3    3    0    0  0.72827835371E-01  0.29182705134E+01  0.17684930891E+01  0.34130887405E+01  0.51100000000E-03 0.  1.
        -12    1    3    3    0    0  0.22078631356E+02  0.18492084911E+02  0.11474683161E+02  0.31001476103E+02  0.00000000000E+00 0.  1.
</event>
<event>
 7    1  0.1563903E-008  0.4614232E+02  0.7816164E-02  0.1320468E+00
        -11   -1    0    0    0    0  0.00000000000E+00  0.00000000000E+00  0.45593999997E+02  0.45594000000E+02  0.51100000000E-03 0.  1.
         11   -1    0    0    0    0 -0.00000000000E+00 -0.00000000000E+00 -0.45593999997E+02  0.45594000000E+02  0.51100000000E-03 0. -1.
    9900012    2    1    2    0    0 -0.25957871180E+02  0.30945710019E+02 -0.19941550623E+02  0.46142317787E+02  0.10000000236E+02 0.  0.
        -12    1    1    2    0    0  0.25957871180E+02 -0.30945710019E+02  0.19941550623E+02  0.45045682213E+02  0.00000000000E+00 0.  1.
         11    1    3    3    0    0 -0.55785341626E+01  0.11399683471E+02 -0.60674971210E+01  0.14067243803E+02  0.51100000000E-03 0. -1.
        -11    1    3    3    0    0 -0.14392379619E+02  0.11391612561E+02 -0.11577836514E+02  0.21701514381E+02  0.51100000000E-03 0.  1.
         12    1    3    3    0    0 -0.59869573986E+01  0.81544139871E+01 -0.22962169872E+01  0.10373559602E+02  0.00000000000E+00 0. -1.
</event>
<event>
 7    1  0.1563903E-008  0.4614232E+02  0.7816164E-02  0.1320468E+00
        -11   -1    0    0    0    0  0.00000000000E+00  0.00000000000E+00  0.45593999997E+02  0.45594000000E+02  0.51100000000E-03 0.  1.
         11   -1    0    0    0    0 -0.00000000000E+00 -0.00000000000E+00 -0.45593999997E+02  0.45594000000E+02  0.51100000000E-03 0. -1.
    9900012    2    1    2    0    0 -0.22243035565E+02 -0.34694099211E+02 -0.18184602007E+02  0.46142324277E+02  0.10000059417E+02 0.  0.
        -12    1    1    2    0    0  0.22243035565E+02  0.34694099211E+02  0.18184602007E+02  0.45045675723E+02  0.00000000000E+00 0.  1.
         11    1    3    3    0    0 -0.86173817160E+01 -0.18564579901E+02 -0.63145357304E+01  0.21419062918E+02  0.51100000000E-03 0. -1.
        -11    1    3    3    0    0 -0.54537663874E+01 -0.60444724572E+01 -0.73799425092E+01  0.10988301361E+02  0.51100000000E-03 0.  1.
        -12    1    3    3    0    0 -0.81718874614E+01 -0.10085046853E+02 -0.44901237671E+01  0.13734959998E+02  0.00000000000E+00 0.  1.
</event>
<event>
 7    1  0.1563903E-008  0.4614232E+02  0.7816164E-02  0.1320468E+00
        -11   -1    0    0    0    0  0.00000000000E+00  0.00000000000E+00  0.45593999997E+02  0.45594000000E+02  0.51100000000E-03 0. -1.
         11   -1    0    0    0    0 -0.00000000000E+00 -0.00000000000E+00 -0.45593999997E+02  0.45594000000E+02  0.51100000000E-03 0.  1.
    9900012    2    1    2    0    0 -0.40026783457E+02 -0.62910189376E+01  0.19682304903E+02  0.46142318304E+02  0.10000004949E+02 0.  0.
        -12    1    1    2    0    0  0.40026783457E+02  0.62910189376E+01 -0.19682304903E+02  0.45045681696E+02  0.00000000000E+00 0.  1.
         11    1    3    3    0    0 -0.27444041822E+02 -0.32335216736E+01  0.10496572277E+02  0.29560262580E+02  0.51100000000E-03 0. -1.
        -11    1    3    3    0    0 -0.10791438144E+01  0.10206514061E+01  0.38363013552E+00  0.15340968049E+01  0.51100000000E-03 0.  1.
         12    1    3    3    0    0 -0.11503597820E+02 -0.40781486700E+01  0.88021024901E+01  0.15047958919E+02  0.00000000000E+00 0. -1.
</event>
<event>
 7    1  0.1563903E-008  0.4614232E+02  0.7816164E-02  0.1320468E+00
        -11   -1    0    0    0    0  0.00000000000E+00  0.00000000000E+00  0.45593999997E+02  0.45594000000E+02  0.51100000000E-03 0.  1.
         11   -1    0    0    0    0 -0.00000000000E+00 -0.00000000000E+00 -0.45593999997E+02  0.45594000000E+02  0.51100000000E-03 0. -1.
    9900012    2    1    2    0    0 -0.15967347988E+02  0.32445328404E+02 -0.26859967188E+02  0.46142319026E+02  0.10000011536E+02 0.  0.
        -12    1    1    2    0    0  0.15967347988E+02 -0.32445328404E+02  0.26859967188E+02  0.45045680974E+02  0.00000000000E+00 0.  1.
         11    1    3    3    0    0 -0.40542705312E+01  0.81477126667E+01 -0.10597068150E+02  0.13968542690E+02  0.51100000000E-03 0. -1.
        -11    1    3    3    0    0 -0.14934434711E+01  0.19812100290E+01  0.29166187423E+00  0.24981259956E+01  0.51100000000E-03 0.  1.
         12    1    3    3    0    0 -0.10419633986E+02  0.22316405708E+02 -0.16554560913E+02  0.29675650341E+02  0.00000000000E+00 0. -1.
</event>
<event>
 7    1  0.1563903E-008  0.4614232E+02  0.7816164E-02  0.1320468E+00
        -11   -1    0    0    0    0  0.00000000000E+00  0.00000000000E+00  0.45593999997E+02  0.45594000000E+02  0.51100000000E-03 0.  1.
         11   -1    0    0    0    0 -0.00000000000E+00 -0.00000000000E+00 -0.45593999997E+02  0.45594000000E+02  0.51100000000E-03 0. -1.
    9900012    2    1    2    0    0 -0.39376485687E+02  0.18600285334E+02 -0.11516739506E+02  0.46142317316E+02  0.99999959420E+01 0.  0.
        -12    1    1    2    0    0  0.39376485687E+02 -0.18600285334E+02  0.11516739506E+02  0.45045682684E+02  0.00000000000E+00 0.  1.
         11    1    3    3    0    0 -0.20823109569E+02  0.79456011921E+01 -0.10173727259E+02  0.24499779530E+02  0.51100000000E-03 0. -1.
        -11    1    3    3    0    0 -0.21172509327E+01  0.24192612081E+01 -0.30512997626E+00  0.32293468176E+01  0.51100000000E-03 0.  1.
         12    1    3    3    0    0 -0.16436125186E+02  0.82354229342E+01 -0.10378822705E+01  0.18413190968E+02  0.00000000000E+00 0. -1.
</event>
<event>
 7    1  0.1563903E-008  0.4614232E+02  0.7816164E-02  0.1320468E+00
        -11   -1    0    0    0    0  0.00000000000E+00  0.00000000000E+00  0.45593999997E+02  0.45594000000E+02  0.51100000000E-03 0. -1.
         11   -1    0    0    0    0 -0.00000000000E+00 -0.00000000000E+00 -0.45593999997E+02  0.45594000000E+02  0.51100000000E-03 0.  1.
    9900012    2    1    2    0    0 -0.35658335339E+02  0.20785063174E+02  0.18043775317E+02  0.46142316989E+02  0.99999929570E+01 0.  0.
        -12    1    1    2    0    0  0.35658335339E+02 -0.20785063174E+02 -0.18043775317E+02  0.45045683011E+02  0.00000000000E+00 0.  1.
         11    1    3    3    0    0 -0.30812473713E+02  0.16927703125E+02  0.12915963363E+02  0.37453675110E+02  0.51100000000E-03 0. -1.
        -11    1    3    3    0    0 -0.47501079672E+01  0.34820770209E+01  0.55661366398E+01  0.81037191112E+01  0.51100000000E-03 0.  1.
         12    1    3    3    0    0 -0.95753658510E-01  0.37528302768E+00 -0.43832468550E+00  0.58492276747E+00  0.00000000000E+00 0. -1.
</event>
<event>
 7    1  0.1563903E-008  0.4614232E+02  0.7816164E-02  0.1320468E+00
        -11   -1    0    0    0    0  0.00000000000E+00  0.00000000000E+00  0.45593999997E+02  0.45594000000E+02  0.51100000000E-03 0.  1.
         11   -1    0    0    0    0 -0.00000000000E+00 -0.00000000000E+00 -0.45593999997E+02  0.45594000000E+02  0.51100000000E-03 0. -1.
    9900012    2    1    2    0    0 -0.24931525219E+02  0.72517861564E+01 -0.36809567866E+02  0.46142316092E+02  0.99999847829E+01 0.  0.
        -12    1    1    2    0    0  0.24931525219E+02 -0.72517861564E+01  0.36809567866E+02  0.45045683908E+02  0.00000000000E+00 0.  1.
         11    1    3    3    0    0 -0.10610201354E+01  0.11150257967E+01 -0.18845332625E+00  0.15506647517E+01  0.51100000000E-03 0. -1.
        -11    1    3    3    0    0 -0.16085401361E+02  0.56022985895E+01 -0.20288061677E+02  0.26490212028E+02  0.51100000000E-03 0.  1.
         12    1    3    3    0    0 -0.77851037231E+01  0.53446177023E+00 -0.16333052863E+02  0.18101439313E+02  0.00000000000E+00 0. -1.
</event>
<event>
 7    1  0.1563903E-008  0.4614232E+02  0.7816164E-02  0.1320468E+00
        -11   -1    0    0    0    0  0.00000000000E+00  0.00000000000E+00  0.45593999997E+02  0.45594000000E+02  0.51100000000E-03 0.  1.
         11   -1    0    0    0    0 -0.00000000000E+00 -0.00000000000E+00 -0.45593999997E+02  0.45594000000E+02  0.51100000000E-03 0. -1.
    9900012    2    1    2    0    0 -0.25681823657E+02  0.32575625591E+02 -0.17560925576E+02  0.46142317009E+02  0.99999931394E+01 0.  0.
        -12    1    1    2    0    0  0.25681823657E+02 -0.32575625591E+02  0.17560925576E+02  0.45045682991E+02  0.00000000000E+00 0.  1.
         11    1    3    3    0    0 -0.99046102334E+01  0.14006785782E+02 -0.78939706119E+01  0.18884017689E+02  0.51100000000E-03 0. -1.
        -11    1    3    3    0    0 -0.83892291404E+01  0.70693668215E+01 -0.78051577634E+01  0.13463862774E+02  0.51100000000E-03 0.  1.
        -12    1    3    3    0    0 -0.73879842836E+01  0.11499472988E+02 -0.18617972011E+01  0.13794436545E+02  0.00000000000E+00 0.  1.
</event>
<event>
 7    1  0.1563903E-008  0.4614232E+02  0.7816164E-02  0.1320468E+00
        -11   -1    0    0    0    0  0.00000000000E+00  0.00000000000E+00  0.45593999997E+02  0.45594000000E+02  0.51100000000E-03 0. -1.
         11   -1    0    0    0    0 -0.00000000000E+00 -0.00000000000E+00 -0.45593999997E+02  0.45594000000E+02  0.51100000000E-03 0.  1.
    9900012    2    1    2    0    0 -0.28750057878E+02 -0.29287503683E+02  0.18568514523E+02  0.46142318392E+02  0.10000005749E+02 0.  0.
        -12    1    1    2    0    0  0.28750057878E+02  0.29287503683E+02 -0.18568514523E+02  0.45045681608E+02  0.00000000000E+00 0.  1.
         11    1    3    3    0    0 -0.10202604078E+02 -0.16277656790E+02  0.97232677105E+01  0.21531306876E+02  0.51100000000E-03 0. -1.
        -11    1    3    3    0    0 -0.47325923110E+01 -0.37237003504E+01  0.64914855764E+00  0.60567952246E+01  0.51100000000E-03 0.  1.
        -12    1    3    3    0    0 -0.13814861489E+02 -0.92861465424E+01  0.81960982552E+01  0.18554216291E+02  0.00000000000E+00 0.  1.
</event>
<event>
 7    1  0.1563903E-008  0.4614232E+02  0.7816164E-02  0.1320468E+00
        -11   -1    0    0    0    0  0.00000000000E+00  0.00000000000E+00  0.45593999997E+02  0.45594000000E+02  0.51100000000E-03 0.  1.
         11   -1    0    0    0    0 -0.00000000000E+00 -0.00000000000E+00 -0.45593999997E+02  0.45594000000E+02  0.51100000000E-03 0. -1.
    9900012    2    1    2    0    0 -0.93901378823E+01  0.60882824257E+01 -0.43633380161E+02  0.46142315005E+02  0.99999748693E+01 0.  0.
        -12    1    1    2    0    0  0.93901378823E+01 -0.60882824257E+01  0.43633380161E+02  0.45045684995E+02  0.00000000000E+00 0.  1.
         11    1    3    3    0    0 -0.14252741473E+01 -0.17550070913E+01 -0.33067282289E+01  0.40057344054E+01  0.51100000000E-03 0. -1.
        -11    1    3    3    0    0 -0.11697254438E+01  0.39262486510E+01 -0.98753780219E+01  0.10691434769E+02  0.51100000000E-03 0.  1.
        -12    1    3    3    0    0 -0.67951382912E+01  0.39170408659E+01 -0.30451273911E+02  0.31445145831E+02  0.00000000000E+00 0.  1.
</event>
<event>
 7    1  0.1563903E-008  0.4614232E+02  0.7816164E-02  0.1320468E+00
        -11   -1    0    0    0    0  0.00000000000E+00  0.00000000000E+00  0.45593999997E+02  0.45594000000E+02  0.51100000000E-03 0. -1.
         11   -1    0    0    0    0 -0.00000000000E+00 -0.00000000000E+00 -0.45593999997E+02  0.45594000000E+02  0.51100000000E-03 0.  1.
    9900012    2    1    2    0    0 -0.17091468393E+01  0.17953590264E+02  0.41277848626E+02  0.46142319036E+02  0.10000011630E+02 0.  0.
        -12    1    1    2    0    0  0.17091468393E+01 -0.17953590264E+02 -0.41277848626E+02  0.45045680964E+02  0.00000000000E+00 0.  1.
         11    1    3    3    0    0  0.18024808112E+01  0.33454050885E+01  0.45152102889E+01  0.59015079848E+01  0.51100000000E-03 0. -1.
        -11    1    3    3    0    0 -0.77902684168E+00 -0.55098867796E+00  0.18671090454E+01  0.20967994162E+01  0.51100000000E-03 0.  1.
         12    1    3    3    0    0 -0.27326008088E+01  0.15159173853E+02  0.34895529292E+02  0.38144011635E+02  0.00000000000E+00 0. -1.
</event>
<event>
 7    1  0.1563903E-008  0.4614232E+02  0.7816164E-02  0.1320468E+00
        -11   -1    0    0    0    0  0.00000000000E+00  0.00000000000E+00  0.45593999997E+02  0.45594000000E+02  0.51100000000E-03 0. -1.
         11   -1    0    0    0    0 -0.00000000000E+00 -0.00000000000E+00 -0.45593999997E+02  0.45594000000E+02  0.51100000000E-03 0.  1.
    9900012    2    1    2    0    0 -0.19023743377E+00  0.33998908227E+02  0.29549137910E+02  0.46142317608E+02  0.99999986044E+01 0.  0.
        -12    1    1    2    0    0  0.19023743377E+00 -0.33998908227E+02 -0.29549137910E+02  0.45045682392E+02  0.00000000000E+00 0.  1.
         11    1    3    3    0    0 -0.25026489747E+01  0.42530116748E+01  0.44961531382E+01  0.66758335434E+01  0.51100000000E-03 0. -1.
        -11    1    3    3    0    0  0.37143010779E+01  0.13103418557E+02  0.13362099617E+02  0.19079866793E+02  0.51100000000E-03 0.  1.
         12    1    3    3    0    0 -0.14018895370E+01  0.16642477995E+02  0.11690885155E+02  0.20386617272E+02  0.00000000000E+00 0. -1.
</event>
<event>
 7    1  0.1563903E-008  0.4614232E+02  0.7816164E-02  0.1320468E+00
        -11   -1    0    0    0    0  0.00000000000E+00  0.00000000000E+00  0.45593999997E+02  0.45594000000E+02  0.51100000000E-03 0. -1.
         11   -1    0    0    0    0 -0.00000000000E+00 -0.00000000000E+00 -0.45593999997E+02  0.45594000000E+02  0.51100000000E-03 0.  1.
    9900012    2    1    2    0    0 -0.10791201641E+02  0.43594994523E+02  0.34842549533E+01  0.46142316379E+02  0.99999873950E+01 0.  0.
        -12    1    1    2    0    0  0.10791201641E+02 -0.43594994523E+02 -0.34842549533E+01  0.45045683621E+02  0.00000000000E+00 0.  1.
         11    1    3    3    0    0 -0.44254076598E+01  0.71688896228E+01  0.32372854305E+01  0.90253658430E+01  0.51100000000E-03 0. -1.
        -11    1    3    3    0    0  0.10192462349E+00  0.32234127630E+01  0.63993466275E+00  0.32879013220E+01  0.51100000000E-03 0.  1.
         12    1    3    3    0    0 -0.64677186045E+01  0.33202692137E+02 -0.39296513994E+00  0.33829049214E+02  0.00000000000E+00 0. -1.
</event>
<event>
 7    1  0.1563903E-008  0.4614232E+02  0.7816164E-02  0.1320468E+00
        -11   -1    0    0    0    0  0.00000000000E+00  0.00000000000E+00  0.45593999997E+02  0.45594000000E+02  0.51100000000E-03 0.  1.
         11   -1    0    0    0    0 -0.00000000000E+00 -0.00000000000E+00 -0.45593999997E+02  0.45594000000E+02  0.51100000000E-03 0. -1.
    9900012    2    1    2    0    0 -0.20728662652E+02  0.28495144885E+02 -0.28061767756E+02  0.46142317111E+02  0.99999940718E+01 0.  0.
        -12    1    1    2    0    0  0.20728662652E+02 -0.28495144885E+02  0.28061767756E+02  0.45045682889E+02  0.00000000000E+00 0.  1.
         11    1    3    3    0    0 -0.21253151763E+02  0.27205691821E+02 -0.27339816821E+02  0.44037617004E+02  0.51100000000E-03 0. -1.
        -11    1    3    3    0    0  0.58828787171E+00 -0.70259847295E-01 -0.73770617262E-01  0.59704391065E+00  0.51100000000E-03 0.  1.
         12    1    3    3    0    0 -0.63798760519E-01  0.13597129106E+01 -0.64818031764E+00  0.15076561959E+01  0.00000000000E+00 0. -1.
</event>
<event>
 7    1  0.1563903E-008  0.4614232E+02  0.7816164E-02  0.1320468E+00
        -11   -1    0    0    0    0  0.00000000000E+00  0.00000000000E+00  0.45593999997E+02  0.45594000000E+02  0.51100000000E-03 0. -1.
         11   -1    0    0    0    0 -0.00000000000E+00 -0.00000000000E+00 -0.45593999997E+02  0.45594000000E+02  0.51100000000E-03 0.  1.
    9900012    2    1    2    0    0 -0.33328758470E+02 -0.57422378108E+00  0.30298145955E+02  0.46142317383E+02  0.99999965560E+01 0.  0.
        -12    1    1    2    0    0  0.33328758470E+02  0.57422378108E+00 -0.30298145955E+02  0.45045682617E+02  0.00000000000E+00 0.  1.
         11    1    3    3    0    0 -0.28156541699E+02 -0.54388904949E+00  0.22282223008E+02  0.35910779972E+02  0.51100000000E-03 0. -1.
        -11    1    3    3    0    0 -0.11638973332E+01  0.11315178127E+01  0.61655867852E+00  0.17364142443E+01  0.51100000000E-03 0.  1.
        -12    1    3    3    0    0 -0.40083194373E+01 -0.11618525443E+01  0.73993642688E+01  0.84951231674E+01  0.00000000000E+00 0.  1.
</event>
<event>
 7    1  0.1563903E-008  0.4614232E+02  0.7816164E-02  0.1320468E+00
        -11   -1    0    0    0    0  0.00000000000E+00  0.00000000000E+00  0.45593999997E+02  0.45594000000E+02  0.51100000000E-03 0.  1.
         11   -1    0    0    0    0 -0.00000000000E+00 -0.00000000000E+00 -0.45593999997E+02  0.45594000000E+02  0.51100000000E-03 0. -1.
    9900012    2    1    2    0    0 -0.20326290424E+02 -0.28762634650E+02 -0.28083201852E+02  0.46142318069E+02  0.10000002804E+02 0.  0.
        -12    1    1    2    0    0  0.20326290424E+02  0.28762634650E+02  0.28083201852E+02  0.45045681931E+02  0.00000000000E+00 0.  1.
         11    1    3    3    0    0 -0.71866733933E+01 -0.45720537984E+01 -0.90817454001E+01  0.12451106383E+02  0.51100000000E-03 0.  1.
        -11    1    3    3    0    0 -0.10742294863E+02 -0.22121239632E+02 -0.17523879616E+02  0.30196564355E+02  0.51100000000E-03 0. -1.
         12    1    3    3    0    0 -0.23973221671E+01 -0.20693412197E+01 -0.14775768359E+01  0.34946473302E+01  0.00000000000E+00 0. -1.
</event>
<event>
 7    1  0.1563903E-008  0.4614232E+02  0.7816164E-02  0.1320468E+00
        -11   -1    0    0    0    0  0.00000000000E+00  0.00000000000E+00  0.45593999997E+02  0.45594000000E+02  0.51100000000E-03 0. -1.
         11   -1    0    0    0    0 -0.00000000000E+00 -0.00000000000E+00 -0.45593999997E+02  0.45594000000E+02  0.51100000000E-03 0.  1.
    9900012    2    1    2    0    0 -0.33735304195E+02 -0.20403398324E+02  0.21788622850E+02  0.46142317654E+02  0.99999990226E+01 0.  0.
        -12    1    1    2    0    0  0.33735304195E+02  0.20403398324E+02 -0.21788622850E+02  0.45045682346E+02  0.00000000000E+00 0.  1.
         11    1    3    3    0    0 -0.99997972911E+01 -0.76855103939E+01  0.47952844996E+01  0.13492878476E+02  0.51100000000E-03 0. -1.
        -11    1    3    3    0    0 -0.89016704610E+01 -0.16964696208E+01  0.32806895877E+01  0.96374618340E+01  0.51100000000E-03 0.  1.
         12    1    3    3    0    0 -0.14833836443E+02 -0.11021418310E+02  0.13712648763E+02  0.23011977344E+02  0.00000000000E+00 0. -1.
</event>
<event>
 7    1  0.1563903E-008  0.4614232E+02  0.7816164E-02  0.1320468E+00
        -11   -1    0    0    0    0  0.00000000000E+00  0.00000000000E+00  0.45593999997E+02  0.45594000000E+02  0.51100000000E-03 0.  1.
         11   -1    0    0    0    0 -0.00000000000E+00 -0.00000000000E+00 -0.45593999997E+02  0.45594000000E+02  0.51100000000E-03 0. -1.
    9900012    2    1    2    0    0 -0.83735951154E+01  0.13992478383E+02 -0.41990551398E+02  0.46142323702E+02  0.10000054174E+02 0.  0.
        -12    1    1    2    0    0  0.83735951154E+01 -0.13992478383E+02  0.41990551398E+02  0.45045676298E+02  0.00000000000E+00 0.  1.
         11    1    3    3    0    0 -0.75849573108E+01  0.84301350753E+01 -0.24357308636E+02  0.26867773243E+02  0.51100000000E-03 0. -1.
        -11    1    3    3    0    0 -0.24471828574E+01  0.50648420617E+01 -0.15709912223E+02  0.16686601552E+02  0.51100000000E-03 0.  1.
         12    1    3    3    0    0  0.16585450529E+01  0.49750124631E+00 -0.19233305384E+01  0.25879489064E+01  0.00000000000E+00 0. -1.
</event>
<event>
 7    1  0.1563903E-008  0.4614232E+02  0.7816164E-02  0.1320468E+00
        -11   -1    0    0    0    0  0.00000000000E+00  0.00000000000E+00  0.45593999997E+02  0.45594000000E+02  0.51100000000E-03 0.  1.
         11   -1    0    0    0    0 -0.00000000000E+00 -0.00000000000E+00 -0.45593999997E+02  0.45594000000E+02  0.51100000000E-03 0. -1.
    9900012    2    1    2    0    0  0.43191884052E+02  0.12685928028E+02  0.16253887907E+01  0.46142317558E+02  0.99999981507E+01 0.  0.
        -12    1    1    2    0    0 -0.43191884052E+02 -0.12685928028E+02 -0.16253887907E+01  0.45045682442E+02  0.00000000000E+00 0.  1.
         11    1    3    3    0    0  0.14988104499E+02  0.75353915168E+01  0.14604332531E+01  0.16839188441E+02  0.51100000000E-03 0.  1.
        -11    1    3    3    0    0  0.26439662416E+02  0.51612209555E+01  0.16612481962E+01  0.26989881368E+02  0.51100000000E-03 0. -1.
        -12    1    3    3    0    0  0.17641171365E+01 -0.10684444522E-01 -0.14962926587E+01  0.23132477492E+01  0.00000000000E+00 0.  1.
</event>
<event>
 7    1  0.1563903E-008  0.4614232E+02  0.7816164E-02  0.1320468E+00
        -11   -1    0    0    0    0  0.00000000000E+00  0.00000000000E+00  0.45593999997E+02  0.45594000000E+02  0.51100000000E-03 0. -1.
         11   -1    0    0    0    0 -0.00000000000E+00 -0.00000000000E+00 -0.45593999997E+02  0.45594000000E+02  0.51100000000E-03 0.  1.
    9900012    2    1    2    0    0  0.40372191827E+02 -0.19945092782E+02  0.11801745234E+01  0.46142318621E+02  0.10000007841E+02 0.  0.
        -12    1    1    2    0    0 -0.40372191827E+02  0.19945092782E+02 -0.11801745234E+01  0.45045681379E+02  0.00000000000E+00 0.  1.
         11    1    3    3    0    0  0.30788005231E+02 -0.18930208846E+02 -0.98554142078E+00  0.36155571703E+02  0.51100000000E-03 0. -1.
        -11    1    3    3    0    0  0.47543476865E+01  0.22666769822E+00  0.11702655435E+01  0.49015020018E+01  0.51100000000E-03 0.  1.
        -12    1    3    3    0    0  0.48298389100E+01 -0.12415516343E+01  0.99545040072E+00  0.50852449162E+01  0.00000000000E+00 0.  1.
</event>
<event>
 7    1  0.1563903E-008  0.4614232E+02  0.7816164E-02  0.1320468E+00
        -11   -1    0    0    0    0  0.00000000000E+00  0.00000000000E+00  0.45593999997E+02  0.45594000000E+02  0.51100000000E-03 0.  1.
         11   -1    0    0    0    0 -0.00000000000E+00 -0.00000000000E+00 -0.45593999997E+02  0.45594000000E+02  0.51100000000E-03 0. -1.
    9900012    2    1    2    0    0  0.31608357766E+02 -0.15392142872E+02 -0.28162158632E+02  0.46142317392E+02  0.99999966325E+01 0.  0.
        -12    1    1    2    0    0 -0.31608357766E+02  0.15392142872E+02  0.28162158632E+02  0.45045682608E+02  0.00000000000E+00 0.  1.
         11    1    3    3    0    0  0.72514145302E+01 -0.18251113241E+01 -0.75848644124E+01  0.10651019315E+02  0.51100000000E-03 0. -1.
        -11    1    3    3    0    0  0.69816672588E+01 -0.25202492755E+00 -0.57991191214E+01  0.90794811042E+01  0.51100000000E-03 0.  1.
        -12    1    3    3    0    0  0.17375275977E+02 -0.13315006620E+02 -0.14778175098E+02  0.26411816973E+02  0.00000000000E+00 0.  1.
</event>
<event>
 7    1  0.1563903E-008  0.4614232E+02  0.7816164E-02  0.1320468E+00
        -11   -1    0    0    0    0  0.00000000000E+00  0.00000000000E+00  0.45593999997E+02  0.45594000000E+02  0.51100000000E-03 0.  1.
         11   -1    0    0    0    0 -0.00000000000E+00 -0.00000000000E+00 -0.45593999997E+02  0.45594000000E+02  0.51100000000E-03 0. -1.
    9900012    2    1    2    0    0 -0.37558730877E+02 -0.37947952365E+00 -0.24865862559E+02  0.46142318847E+02  0.10000009898E+02 0.  0.
        -12    1    1    2    0    0  0.37558730877E+02  0.37947952365E+00  0.24865862559E+02  0.45045681153E+02  0.00000000000E+00 0.  1.
         11    1    3    3    0    0 -0.97293521150E+01 -0.32115732019E+01 -0.51163600367E+01  0.11452145445E+02  0.51100000000E-03 0. -1.
        -11    1    3    3    0    0 -0.59921802760E+01  0.15671851565E+01 -0.71009575388E+01  0.94226265979E+01  0.51100000000E-03 0.  1.
         12    1    3    3    0    0 -0.21837198486E+02  0.12649085217E+01 -0.12648544983E+02  0.25267546804E+02  0.00000000000E+00 0. -1.
</event>
<event>
 7    1  0.1563903E-008  0.4614232E+02  0.7816164E-02  0.1320468E+00
        -11   -1    0    0    0    0  0.00000000000E+00  0.00000000000E+00  0.45593999997E+02  0.45594000000E+02  0.51100000000E-03 0. -1.
         11   -1    0    0    0    0 -0.00000000000E+00 -0.00000000000E+00 -0.45593999997E+02  0.45594000000E+02  0.51100000000E-03 0.  1.
    9900012    2    1    2    0    0 -0.65173692262E+01 -0.33053544580E+02  0.29901514747E+02  0.46142317686E+02  0.99999993193E+01 0.  0.
        -12    1    1    2    0    0  0.65173692262E+01  0.33053544580E+02 -0.29901514747E+02  0.45045682314E+02  0.00000000000E+00 0.  1.
         11    1    3    3    0    0  0.20390802169E+01 -0.14642067379E+02  0.13516505855E+02  0.20031073762E+02  0.51100000000E-03 0. -1.
        -11    1    3    3    0    0 -0.45739880600E+01 -0.10617429832E+02  0.87918478275E+01  0.14524041155E+02  0.51100000000E-03 0.  1.
         12    1    3    3    0    0 -0.39824613831E+01 -0.77940473689E+01  0.75931610651E+01  0.11587202769E+02  0.00000000000E+00 0. -1.
</event>
<event>
 7    1  0.1563903E-008  0.4614232E+02  0.7816164E-02  0.1320468E+00
        -11   -1    0    0    0    0  0.00000000000E+00  0.00000000000E+00  0.45593999997E+02  0.45594000000E+02  0.51100000000E-03 0. -1.
         11   -1    0    0    0    0 -0.00000000000E+00 -0.00000000000E+00 -0.45593999997E+02  0.45594000000E+02  0.51100000000E-03 0.  1.
    9900012    2    1    2    0    0  0.75001103406E+01 -0.44413774097E+02  0.52777668083E+00  0.46142317267E+02  0.99999954943E+01 0.  0.
        -12    1    1    2    0    0 -0.75001103406E+01  0.44413774097E+02 -0.52777668083E+00  0.45045682733E+02  0.00000000000E+00 0.  1.
         11    1    3    3    0    0 -0.10766051571E+00 -0.14444276651E+02  0.89556817464E+00  0.14472413806E+02  0.51100000000E-03 0. -1.
        -11    1    3    3    0    0  0.54755922697E+01 -0.13407328117E+02  0.25871414586E+01  0.14711623266E+02  0.51100000000E-03 0.  1.
        -12    1    3    3    0    0  0.21321785866E+01 -0.16562169329E+02 -0.29549329524E+01  0.16958280195E+02  0.00000000000E+00 0.  1.
</event>
<event>
 7    1  0.1563903E-008  0.4614232E+02  0.7816164E-02  0.1320468E+00
        -11   -1    0    0    0    0  0.00000000000E+00  0.00000000000E+00  0.45593999997E+02  0.45594000000E+02  0.51100000000E-03 0.  1.
         11   -1    0    0    0    0 -0.00000000000E+00 -0.00000000000E+00 -0.45593999997E+02  0.45594000000E+02  0.51100000000E-03 0. -1.
    9900012    2    1    2    0    0 -0.17893937453E+02 -0.32254940736E+02 -0.25856120459E+02  0.46142321355E+02  0.10000032768E+02 0.  0.
        -12    1    1    2    0    0  0.17893937453E+02  0.32254940736E+02  0.25856120459E+02  0.45045678645E+02  0.00000000000E+00 0.  1.
         11    1    3    3    0    0 -0.17159474305E+02 -0.23951074576E+02 -0.21430097726E+02  0.36432823395E+02  0.51100000000E-03 0. -1.
        -11    1    3    3    0    0  0.53085972378E+00 -0.14202671911E+01 -0.14702890190E+01  0.21120419032E+01  0.51100000000E-03 0.  1.
         12    1    3    3    0    0 -0.12653228717E+01 -0.68835989687E+01 -0.29557337143E+01  0.75974560560E+01  0.00000000000E+00 0. -1.
</event>
<event>
 7    1  0.1563903E-008  0.4614232E+02  0.7816164E-02  0.1320468E+00
        -11   -1    0    0    0    0  0.00000000000E+00  0.00000000000E+00  0.45593999997E+02  0.45594000000E+02  0.51100000000E-03 0. -1.
         11   -1    0    0    0    0 -0.00000000000E+00 -0.00000000000E+00 -0.45593999997E+02  0.45594000000E+02  0.51100000000E-03 0.  1.
    9900012    2    1    2    0    0  0.78247473936E+01  0.36420482631E+02  0.25326571161E+02  0.46142318369E+02  0.10000005543E+02 0.  0.
        -12    1    1    2    0    0 -0.78247473936E+01 -0.36420482631E+02 -0.25326571161E+02  0.45045681631E+02  0.00000000000E+00 0.  1.
         11    1    3    3    0    0  0.13814893896E+01  0.54351078982E+01  0.49129866595E+01  0.74556253243E+01  0.51100000000E-03 0. -1.
        -11    1    3    3    0    0  0.20145062768E+01  0.26411564550E+02  0.16124979754E+02  0.31010384548E+02  0.51100000000E-03 0.  1.
        -12    1    3    3    0    0  0.44287517272E+01  0.45738101826E+01  0.42886047476E+01  0.76763084963E+01  0.00000000000E+00 0.  1.
</event>
<event>
 7    1  0.1563903E-008  0.4614232E+02  0.7816164E-02  0.1320468E+00
        -11   -1    0    0    0    0  0.00000000000E+00  0.00000000000E+00  0.45593999997E+02  0.45594000000E+02  0.51100000000E-03 0.  1.
         11   -1    0    0    0    0 -0.00000000000E+00 -0.00000000000E+00 -0.45593999997E+02  0.45594000000E+02  0.51100000000E-03 0. -1.
    9900012    2    1    2    0    0 -0.14744217516E+02 -0.38763036173E+02 -0.17582623684E+02  0.46142316754E+02  0.99999908162E+01 0.  0.
        -12    1    1    2    0    0  0.14744217516E+02  0.38763036173E+02  0.17582623684E+02  0.45045683246E+02  0.00000000000E+00 0.  1.
         11    1    3    3    0    0 -0.85827524705E+01 -0.16784550505E+02 -0.62906383163E+01  0.19873522745E+02  0.51100000000E-03 0. -1.
        -11    1    3    3    0    0 -0.43250713390E+01 -0.11954638578E+02 -0.96185185730E+01  0.15941628694E+02  0.51100000000E-03 0.  1.
         12    1    3    3    0    0 -0.18363937067E+01 -0.10023847089E+02 -0.16734667948E+01  0.10327165314E+02  0.00000000000E+00 0. -1.
</event>
<event>
 7    1  0.1563903E-008  0.4614232E+02  0.7816164E-02  0.1320468E+00
        -11   -1    0    0    0    0  0.00000000000E+00  0.00000000000E+00  0.45593999997E+02  0.45594000000E+02  0.51100000000E-03 0. -1.
         11   -1    0    0    0    0 -0.00000000000E+00 -0.00000000000E+00 -0.45593999997E+02  0.45594000000E+02  0.51100000000E-03 0.  1.
    9900012    2    1    2    0    0 -0.36840273161E+02 -0.24388571686E+02  0.87809653619E+01  0.46142317542E+02  0.99999980007E+01 0.  0.
        -12    1    1    2    0    0  0.36840273161E+02  0.24388571686E+02 -0.87809653619E+01  0.45045682458E+02  0.00000000000E+00 0.  1.
         11    1    3    3    0    0 -0.87169777270E+01 -0.37477292520E+01  0.39940722199E+01  0.10294842806E+02  0.51100000000E-03 0. -1.
        -11    1    3    3    0    0 -0.54067792569E+01 -0.36597265483E+01 -0.17137740622E+01  0.67501023799E+01  0.51100000000E-03 0.  1.
         12    1    3    3    0    0 -0.22716516177E+02 -0.16981115885E+02  0.65006672042E+01  0.29097372356E+02  0.00000000000E+00 0. -1.
</event>
<event>
 7    1  0.1563903E-008  0.4614232E+02  0.7816164E-02  0.1320468E+00
        -11   -1    0    0    0    0  0.00000000000E+00  0.00000000000E+00  0.45593999997E+02  0.45594000000E+02  0.51100000000E-03 0.  1.
         11   -1    0    0    0    0 -0.00000000000E+00 -0.00000000000E+00 -0.45593999997E+02  0.45594000000E+02  0.51100000000E-03 0. -1.
    9900012    2    1    2    0    0  0.27721112676E+02 -0.33320275150E+02 -0.12264282680E+02  0.46142318146E+02  0.10000003506E+02 0.  0.
        -12    1    1    2    0    0 -0.27721112676E+02  0.33320275150E+02  0.12264282680E+02  0.45045681854E+02  0.00000000000E+00 0.  1.
         11    1    3    3    0    0  0.24590190868E+02 -0.27820401324E+02 -0.82637549824E+01  0.38038689034E+02  0.51100000000E-03 0. -1.
        -11    1    3    3    0    0  0.10291351305E+01 -0.28083157821E+01 -0.35767040980E+01  0.46624638460E+01  0.51100000000E-03 0.  1.
        -12    1    3    3    0    0  0.21017866774E+01 -0.26915580438E+01 -0.42382359917E+00  0.34411652654E+01  0.00000000000E+00 0.  1.
</event>
<event>
 7    1  0.1563903E-008  0.4614232E+02  0.7816164E-02  0.1320468E+00
        -11   -1    0    0    0    0  0.00000000000E+00  0.00000000000E+00  0.45593999997E+02  0.45594000000E+02  0.51100000000E-03 0.  1.
         11   -1    0    0    0    0 -0.00000000000E+00 -0.00000000000E+00 -0.45593999997E+02  0.45594000000E+02  0.51100000000E-03 0. -1.
    9900012    2    1    2    0    0 -0.12251447550E+02  0.37050323784E+02 -0.22500867668E+02  0.46142317572E+02  0.99999982789E+01 0.  0.
        -12    1    1    2    0    0  0.12251447550E+02 -0.37050323784E+02  0.22500867668E+02  0.45045682428E+02  0.00000000000E+00 0.  1.
         11    1    3    3    0    0 -0.10089838084E+02  0.36124868490E+02 -0.20681384242E+02  0.42831420832E+02  0.51100000000E-03 0. -1.
        -11    1    3    3    0    0 -0.10913561429E-01  0.19943544161E+00  0.19267419788E+00  0.27751974496E+00  0.51100000000E-03 0.  1.
         12    1    3    3    0    0 -0.21506959039E+01  0.72601985197E+00 -0.20121576236E+01  0.30333769958E+01  0.00000000000E+00 0. -1.
</event>
<event>
 7    1  0.1563903E-008  0.4614232E+02  0.7816164E-02  0.1320468E+00
        -11   -1    0    0    0    0  0.00000000000E+00  0.00000000000E+00  0.45593999997E+02  0.45594000000E+02  0.51100000000E-03 0. -1.
         11   -1    0    0    0    0 -0.00000000000E+00 -0.00000000000E+00 -0.45593999997E+02  0.45594000000E+02  0.51100000000E-03 0.  1.
    9900012    2    1    2    0    0  0.30003628725E+01 -0.27183768921E+02  0.35793210880E+02  0.46142318573E+02  0.10000007407E+02 0.  0.
        -12    1    1    2    0    0 -0.30003628725E+01  0.27183768921E+02 -0.35793210880E+02  0.45045681427E+02  0.00000000000E+00 0.  1.
         11    1    3    3    0    0  0.19407369653E+01 -0.11572926372E+02  0.11746376673E+02  0.16603507160E+02  0.51100000000E-03 0. -1.
        -11    1    3    3    0    0 -0.23936694750E+01 -0.62986927944E+01  0.13274092476E+02  0.14886393647E+02  0.51100000000E-03 0.  1.
        -12    1    3    3    0    0  0.34532953822E+01 -0.93121497541E+01  0.10772741730E+02  0.14652417767E+02  0.00000000000E+00 0.  1.
</event>
<event>
 7    1  0.1563903E-008  0.4614232E+02  0.7816164E-02  0.1320468E+00
        -11   -1    0    0    0    0  0.00000000000E+00  0.00000000000E+00  0.45593999997E+02  0.45594000000E+02  0.51100000000E-03 0.  1.
         11   -1    0    0    0    0 -0.00000000000E+00 -0.00000000000E+00 -0.45593999997E+02  0.45594000000E+02  0.51100000000E-03 0. -1.
    9900012    2    1    2    0    0  0.19239867012E+02 -0.80430832015E+01 -0.39928057817E+02  0.46142317953E+02  0.10000001748E+02 0.  0.
        -12    1    1    2    0    0 -0.19239867012E+02  0.80430832015E+01  0.39928057817E+02  0.45045682047E+02  0.00000000000E+00 0.  1.
         11    1    3    3    0    0  0.54472133271E+01  0.59131412271E-01 -0.14534684010E+02  0.15522005962E+02  0.51100000000E-03 0. -1.
        -11    1    3    3    0    0  0.92213174477E+00 -0.12372501870E+01 -0.68792213066E+01  0.70501631914E+01  0.51100000000E-03 0.  1.
         12    1    3    3    0    0  0.12870521940E+02 -0.68649644268E+01 -0.18514152501E+02  0.23570148799E+02  0.00000000000E+00 0. -1.
</event>
<event>
 7    1  0.1563903E-008  0.4614232E+02  0.7816164E-02  0.1320468E+00
        -11   -1    0    0    0    0  0.00000000000E+00  0.00000000000E+00  0.45593999997E+02  0.45594000000E+02  0.51100000000E-03 0.  1.
         11   -1    0    0    0    0 -0.00000000000E+00 -0.00000000000E+00 -0.45593999997E+02  0.45594000000E+02  0.51100000000E-03 0. -1.
    9900012    2    1    2    0    0 -0.41033858650E+02  0.99732663278E+01 -0.15680239747E+02  0.46142317460E+02  0.99999972539E+01 0.  0.
        -12    1    1    2    0    0  0.41033858650E+02 -0.99732663278E+01  0.15680239747E+02  0.45045682540E+02  0.00000000000E+00 0.  1.
         11    1    3    3    0    0 -0.14235923161E+02  0.25611006583E+01 -0.41776380909E+01  0.15055676840E+02  0.51100000000E-03 0. -1.
        -11    1    3    3    0    0 -0.17774217431E+02  0.81022450657E+01 -0.98872746560E+01  0.21893546556E+02  0.51100000000E-03 0.  1.
        -12    1    3    3    0    0 -0.90237180577E+01 -0.69007939613E+00 -0.16153270005E+01  0.91930940644E+01  0.00000000000E+00 0.  1.
</event>
<event>
 7    1  0.1563903E-008  0.4614231E+02  0.7816164E-02  0.1320468E+00
        -11   -1    0    0    0    0  0.00000000000E+00  0.00000000000E+00  0.45593999997E+02  0.45594000000E+02  0.51100000000E-03 0.  1.
         11   -1    0    0    0    0 -0.00000000000E+00 -0.00000000000E+00 -0.45593999997E+02  0.45594000000E+02  0.51100000000E-03 0. -1.
    9900012    2    1    2    0    0  0.41620728903E+02 -0.17215205665E+02 -0.68230718841E+00  0.46142312931E+02  0.99999559507E+01 0.  0.
        -12    1    1    2    0    0 -0.41620728903E+02  0.17215205665E+02  0.68230718841E+00  0.45045687069E+02  0.00000000000E+00 0.  1.
         11    1    3    3    0    0  0.25099868573E+02 -0.54428209648E+01 -0.21856165912E+01  0.25776047459E+02  0.51100000000E-03 0. -1.
        -11    1    3    3    0    0  0.71777292198E+01 -0.50066024750E+01  0.11366971655E+01  0.88248482028E+01  0.51100000000E-03 0.  1.
         12    1    3    3    0    0  0.93431311097E+01 -0.67657822248E+01  0.36661223725E+00  0.11541417269E+02  0.00000000000E+00 0. -1.
</event>
<event>
 7    1  0.1563903E-008  0.4614232E+02  0.7816164E-02  0.1320468E+00
        -11   -1    0    0    0    0  0.00000000000E+00  0.00000000000E+00  0.45593999997E+02  0.45594000000E+02  0.51100000000E-03 0.  1.
         11   -1    0    0    0    0 -0.00000000000E+00 -0.00000000000E+00 -0.45593999997E+02  0.45594000000E+02  0.51100000000E-03 0. -1.
    9900012    2    1    2    0    0  0.40291367931E+02  0.19955430655E+02  0.27386012210E+01  0.46142317865E+02  0.10000000948E+02 0.  0.
        -12    1    1    2    0    0 -0.40291367931E+02 -0.19955430655E+02 -0.27386012210E+01  0.45045682135E+02  0.00000000000E+00 0.  1.
         11    1    3    3    0    0  0.90055228528E+00 -0.63895097301E+00 -0.65635833192E+00  0.12845463345E+01  0.51100000000E-03 0. -1.
        -11    1    3    3    0    0  0.17261815851E+02  0.11565934097E+02  0.26455151905E+01  0.20946118230E+02  0.51100000000E-03 0.  1.
         12    1    3    3    0    0  0.22128999795E+02  0.90284475310E+01  0.74944436240E+00  0.23911653301E+02  0.00000000000E+00 0. -1.
</event>
<event>
 7    1  0.1563903E-008  0.4614232E+02  0.7816164E-02  0.1320468E+00
        -11   -1    0    0    0    0  0.00000000000E+00  0.00000000000E+00  0.45593999997E+02  0.45594000000E+02  0.51100000000E-03 0. -1.
         11   -1    0    0    0    0 -0.00000000000E+00 -0.00000000000E+00 -0.45593999997E+02  0.45594000000E+02  0.51100000000E-03 0.  1.
    9900012    2    1    2    0    0 -0.10195633110E+02 -0.22928732215E+02  0.37409033514E+02  0.46142317810E+02  0.10000000445E+02 0.  0.
        -12    1    1    2    0    0  0.10195633110E+02  0.22928732215E+02 -0.37409033514E+02  0.45045682190E+02  0.00000000000E+00 0.  1.
         11    1    3    3    0    0 -0.50720070004E+01 -0.88729032579E+01  0.85457798193E+01  0.13322312870E+02  0.51100000000E-03 0. -1.
        -11    1    3    3    0    0 -0.10216073321E+01 -0.47849299202E+01  0.13984721748E+02  0.14815926516E+02  0.51100000000E-03 0.  1.
        -12    1    3    3    0    0 -0.41020187771E+01 -0.92708990370E+01  0.14878531947E+02  0.18004078424E+02  0.00000000000E+00 0.  1.
</event>
<event>
 7    1  0.1563903E-008  0.4614232E+02  0.7816164E-02  0.1320468E+00
        -11   -1    0    0    0    0  0.00000000000E+00  0.00000000000E+00  0.45593999997E+02  0.45594000000E+02  0.51100000000E-03 0.  1.
         11   -1    0    0    0    0 -0.00000000000E+00 -0.00000000000E+00 -0.45593999997E+02  0.45594000000E+02  0.51100000000E-03 0. -1.
    9900012    2    1    2    0    0 -0.14197525303E+02 -0.18846126497E+02 -0.38371438508E+02  0.46142317611E+02  0.99999986342E+01 0.  0.
        -12    1    1    2    0    0  0.14197525303E+02  0.18846126497E+02  0.38371438508E+02  0.45045682389E+02  0.00000000000E+00 0.  1.
         11    1    3    3    0    0  0.58587179566E-04 -0.57607307990E+01 -0.85173316616E+01  0.10282556017E+02  0.51100000000E-03 0. -1.
        -11    1    3    3    0    0 -0.96902812703E+01 -0.72255177429E+01 -0.21801717846E+02  0.24928388617E+02  0.51100000000E-03 0.  1.
         12    1    3    3    0    0 -0.45073026195E+01 -0.58598779554E+01 -0.80523890010E+01  0.10931372978E+02  0.00000000000E+00 0. -1.
</event>
<event>
 7    1  0.1563903E-008  0.4614231E+02  0.7816164E-02  0.1320468E+00
        -11   -1    0    0    0    0  0.00000000000E+00  0.00000000000E+00  0.45593999997E+02  0.45594000000E+02  0.51100000000E-03 0.  1.
         11   -1    0    0    0    0 -0.00000000000E+00 -0.00000000000E+00 -0.45593999997E+02  0.45594000000E+02  0.51100000000E-03 0. -1.
    9900012    2    1    2    0    0  0.44225512747E+01  0.18550484306E+02 -0.40809733812E+02  0.46142314284E+02  0.99999682958E+01 0.  0.
        -12    1    1    2    0    0 -0.44225512747E+01 -0.18550484306E+02  0.40809733812E+02  0.45045685716E+02  0.00000000000E+00 0.  1.
         11    1    3    3    0    0  0.44006256361E+01  0.16871270209E+02 -0.36813185344E+02  0.40733473702E+02  0.51100000000E-03 0. -1.
        -11    1    3    3    0    0 -0.49673896623E+00 -0.47039582540E+00 -0.28244318103E+01  0.29061034299E+01  0.51100000000E-03 0.  1.
         12    1    3    3    0    0  0.51866460476E+00  0.21496099228E+01 -0.11721166584E+01  0.25027371523E+01  0.00000000000E+00 0. -1.
</event>
<event>
 7    1  0.1563903E-008  0.4614232E+02  0.7816164E-02  0.1320468E+00
        -11   -1    0    0    0    0  0.00000000000E+00  0.00000000000E+00  0.45593999997E+02  0.45594000000E+02  0.51100000000E-03 0.  1.
         11   -1    0    0    0    0 -0.00000000000E+00 -0.00000000000E+00 -0.45593999997E+02  0.45594000000E+02  0.51100000000E-03 0. -1.
    9900012    2    1    2    0    0  0.17992602310E+02  0.21249079485E+02 -0.35409836119E+02  0.46142316402E+02  0.99999876055E+01 0.  0.
        -12    1    1    2    0    0 -0.17992602310E+02 -0.21249079485E+02  0.35409836119E+02  0.45045683598E+02  0.00000000000E+00 0.  1.
         11    1    3    3    0    0  0.14560527241E+02  0.11215781734E+02 -0.25201117760E+02  0.31191329726E+02  0.51100000000E-03 0. -1.
        -11    1    3    3    0    0  0.15119770452E+01  0.63500732421E+01 -0.46621981380E+01  0.80215707006E+01  0.51100000000E-03 0.  1.
         12    1    3    3    0    0  0.19200980247E+01  0.36832245083E+01 -0.55465202209E+01  0.69294159757E+01  0.00000000000E+00 0. -1.
</event>
<event>
 7    1  0.1563903E-008  0.4614232E+02  0.7816164E-02  0.1320468E+00
        -11   -1    0    0    0    0  0.00000000000E+00  0.00000000000E+00  0.45593999997E+02  0.45594000000E+02  0.51100000000E-03 0.  1.
         11   -1    0    0    0    0 -0.00000000000E+00 -0.00000000000E+00 -0.45593999997E+02  0.45594000000E+02  0.51100000000E-03 0. -1.
    9900012    2    1    2    0    0  0.40584593761E+02 -0.68701926322E+01 -0.18297667743E+02  0.46142318272E+02  0.10000004654E+02 0.  0.
        -12    1    1    2    0    0 -0.40584593761E+02  0.68701926322E+01  0.18297667743E+02  0.45045681728E+02  0.00000000000E+00 0.  1.
         11    1    3    3    0    0  0.12864701679E+02 -0.69091505067E+01 -0.68889827146E+01  0.16146051936E+02  0.51100000000E-03 0. -1.
        -11    1    3    3    0    0  0.18579741078E+02  0.31797007598E+00 -0.81094895058E+01  0.20274903299E+02  0.51100000000E-03 0.  1.
         12    1    3    3    0    0  0.91401510038E+01 -0.27901220144E+00 -0.32991955222E+01  0.97213630359E+01  0.00000000000E+00 0. -1.
</event>
<event>
 7    1  0.1795685E-008  0.4614232E+02  0.7816164E-02  0.1320468E+00
        -11   -1    0    0    0    0  0.00000000000E+00  0.00000000000E+00  0.45593999997E+02  0.45594000000E+02  0.51100000000E-03 0. -1.
         11   -1    0    0    0    0 -0.00000000000E+00 -0.00000000000E+00 -0.45593999997E+02  0.45594000000E+02  0.51100000000E-03 0.  1.
    9900012    2    1    2    0    0 -0.86678275093E+01  0.26133634070E+02  0.35651303214E+02  0.46142317806E+02  0.10000000411E+02 0.  0.
        -12    1    1    2    0    0  0.86678275093E+01 -0.26133634070E+02 -0.35651303214E+02  0.45045682194E+02  0.00000000000E+00 0.  1.
         11    1    3    3    0    0 -0.59152710265E+01  0.21526507220E+02  0.33298618210E+02  0.40089636059E+02  0.51100000000E-03 0. -1.
        -11    1    3    3    0    0 -0.55054693654E-01  0.87608058047E+00 -0.98382728623E-02  0.87786403019E+00  0.51100000000E-03 0.  1.
         12    1    3    3    0    0 -0.26975017891E+01  0.37310462694E+01  0.23625232774E+01  0.51748177169E+01  0.00000000000E+00 0. -1.
</event>
<event>
 7    1  0.1563903E-008  0.4614232E+02  0.7816164E-02  0.1320468E+00
        -11   -1    0    0    0    0  0.00000000000E+00  0.00000000000E+00  0.45593999997E+02  0.45594000000E+02  0.51100000000E-03 0.  1.
         11   -1    0    0    0    0 -0.00000000000E+00 -0.00000000000E+00 -0.45593999997E+02  0.45594000000E+02  0.51100000000E-03 0. -1.
    9900012    2    1    2    0    0  0.22423653663E+02  0.28087526547E+02 -0.27154810315E+02  0.46142321912E+02  0.10000037853E+02 0.  0.
        -12    1    1    2    0    0 -0.22423653663E+02 -0.28087526547E+02  0.27154810315E+02  0.45045678088E+02  0.00000000000E+00 0.  1.
         11    1    3    3    0    0  0.14902407795E+02  0.17802946944E+02 -0.14690622543E+02  0.27474371129E+02  0.51100000000E-03 0. -1.
        -11    1    3    3    0    0  0.28787411685E+01  0.29908260919E+01 -0.78203889087E+01  0.88538508216E+01  0.51100000000E-03 0.  1.
        -12    1    3    3    0    0  0.46425046995E+01  0.72937535114E+01 -0.46437988633E+01  0.98140999614E+01  0.00000000000E+00 0.  1.
</event>
<event>
 7    1  0.1563903E-008  0.4614231E+02  0.7816164E-02  0.1320468E+00
        -11   -1    0    0    0    0  0.00000000000E+00  0.00000000000E+00  0.45593999997E+02  0.45594000000E+02  0.51100000000E-03 0.  1.
         11   -1    0    0    0    0 -0.00000000000E+00 -0.00000000000E+00 -0.45593999997E+02  0.45594000000E+02  0.51100000000E-03 0. -1.
    9900012    2    1    2    0    0 -0.18490498730E+02  0.14096460332E+01 -0.41051531571E+02  0.46142313308E+02  0.99999593900E+01 0.  0.
        -12    1    1    2    0    0  0.18490498730E+02 -0.14096460332E+01  0.41051531571E+02  0.45045686692E+02  0.00000000000E+00 0.  1.
         11    1    3    3    0    0 -0.70135996895E+01  0.27244777262E+01 -0.18874966246E+02  0.20319392474E+02  0.51100000000E-03 0. -1.
        -11    1    3    3    0    0 -0.28978167701E+01 -0.98875430966E+00 -0.12576869964E+02  0.12944212432E+02  0.51100000000E-03 0.  1.
        -12    1    3    3    0    0 -0.85790822705E+01 -0.32607738339E+00 -0.95996953613E+01  0.12878708402E+02  0.00000000000E+00 0.  1.
</event>
<event>
 7    1  0.1563903E-008  0.4614232E+02  0.7816164E-02  0.1320468E+00
        -11   -1    0    0    0    0  0.00000000000E+00  0.00000000000E+00  0.45593999997E+02  0.45594000000E+02  0.51100000000E-03 0.  1.
         11   -1    0    0    0    0 -0.00000000000E+00 -0.00000000000E+00 -0.45593999997E+02  0.45594000000E+02  0.51100000000E-03 0. -1.
    9900012    2    1    2    0    0  0.22706871389E+02  0.36943617404E+02 -0.12193464490E+02  0.46142318171E+02  0.10000003740E+02 0.  0.
        -12    1    1    2    0    0 -0.22706871389E+02 -0.36943617404E+02  0.12193464490E+02  0.45045681829E+02  0.00000000000E+00 0.  1.
         11    1    3    3    0    0  0.99632086917E+01  0.12529966827E+02 -0.15669223574E+01  0.16084801586E+02  0.51100000000E-03 0. -1.
        -11    1    3    3    0    0 -0.33676823382E+00  0.27127938978E+01 -0.15512924805E+01  0.31431150466E+01  0.51100000000E-03 0.  1.
         12    1    3    3    0    0  0.13080430931E+02  0.21700856679E+02 -0.90752496517E+01  0.26914401539E+02  0.00000000000E+00 0. -1.
</event>
<event>
 7    1  0.1563903E-008  0.4614232E+02  0.7816164E-02  0.1320468E+00
        -11   -1    0    0    0    0  0.00000000000E+00  0.00000000000E+00  0.45593999997E+02  0.45594000000E+02  0.51100000000E-03 0.  1.
         11   -1    0    0    0    0 -0.00000000000E+00 -0.00000000000E+00 -0.45593999997E+02  0.45594000000E+02  0.51100000000E-03 0. -1.
    9900012    2    1    2    0    0 -0.88052308933E+00  0.40843387394E+01 -0.44851491647E+02  0.46142318223E+02  0.10000004209E+02 0.  0.
        -12    1    1    2    0    0  0.88052308933E+00 -0.40843387394E+01  0.44851491647E+02  0.45045681777E+02  0.00000000000E+00 0.  1.
         11    1    3    3    0    0 -0.17727422503E+01  0.13189534912E+01 -0.30919918310E+01  0.38003509236E+01  0.51100000000E-03 0. -1.
        -11    1    3    3    0    0  0.92971763120E+00  0.29437407589E+01 -0.78966068357E+01  0.84785838622E+01  0.51100000000E-03 0.  1.
         12    1    3    3    0    0 -0.37498470207E-01 -0.17835551061E+00 -0.33862892980E+02  0.33863383437E+02  0.00000000000E+00 0. -1.
</event>
<event>
 7    1  0.1563903E-008  0.4614232E+02  0.7816164E-02  0.1320468E+00
        -11   -1    0    0    0    0  0.00000000000E+00  0.00000000000E+00  0.45593999997E+02  0.45594000000E+02  0.51100000000E-03 0.  1.
         11   -1    0    0    0    0 -0.00000000000E+00 -0.00000000000E+00 -0.45593999997E+02  0.45594000000E+02  0.51100000000E-03 0. -1.
    9900012    2    1    2    0    0  0.72757029578E+01 -0.18756583164E+02 -0.40303451795E+02  0.46142317719E+02  0.99999996187E+01 0.  0.
        -12    1    1    2    0    0 -0.72757029578E+01  0.18756583164E+02  0.40303451795E+02  0.45045682281E+02  0.00000000000E+00 0.  1.
         11    1    3    3    0    0  0.34743277516E+01 -0.79211129985E+01 -0.16031574788E+02  0.18216102077E+02  0.51100000000E-03 0. -1.
        -11    1    3    3    0    0  0.26859743263E+01 -0.80854312337E+01 -0.23291469070E+02  0.24800830390E+02  0.51100000000E-03 0.  1.
        -12    1    3    3    0    0  0.11154008798E+01 -0.27500389318E+01 -0.98040793727E+00  0.31253852519E+01  0.00000000000E+00 0.  1.
</event>
<event>
 7    1  0.1563903E-008  0.4614232E+02  0.7816164E-02  0.1320468E+00
        -11   -1    0    0    0    0  0.00000000000E+00  0.00000000000E+00  0.45593999997E+02  0.45594000000E+02  0.51100000000E-03 0.  1.
         11   -1    0    0    0    0 -0.00000000000E+00 -0.00000000000E+00 -0.45593999997E+02  0.45594000000E+02  0.51100000000E-03 0. -1.
    9900012    2    1    2    0    0 -0.36248090043E+02 -0.21319827567E+02 -0.16144795199E+02  0.46142317729E+02  0.99999997095E+01 0.  0.
        -12    1    1    2    0    0  0.36248090043E+02  0.21319827567E+02  0.16144795199E+02  0.45045682271E+02  0.00000000000E+00 0.  1.
         11    1    3    3    0    0 -0.12433908704E+00 -0.57830508921E+00 -0.19197877617E+01  0.20088509889E+01  0.51100000000E-03 0.  1.
        -11    1    3    3    0    0 -0.26828853880E+02 -0.16420685181E+02 -0.95937632252E+01  0.32885659419E+02  0.51100000000E-03 0. -1.
        -12    1    3    3    0    0 -0.92948970756E+01 -0.43208372970E+01 -0.46312442125E+01  0.11247807322E+02  0.00000000000E+00 0.  1.
</event>
<event>
 7    1  0.1563903E-008  0.4614232E+02  0.7816164E-02  0.1320468E+00
        -11   -1    0    0    0    0  0.00000000000E+00  0.00000000000E+00  0.45593999997E+02  0.45594000000E+02  0.51100000000E-03 0.  1.
         11   -1    0    0    0    0 -0.00000000000E+00 -0.00000000000E+00 -0.45593999997E+02  0.45594000000E+02  0.51100000000E-03 0. -1.
    9900012    2    1    2    0    0 -0.41957827246E+02 -0.41257381308E+01 -0.15862927513E+02  0.46142318169E+02  0.10000003718E+02 0.  0.
        -12    1    1    2    0    0  0.41957827246E+02  0.41257381308E+01  0.15862927513E+02  0.45045681831E+02  0.00000000000E+00 0.  1.
         11    1    3    3    0    0 -0.21487338022E+02 -0.10791904211E+01 -0.11735262345E+02  0.24506871073E+02  0.51100000000E-03 0. -1.
        -11    1    3    3    0    0 -0.16978830585E+02 -0.16850997283E+01 -0.16479376605E+01  0.17141643677E+02  0.51100000000E-03 0.  1.
         12    1    3    3    0    0 -0.34916586386E+01 -0.13614479815E+01 -0.24797275074E+01  0.44938034187E+01  0.00000000000E+00 0. -1.
</event>
<event>
 7    1  0.1563903E-008  0.4614232E+02  0.7816164E-02  0.1320468E+00
        -11   -1    0    0    0    0  0.00000000000E+00  0.00000000000E+00  0.45593999997E+02  0.45594000000E+02  0.51100000000E-03 0.  1.
         11   -1    0    0    0    0 -0.00000000000E+00 -0.00000000000E+00 -0.45593999997E+02  0.45594000000E+02  0.51100000000E-03 0. -1.
    9900012    2    1    2    0    0  0.74730769046E+01 -0.25732650883E+02 -0.36209077643E+02  0.46142317591E+02  0.99999984499E+01 0.  0.
        -12    1    1    2    0    0 -0.74730769046E+01  0.25732650883E+02  0.36209077643E+02  0.45045682409E+02  0.00000000000E+00 0.  1.
         11    1    3    3    0    0  0.44915790824E+01 -0.14144679319E+02 -0.15740072857E+02  0.21633218195E+02  0.51100000000E-03 0. -1.
        -11    1    3    3    0    0 -0.29979352655E-01  0.10477380854E+00  0.39139665282E+00  0.40628550737E+00  0.51100000000E-03 0.  1.
         12    1    3    3    0    0  0.30114771749E+01 -0.11692745373E+02 -0.20860401440E+02  0.24102813889E+02  0.00000000000E+00 0. -1.
</event>
<event>
 7    1  0.1563903E-008  0.4614232E+02  0.7816164E-02  0.1320468E+00
        -11   -1    0    0    0    0  0.00000000000E+00  0.00000000000E+00  0.45593999997E+02  0.45594000000E+02  0.51100000000E-03 0.  1.
         11   -1    0    0    0    0 -0.00000000000E+00 -0.00000000000E+00 -0.45593999997E+02  0.45594000000E+02  0.51100000000E-03 0. -1.
    9900012    2    1    2    0    0 -0.38649612759E+02 -0.19283192571E+02 -0.12785906843E+02  0.46142317677E+02  0.99999992308E+01 0.  0.
        -12    1    1    2    0    0  0.38649612759E+02  0.19283192571E+02  0.12785906843E+02  0.45045682323E+02  0.00000000000E+00 0.  1.
         11    1    3    3    0    0 -0.11691754300E+02 -0.58184936511E+01 -0.11495388650E+01  0.13110050604E+02  0.51100000000E-03 0. -1.
        -11    1    3    3    0    0 -0.49475215747E+01 -0.29839184560E+01  0.50145087451E+00  0.57994131018E+01  0.51100000000E-03 0.  1.
         12    1    3    3    0    0 -0.22010336885E+02 -0.10480780464E+02 -0.12137818853E+02  0.27232853971E+02  0.00000000000E+00 0. -1.
</event>
<event>
 7    1  0.1563903E-008  0.4614233E+02  0.7816164E-02  0.1320468E+00
        -11   -1    0    0    0    0  0.00000000000E+00  0.00000000000E+00  0.45593999997E+02  0.45594000000E+02  0.51100000000E-03 0.  1.
         11   -1    0    0    0    0 -0.00000000000E+00 -0.00000000000E+00 -0.45593999997E+02  0.45594000000E+02  0.51100000000E-03 0. -1.
    9900012    2    1    2    0    0  0.60815174475E+01 -0.35880785270E+02 -0.26546125899E+02  0.46142329771E+02  0.10000109518E+02 0.  0.
        -12    1    1    2    0    0 -0.60815174475E+01  0.35880785270E+02  0.26546125899E+02  0.45045670229E+02  0.00000000000E+00 0.  1.
         11    1    3    3    0    0  0.35096067571E+01 -0.23592728120E+02 -0.15323001603E+02  0.28350106492E+02  0.51100000000E-03 0. -1.
        -11    1    3    3    0    0  0.15268363417E+01 -0.37986607423E+01 -0.73269565524E+01  0.83931725367E+01  0.51100000000E-03 0.  1.
        -12    1    3    3    0    0  0.10450743488E+01 -0.84893964084E+01 -0.38961677442E+01  0.93990507427E+01  0.00000000000E+00 0.  1.
</event>
<event>
 7    1  0.1563903E-008  0.4614232E+02  0.7816164E-02  0.1320468E+00
        -11   -1    0    0    0    0  0.00000000000E+00  0.00000000000E+00  0.45593999997E+02  0.45594000000E+02  0.51100000000E-03 0.  1.
         11   -1    0    0    0    0 -0.00000000000E+00 -0.00000000000E+00 -0.45593999997E+02  0.45594000000E+02  0.51100000000E-03 0. -1.
    9900012    2    1    2    0    0 -0.20846412030E+01 -0.41657407405E+02 -0.17012586036E+02  0.46142318694E+02  0.10000008510E+02 0.  0.
        -12    1    1    2    0    0  0.20846412030E+01  0.41657407405E+02  0.17012586036E+02  0.45045681306E+02  0.00000000000E+00 0.  1.
         11    1    3    3    0    0 -0.33559622891E+01 -0.24072416183E+02 -0.76059025154E+01  0.25467498054E+02  0.51100000000E-03 0. -1.
        -11    1    3    3    0    0  0.31721375296E+01 -0.10121530456E+02 -0.65157631273E+01  0.12448413741E+02  0.51100000000E-03 0.  1.
        -12    1    3    3    0    0 -0.19008164435E+01 -0.74634607661E+01 -0.28909203928E+01  0.82264068995E+01  0.00000000000E+00 0.  1.
</event>
<event>
 7    1  0.1563903E-008  0.4614232E+02  0.7816164E-02  0.1320468E+00
        -11   -1    0    0    0    0  0.00000000000E+00  0.00000000000E+00  0.45593999997E+02  0.45594000000E+02  0.51100000000E-03 0.  1.
         11   -1    0    0    0    0 -0.00000000000E+00 -0.00000000000E+00 -0.45593999997E+02  0.45594000000E+02  0.51100000000E-03 0. -1.
    9900012    2    1    2    0    0 -0.85630464240E+01  0.42834624153E+02 -0.10999221713E+02  0.46142315760E+02  0.99999817493E+01 0.  0.
        -12    1    1    2    0    0  0.85630464240E+01 -0.42834624153E+02  0.10999221713E+02  0.45045684240E+02  0.00000000000E+00 0.  1.
         11    1    3    3    0    0 -0.80868093992E+01  0.23602280524E+02 -0.82691104381E+01  0.26283879468E+02  0.51100000000E-03 0. -1.
        -11    1    3    3    0    0  0.66644606149E+00  0.10021100843E+02  0.43259315593E+00  0.10052549406E+02  0.51100000000E-03 0.  1.
        -12    1    3    3    0    0 -0.11426830863E+01  0.92112427862E+01 -0.31627044312E+01  0.98058868861E+01  0.00000000000E+00 0.  1.
</event>
<event>
 7    1  0.1563903E-008  0.4614232E+02  0.7816164E-02  0.1320468E+00
        -11   -1    0    0    0    0  0.00000000000E+00  0.00000000000E+00  0.45593999997E+02  0.45594000000E+02  0.51100000000E-03 0.  1.
         11   -1    0    0    0    0 -0.00000000000E+00 -0.00000000000E+00 -0.45593999997E+02  0.45594000000E+02  0.51100000000E-03 0. -1.
    9900012    2    1    2    0    0  0.29818953926E+01 -0.30667132191E+02 -0.32859534604E+02  0.46142315286E+02  0.99999774258E+01 0.  0.
        -12    1    1    2    0    0 -0.29818953926E+01  0.30667132191E+02  0.32859534604E+02  0.45045684714E+02  0.00000000000E+00 0.  1.
         11    1    3    3    0    0  0.19443868498E+01 -0.16514925797E+02 -0.13712533595E+02  0.21553584207E+02  0.51100000000E-03 0. -1.
        -11    1    3    3    0    0  0.27687803196E+01 -0.80250148058E+01 -0.14123721206E+02  0.16478668273E+02  0.51100000000E-03 0.  1.
        -12    1    3    3    0    0 -0.17312717768E+01 -0.61271915888E+01 -0.50232798036E+01  0.81100628059E+01  0.00000000000E+00 0.  1.
</event>
<event>
 7    1  0.1563903E-008  0.4614232E+02  0.7816164E-02  0.1320468E+00
        -11   -1    0    0    0    0  0.00000000000E+00  0.00000000000E+00  0.45593999997E+02  0.45594000000E+02  0.51100000000E-03 0.  1.
         11   -1    0    0    0    0 -0.00000000000E+00 -0.00000000000E+00 -0.45593999997E+02  0.45594000000E+02  0.51100000000E-03 0. -1.
    9900012    2    1    2    0    0  0.40533000515E+02 -0.13379655811E+02 -0.14393547076E+02  0.46142317434E+02  0.99999970179E+01 0.  0.
        -12    1    1    2    0    0 -0.40533000515E+02  0.13379655811E+02  0.14393547076E+02  0.45045682566E+02  0.00000000000E+00 0.  1.
         11    1    3    3    0    0  0.21948553325E+02 -0.73072302988E+01 -0.10480366269E+02  0.25396312431E+02  0.51100000000E-03 0. -1.
        -11    1    3    3    0    0  0.12433000857E+01 -0.20311343444E+01  0.42560240293E+00  0.24191815753E+01  0.51100000000E-03 0.  1.
        -12    1    3    3    0    0  0.17341147104E+02 -0.40412911676E+01 -0.43387832102E+01  0.18326823427E+02  0.00000000000E+00 0.  1.
</event>
<event>
 7    1  0.1563903E-008  0.4614232E+02  0.7816164E-02  0.1320468E+00
        -11   -1    0    0    0    0  0.00000000000E+00  0.00000000000E+00  0.45593999997E+02  0.45594000000E+02  0.51100000000E-03 0.  1.
         11   -1    0    0    0    0 -0.00000000000E+00 -0.00000000000E+00 -0.45593999997E+02  0.45594000000E+02  0.51100000000E-03 0. -1.
    9900012    2    1    2    0    0  0.32199010169E+02  0.15050223392E+02 -0.27673598566E+02  0.46142317214E+02  0.99999950132E+01 0.  0.
        -12    1    1    2    0    0 -0.32199010169E+02 -0.15050223392E+02  0.27673598566E+02  0.45045682786E+02  0.00000000000E+00 0.  1.
         11    1    3    3    0    0  0.14705084261E+02  0.96429793647E+01 -0.15592808512E+02  0.23502387787E+02  0.51100000000E-03 0. -1.
        -11    1    3    3    0    0 -0.19437461445E+00 -0.19517754489E+00  0.24170843519E+00  0.36646827085E+00  0.51100000000E-03 0.  1.
        -12    1    3    3    0    0  0.17688300523E+02  0.56024215727E+01 -0.12322498490E+02  0.22273461156E+02  0.00000000000E+00 0.  1.
</event>
<event>
 7    1  0.1563903E-008  0.4614232E+02  0.7816164E-02  0.1320468E+00
        -11   -1    0    0    0    0  0.00000000000E+00  0.00000000000E+00  0.45593999997E+02  0.45594000000E+02  0.51100000000E-03 0. -1.
         11   -1    0    0    0    0 -0.00000000000E+00 -0.00000000000E+00 -0.45593999997E+02  0.45594000000E+02  0.51100000000E-03 0.  1.
    9900012    2    1    2    0    0  0.41059220969E+02 -0.12047509878E+02 -0.14075208960E+02  0.46142316210E+02  0.99999858534E+01 0.  0.
        -12    1    1    2    0    0 -0.41059220969E+02  0.12047509878E+02  0.14075208960E+02  0.45045683790E+02  0.00000000000E+00 0.  1.
         11    1    3    3    0    0  0.61345033053E+01 -0.53513730662E+01 -0.43169331340E+01  0.92144037486E+01  0.51100000000E-03 0. -1.
        -11    1    3    3    0    0  0.16642141504E+02 -0.41895651517E+01 -0.47734134856E+01  0.17812883163E+02  0.51100000000E-03 0.  1.
        -12    1    3    3    0    0  0.18282576160E+02 -0.25065716598E+01 -0.49848623405E+01  0.19115029298E+02  0.00000000000E+00 0.  1.
</event>
<event>
 7    1  0.1563903E-008  0.4614232E+02  0.7816164E-02  0.1320468E+00
        -11   -1    0    0    0    0  0.00000000000E+00  0.00000000000E+00  0.45593999997E+02  0.45594000000E+02  0.51100000000E-03 0.  1.
         11   -1    0    0    0    0 -0.00000000000E+00 -0.00000000000E+00 -0.45593999997E+02  0.45594000000E+02  0.51100000000E-03 0. -1.
    9900012    2    1    2    0    0  0.54772776649E+01  0.31118809955E+02 -0.32105026267E+02  0.46142316353E+02  0.99999871554E+01 0.  0.
        -12    1    1    2    0    0 -0.54772776649E+01 -0.31118809955E+02  0.32105026267E+02  0.45045683647E+02  0.00000000000E+00 0.  1.
         11    1    3    3    0    0  0.21993152469E+01  0.98121998018E+01 -0.14963318033E+02  0.18028231730E+02  0.51100000000E-03 0. -1.
        -11    1    3    3    0    0  0.40840797842E+01  0.83510405411E+01 -0.68099785817E+01  0.11523688400E+02  0.51100000000E-03 0.  1.
        -12    1    3    3    0    0 -0.80611736611E+00  0.12955569613E+02 -0.10331729653E+02  0.16590396222E+02  0.00000000000E+00 0.  1.
</event>
<event>
 7    1  0.1563903E-008  0.4614232E+02  0.7816164E-02  0.1320468E+00
        -11   -1    0    0    0    0  0.00000000000E+00  0.00000000000E+00  0.45593999997E+02  0.45594000000E+02  0.51100000000E-03 0.  1.
         11   -1    0    0    0    0 -0.00000000000E+00 -0.00000000000E+00 -0.45593999997E+02  0.45594000000E+02  0.51100000000E-03 0. -1.
    9900012    2    1    2    0    0  0.34170329725E+02 -0.14733291340E+02 -0.25385668635E+02  0.46142317862E+02  0.10000000920E+02 0.  0.
        -12    1    1    2    0    0 -0.34170329725E+02  0.14733291340E+02  0.25385668635E+02  0.45045682138E+02  0.00000000000E+00 0.  1.
         11    1    3    3    0    0  0.17995727187E+01 -0.33729869096E+01 -0.45543231560E+01  0.59462057089E+01  0.51100000000E-03 0. -1.
        -11    1    3    3    0    0  0.10069051760E+02 -0.33461310519E+01 -0.52846109341E+01  0.11853670712E+02  0.51100000000E-03 0.  1.
         12    1    3    3    0    0  0.22301705246E+02 -0.80141733781E+01 -0.15546734545E+02  0.28342441441E+02  0.00000000000E+00 0. -1.
</event>
<event>
 7    1  0.1563903E-008  0.4614232E+02  0.7816164E-02  0.1320468E+00
        -11   -1    0    0    0    0  0.00000000000E+00  0.00000000000E+00  0.45593999997E+02  0.45594000000E+02  0.51100000000E-03 0. -1.
         11   -1    0    0    0    0 -0.00000000000E+00 -0.00000000000E+00 -0.45593999997E+02  0.45594000000E+02  0.51100000000E-03 0.  1.
    9900012    2    1    2    0    0  0.41449400184E+02 -0.17600479965E+02  0.11330425776E+01  0.46142318119E+02  0.10000003267E+02 0.  0.
        -12    1    1    2    0    0 -0.41449400184E+02  0.17600479965E+02 -0.11330425776E+01  0.45045681881E+02  0.00000000000E+00 0.  1.
         11    1    3    3    0    0  0.32188627372E+02 -0.12023987763E+02  0.38653217980E+01  0.34577806852E+02  0.51100000000E-03 0. -1.
        -11    1    3    3    0    0  0.79371508293E+01 -0.57555110724E+01 -0.28854534163E+01  0.10220083790E+02  0.51100000000E-03 0.  1.
        -12    1    3    3    0    0  0.13236219821E+01  0.17901887052E+00  0.15317419594E+00  0.13444274773E+01  0.00000000000E+00 0.  1.
</event>
<event>
 7    1  0.1563903E-008  0.4614232E+02  0.7816164E-02  0.1320468E+00
        -11   -1    0    0    0    0  0.00000000000E+00  0.00000000000E+00  0.45593999997E+02  0.45594000000E+02  0.51100000000E-03 0. -1.
         11   -1    0    0    0    0 -0.00000000000E+00 -0.00000000000E+00 -0.45593999997E+02  0.45594000000E+02  0.51100000000E-03 0.  1.
    9900012    2    1    2    0    0 -0.62103494390E+01  0.15786213252E+02  0.41729372334E+02  0.46142317806E+02  0.10000000405E+02 0.  0.
        -12    1    1    2    0    0  0.62103494390E+01 -0.15786213252E+02 -0.41729372334E+02  0.45045682194E+02  0.00000000000E+00 0.  1.
         11    1    3    3    0    0 -0.77431230586E-01  0.11518360773E+01  0.82947334368E+01  0.83746835757E+01  0.51100000000E-03 0. -1.
        -11    1    3    3    0    0 -0.31247438275E+01  0.99490723446E+01  0.28425993437E+02  0.30278460457E+02  0.51100000000E-03 0.  1.
        -12    1    3    3    0    0 -0.30081743810E+01  0.46853048298E+01  0.50086454603E+01  0.74891737730E+01  0.00000000000E+00 0.  1.
</event>
<event>
 7    1  0.1563903E-008  0.4614232E+02  0.7816164E-02  0.1320468E+00
        -11   -1    0    0    0    0  0.00000000000E+00  0.00000000000E+00  0.45593999997E+02  0.45594000000E+02  0.51100000000E-03 0. -1.
         11   -1    0    0    0    0 -0.00000000000E+00 -0.00000000000E+00 -0.45593999997E+02  0.45594000000E+02  0.51100000000E-03 0.  1.
    9900012    2    1    2    0    0  0.67489999543E+00  0.12684094931E+02  0.43217726261E+02  0.46142316329E+02  0.99999869380E+01 0.  0.
        -12    1    1    2    0    0 -0.67489999543E+00 -0.12684094931E+02 -0.43217726261E+02  0.45045683671E+02  0.00000000000E+00 0.  1.
         11    1    3    3    0    0  0.35164803072E+01  0.68080564443E+01  0.22349405933E+02  0.23626493860E+02  0.51100000000E-03 0. -1.
        -11    1    3    3    0    0 -0.25886156076E+01  0.63497141881E+01  0.13630637896E+02  0.15258246647E+02  0.51100000000E-03 0.  1.
         12    1    3    3    0    0 -0.25296470421E+00 -0.47367570165E+00  0.72376824324E+01  0.72575758215E+01  0.00000000000E+00 0. -1.
</event>
<event>
 7    1  0.1563903E-008  0.4614232E+02  0.7816164E-02  0.1320468E+00
        -11   -1    0    0    0    0  0.00000000000E+00  0.00000000000E+00  0.45593999997E+02  0.45594000000E+02  0.51100000000E-03 0. -1.
         11   -1    0    0    0    0 -0.00000000000E+00 -0.00000000000E+00 -0.45593999997E+02  0.45594000000E+02  0.51100000000E-03 0.  1.
    9900012    2    1    2    0    0  0.52672144092E+01  0.44591728464E+02  0.35982592239E+01  0.46142320246E+02  0.10000022661E+02 0.  0.
        -12    1    1    2    0    0 -0.52672144092E+01 -0.44591728464E+02 -0.35982592239E+01  0.45045679754E+02  0.00000000000E+00 0.  1.
         11    1    3    3    0    0  0.28840033732E+01  0.55650682138E+01  0.22175175437E+01  0.66486723486E+01  0.51100000000E-03 0. -1.
        -11    1    3    3    0    0  0.18847832736E+01  0.27087363340E+02  0.34329500946E+01  0.27369011807E+02  0.51100000000E-03 0.  1.
        -12    1    3    3    0    0  0.49842776247E+00  0.11939296910E+02 -0.20522084144E+01  0.12124636090E+02  0.00000000000E+00 0.  1.
</event>
<event>
 7    1  0.1563903E-008  0.4614232E+02  0.7816164E-02  0.1320468E+00
        -11   -1    0    0    0    0  0.00000000000E+00  0.00000000000E+00  0.45593999997E+02  0.45594000000E+02  0.51100000000E-03 0.  1.
         11   -1    0    0    0    0 -0.00000000000E+00 -0.00000000000E+00 -0.45593999997E+02  0.45594000000E+02  0.51100000000E-03 0. -1.
    9900012    2    1    2    0    0 -0.18947760441E+01 -0.44649363378E+02 -0.56531024235E+01  0.46142318816E+02  0.10000009617E+02 0.  0.
        -12    1    1    2    0    0  0.18947760441E+01  0.44649363378E+02  0.56531024235E+01  0.45045681184E+02  0.00000000000E+00 0.  1.
         11    1    3    3    0    0  0.28353581308E+00 -0.22888549607E+01 -0.32869350914E+00  0.23296543247E+01  0.51100000000E-03 0. -1.
        -11    1    3    3    0    0 -0.19336131297E+01 -0.29966321504E+02  0.68462523805E+00  0.30036444466E+02  0.51100000000E-03 0.  1.
        -12    1    3    3    0    0 -0.24469872751E+00 -0.12394186914E+02 -0.60090341524E+01  0.13776220025E+02  0.00000000000E+00 0.  1.
</event>
<event>
 7    1  0.1563903E-008  0.4614232E+02  0.7816164E-02  0.1320468E+00
        -11   -1    0    0    0    0  0.00000000000E+00  0.00000000000E+00  0.45593999997E+02  0.45594000000E+02  0.51100000000E-03 0.  1.
         11   -1    0    0    0    0 -0.00000000000E+00 -0.00000000000E+00 -0.45593999997E+02  0.45594000000E+02  0.51100000000E-03 0. -1.
    9900012    2    1    2    0    0  0.26427328627E+02  0.35499445256E+02 -0.83963934400E+01  0.46142315027E+02  0.99999750719E+01 0.  0.
        -12    1    1    2    0    0 -0.26427328627E+02 -0.35499445256E+02  0.83963934400E+01  0.45045684973E+02  0.00000000000E+00 0.  1.
         11    1    3    3    0    0  0.23146372487E+02  0.30301771878E+02 -0.91609789468E+01  0.39215755428E+02  0.51100000000E-03 0. -1.
        -11    1    3    3    0    0  0.12126282299E+01  0.57671077435E+00  0.12577835314E+01  0.18398592920E+01  0.51100000000E-03 0.  1.
         12    1    3    3    0    0  0.20683279106E+01  0.46209626032E+01 -0.49319802460E+00  0.50867003074E+01  0.00000000000E+00 0. -1.
</event>
<event>
 7    1  0.1563903E-008  0.4614232E+02  0.7816164E-02  0.1320468E+00
        -11   -1    0    0    0    0  0.00000000000E+00  0.00000000000E+00  0.45593999997E+02  0.45594000000E+02  0.51100000000E-03 0. -1.
         11   -1    0    0    0    0 -0.00000000000E+00 -0.00000000000E+00 -0.45593999997E+02  0.45594000000E+02  0.51100000000E-03 0.  1.
    9900012    2    1    2    0    0 -0.20159879948E+02  0.36944884770E+02  0.16055160174E+02  0.46142318316E+02  0.10000005058E+02 0.  0.
        -12    1    1    2    0    0  0.20159879948E+02 -0.36944884770E+02 -0.16055160174E+02  0.45045681684E+02  0.00000000000E+00 0.  1.
         11    1    3    3    0    0 -0.73483643124E+01  0.14096106246E+02  0.66278334777E+01  0.17222858248E+02  0.51100000000E-03 0. -1.
        -11    1    3    3    0    0 -0.57290973021E+01  0.77117455826E+01 -0.24538919745E+00  0.96100880302E+01  0.51100000000E-03 0.  1.
        -12    1    3    3    0    0 -0.70824183331E+01  0.15137032941E+02  0.96727158940E+01  0.19309372037E+02  0.00000000000E+00 0.  1.
</event>
<event>
 7    1  0.1563903E-008  0.4614232E+02  0.7816164E-02  0.1320468E+00
        -11   -1    0    0    0    0  0.00000000000E+00  0.00000000000E+00  0.45593999997E+02  0.45594000000E+02  0.51100000000E-03 0.  1.
         11   -1    0    0    0    0 -0.00000000000E+00 -0.00000000000E+00 -0.45593999997E+02  0.45594000000E+02  0.51100000000E-03 0. -1.
    9900012    2    1    2    0    0 -0.37363197735E+02 -0.57241693837E+01 -0.24501810606E+02  0.46142318930E+02  0.10000010656E+02 0.  0.
        -12    1    1    2    0    0  0.37363197735E+02  0.57241693837E+01  0.24501810606E+02  0.45045681070E+02  0.00000000000E+00 0.  1.
         11    1    3    3    0    0 -0.15674925368E+02 -0.37899007702E+01 -0.13365997916E+02  0.20945561194E+02  0.51100000000E-03 0. -1.
        -11    1    3    3    0    0 -0.99796096687E+01 -0.14401930674E+01 -0.18649651626E+01  0.10254016800E+02  0.51100000000E-03 0.  1.
        -12    1    3    3    0    0 -0.11708662698E+02 -0.49407554605E+00 -0.92708475274E+01  0.14942740936E+02  0.00000000000E+00 0.  1.
</event>
<event>
 7    1  0.1563903E-008  0.4614232E+02  0.7816164E-02  0.1320468E+00
        -11   -1    0    0    0    0  0.00000000000E+00  0.00000000000E+00  0.45593999997E+02  0.45594000000E+02  0.51100000000E-03 0.  1.
         11   -1    0    0    0    0 -0.00000000000E+00 -0.00000000000E+00 -0.45593999997E+02  0.45594000000E+02  0.51100000000E-03 0. -1.
    9900012    2    1    2    0    0  0.21697447229E+02  0.84264350874E+01 -0.38565910465E+02  0.46142317915E+02  0.10000001399E+02 0.  0.
        -12    1    1    2    0    0 -0.21697447229E+02 -0.84264350874E+01  0.38565910465E+02  0.45045682085E+02  0.00000000000E+00 0.  1.
         11    1    3    3    0    0  0.13778804815E+02  0.94841039354E+01 -0.26438362438E+02  0.31285630860E+02  0.51100000000E-03 0. -1.
        -11    1    3    3    0    0  0.80656965855E+01 -0.14193870857E+01 -0.11631468952E+02  0.14225371396E+02  0.51100000000E-03 0.  1.
         12    1    3    3    0    0 -0.14705417192E+00  0.36171823771E+00 -0.49607907489E+00  0.63131565917E+00  0.00000000000E+00 0. -1.
</event>
<event>
 7    1  0.1563903E-008  0.4614232E+02  0.7816164E-02  0.1320468E+00
        -11   -1    0    0    0    0  0.00000000000E+00  0.00000000000E+00  0.45593999997E+02  0.45594000000E+02  0.51100000000E-03 0.  1.
         11   -1    0    0    0    0 -0.00000000000E+00 -0.00000000000E+00 -0.45593999997E+02  0.45594000000E+02  0.51100000000E-03 0. -1.
    9900012    2    1    2    0    0  0.43649336318E+02  0.53859088252E+01 -0.97386300799E+01  0.46142317735E+02  0.99999997603E+01 0.  0.
        -12    1    1    2    0    0 -0.43649336318E+02 -0.53859088252E+01  0.97386300799E+01  0.45045682265E+02  0.00000000000E+00 0.  1.
         11    1    3    3    0    0  0.18182153205E+02  0.18911944718E+01 -0.11961405231E+01  0.18319335799E+02  0.51100000000E-03 0. -1.
        -11    1    3    3    0    0  0.12717237544E+01 -0.12729483297E+01 -0.85248427310E+00  0.19910822320E+01  0.51100000000E-03 0.  1.
        -12    1    3    3    0    0  0.24195459358E+02  0.47676626832E+01 -0.76900052837E+01  0.25831899703E+02  0.00000000000E+00 0.  1.
</event>
<event>
 7    1  0.1563903E-008  0.4614232E+02  0.7816164E-02  0.1320468E+00
        -11   -1    0    0    0    0  0.00000000000E+00  0.00000000000E+00  0.45593999997E+02  0.45594000000E+02  0.51100000000E-03 0.  1.
         11   -1    0    0    0    0 -0.00000000000E+00 -0.00000000000E+00 -0.45593999997E+02  0.45594000000E+02  0.51100000000E-03 0. -1.
    9900012    2    1    2    0    0 -0.41527527945E+02 -0.13151365777E+02 -0.11472548512E+02  0.46142319093E+02  0.10000012143E+02 0.  0.
        -12    1    1    2    0    0  0.41527527945E+02  0.13151365777E+02  0.11472548512E+02  0.45045680907E+02  0.00000000000E+00 0.  1.
         11    1    3    3    0    0 -0.26080977759E+02 -0.61127265844E+01 -0.89270087422E+01  0.28236046333E+02  0.51100000000E-03 0. -1.
        -11    1    3    3    0    0 -0.85116584296E+01 -0.42078846908E+01 -0.39526829936E+01  0.10284859061E+02  0.51100000000E-03 0.  1.
        -12    1    3    3    0    0 -0.69348917567E+01 -0.28307545016E+01  0.14071432233E+01  0.76214136993E+01  0.00000000000E+00 0.  1.
</event>
<event>
 7    1  0.1563903E-008  0.4614232E+02  0.7816164E-02  0.1320468E+00
        -11   -1    0    0    0    0  0.00000000000E+00  0.00000000000E+00  0.45593999997E+02  0.45594000000E+02  0.51100000000E-03 0.  1.
         11   -1    0    0    0    0 -0.00000000000E+00 -0.00000000000E+00 -0.45593999997E+02  0.45594000000E+02  0.51100000000E-03 0. -1.
    9900012    2    1    2    0    0  0.40719788361E+02  0.10979868383E+02 -0.15825763398E+02  0.46142318065E+02  0.10000002769E+02 0.  0.
        -12    1    1    2    0    0 -0.40719788361E+02 -0.10979868383E+02  0.15825763398E+02  0.45045681935E+02  0.00000000000E+00 0.  1.
         11    1    3    3    0    0  0.75248891652E+01  0.40818546197E+01 -0.55410056468E+01  0.10197462328E+02  0.51100000000E-03 0. -1.
        -11    1    3    3    0    0  0.20089658984E+00  0.72857524714E-01 -0.96319456190E+00  0.98661627997E+00  0.51100000000E-03 0.  1.
        -12    1    3    3    0    0  0.32994002606E+02  0.68251562384E+01 -0.93215631891E+01  0.34958239457E+02  0.00000000000E+00 0.  1.
</event>
<event>
 7    1  0.1563903E-008  0.4614232E+02  0.7816164E-02  0.1320468E+00
        -11   -1    0    0    0    0  0.00000000000E+00  0.00000000000E+00  0.45593999997E+02  0.45594000000E+02  0.51100000000E-03 0.  1.
         11   -1    0    0    0    0 -0.00000000000E+00 -0.00000000000E+00 -0.45593999997E+02  0.45594000000E+02  0.51100000000E-03 0. -1.
    9900012    2    1    2    0    0  0.44412667598E+02  0.64052527722E+01 -0.39498464864E+01  0.46142316594E+02  0.99999893531E+01 0.  0.
        -12    1    1    2    0    0 -0.44412667598E+02 -0.64052527722E+01  0.39498464864E+01  0.45045683406E+02  0.00000000000E+00 0.  1.
         11    1    3    3    0    0  0.17975488008E+02  0.40595644694E+01 -0.39710600363E+01  0.18851194946E+02  0.51100000000E-03 0. -1.
        -11    1    3    3    0    0  0.11300152949E+02  0.59438337143E+00 -0.31086450125E+01  0.11735008408E+02  0.51100000000E-03 0.  1.
         12    1    3    3    0    0  0.15137026641E+02  0.17513049314E+01  0.31298585624E+01  0.15556113240E+02  0.00000000000E+00 0. -1.
</event>
<event>
 7    1  0.1563903E-008  0.4614232E+02  0.7816164E-02  0.1320468E+00
        -11   -1    0    0    0    0  0.00000000000E+00  0.00000000000E+00  0.45593999997E+02  0.45594000000E+02  0.51100000000E-03 0.  1.
         11   -1    0    0    0    0 -0.00000000000E+00 -0.00000000000E+00 -0.45593999997E+02  0.45594000000E+02  0.51100000000E-03 0. -1.
    9900012    2    1    2    0    0 -0.23224284002E+02  0.19517232555E+02 -0.33299004790E+02  0.46142318142E+02  0.10000003471E+02 0.  0.
        -12    1    1    2    0    0  0.23224284002E+02 -0.19517232555E+02  0.33299004790E+02  0.45045681858E+02  0.00000000000E+00 0.  1.
         11    1    3    3    0    0 -0.36112601798E+01  0.41812270334E+01 -0.91830241181E+01  0.10716892824E+02  0.51100000000E-03 0. -1.
        -11    1    3    3    0    0 -0.11683297143E+02  0.12304018528E+02 -0.12675824135E+02  0.21179348948E+02  0.51100000000E-03 0.  1.
        -12    1    3    3    0    0 -0.79297266791E+01  0.30319869933E+01 -0.11440156538E+02  0.14246076370E+02  0.00000000000E+00 0.  1.
</event>
<event>
 7    1  0.1563903E-008  0.4614232E+02  0.7816164E-02  0.1320468E+00
        -11   -1    0    0    0    0  0.00000000000E+00  0.00000000000E+00  0.45593999997E+02  0.45594000000E+02  0.51100000000E-03 0.  1.
         11   -1    0    0    0    0 -0.00000000000E+00 -0.00000000000E+00 -0.45593999997E+02  0.45594000000E+02  0.51100000000E-03 0. -1.
    9900012    2    1    2    0    0 -0.14386771778E+02 -0.41264851442E+02 -0.10924574178E+02  0.46142317769E+02  0.10000000068E+02 0.  0.
        -12    1    1    2    0    0  0.14386771778E+02  0.41264851442E+02  0.10924574178E+02  0.45045682231E+02  0.00000000000E+00 0.  1.
         11    1    3    3    0    0 -0.92059448158E+01 -0.14639401403E+02 -0.72779541550E+01  0.18762465465E+02  0.51100000000E-03 0. -1.
        -11    1    3    3    0    0 -0.40155347604E+01 -0.21466312141E+02 -0.32010593737E+01  0.22072015261E+02  0.51100000000E-03 0.  1.
         12    1    3    3    0    0 -0.11652922017E+01 -0.51591378984E+01 -0.44556064948E+00  0.53078370418E+01  0.00000000000E+00 0. -1.
</event>
<event>
 7    1  0.1563903E-008  0.4614232E+02  0.7816164E-02  0.1320468E+00
        -11   -1    0    0    0    0  0.00000000000E+00  0.00000000000E+00  0.45593999997E+02  0.45594000000E+02  0.51100000000E-03 0.  1.
         11   -1    0    0    0    0 -0.00000000000E+00 -0.00000000000E+00 -0.45593999997E+02  0.45594000000E+02  0.51100000000E-03 0. -1.
    9900012    2    1    2    0    0 -0.62172410554E+01 -0.11029520976E+02 -0.43229725566E+02  0.46142316613E+02  0.99999895267E+01 0.  0.
        -12    1    1    2    0    0  0.62172410554E+01  0.11029520976E+02  0.43229725566E+02  0.45045683387E+02  0.00000000000E+00 0.  1.
         11    1    3    3    0    0 -0.33555636585E+01 -0.93828636238E+01 -0.34945054480E+02  0.36338062278E+02  0.51100000000E-03 0. -1.
        -11    1    3    3    0    0 -0.28974657591E+01 -0.17846977686E+01 -0.30564673542E+01  0.45741061311E+01  0.51100000000E-03 0.  1.
         12    1    3    3    0    0  0.35788362295E-01  0.13804041687E+00 -0.52282037327E+01  0.52301482038E+01  0.00000000000E+00 0. -1.
</event>
<event>
 7    1  0.1563903E-008  0.4614232E+02  0.7816164E-02  0.1320468E+00
        -11   -1    0    0    0    0  0.00000000000E+00  0.00000000000E+00  0.45593999997E+02  0.45594000000E+02  0.51100000000E-03 0.  1.
         11   -1    0    0    0    0 -0.00000000000E+00 -0.00000000000E+00 -0.45593999997E+02  0.45594000000E+02  0.51100000000E-03 0. -1.
    9900012    2    1    2    0    0 -0.17227566459E+01 -0.41701663207E+02 -0.16944522893E+02  0.46142318068E+02  0.10000002794E+02 0.  0.
        -12    1    1    2    0    0  0.17227566459E+01  0.41701663207E+02  0.16944522893E+02  0.45045681932E+02  0.00000000000E+00 0.  1.
         11    1    3    3    0    0 -0.11724823159E+01 -0.43474492514E+01 -0.17078314549E+01  0.48157780590E+01  0.51100000000E-03 0.  1.
        -11    1    3    3    0    0 -0.16642830509E+01 -0.32430280712E+02 -0.98273677091E+01  0.33927424033E+02  0.51100000000E-03 0. -1.
        -12    1    3    3    0    0  0.11140087210E+01 -0.49239332434E+01 -0.54093237295E+01  0.73991159759E+01  0.00000000000E+00 0.  1.
</event>
<event>
 7    1  0.1563903E-008  0.4614232E+02  0.7816164E-02  0.1320468E+00
        -11   -1    0    0    0    0  0.00000000000E+00  0.00000000000E+00  0.45593999997E+02  0.45594000000E+02  0.51100000000E-03 0.  1.
         11   -1    0    0    0    0 -0.00000000000E+00 -0.00000000000E+00 -0.45593999997E+02  0.45594000000E+02  0.51100000000E-03 0. -1.
    9900012    2    1    2    0    0 -0.41166527308E+02 -0.14600573387E+02 -0.11011530018E+02  0.46142317553E+02  0.99999980998E+01 0.  0.
        -12    1    1    2    0    0  0.41166527308E+02  0.14600573387E+02  0.11011530018E+02  0.45045682447E+02  0.00000000000E+00 0.  1.
         11    1    3    3    0    0 -0.19538392755E+02 -0.55942673224E+01 -0.83555528428E+01  0.21974072947E+02  0.51100000000E-03 0. -1.
        -11    1    3    3    0    0 -0.19279950909E+01  0.46124424894E-01  0.10147811318E+01  0.21792369168E+01  0.51100000000E-03 0.  1.
         12    1    3    3    0    0 -0.19700139462E+02 -0.90524304896E+01 -0.36707583068E+01  0.21989007689E+02  0.00000000000E+00 0. -1.
</event>
<event>
 7    1  0.1563903E-008  0.4614231E+02  0.7816164E-02  0.1320468E+00
        -11   -1    0    0    0    0  0.00000000000E+00  0.00000000000E+00  0.45593999997E+02  0.45594000000E+02  0.51100000000E-03 0. -1.
         11   -1    0    0    0    0 -0.00000000000E+00 -0.00000000000E+00 -0.45593999997E+02  0.45594000000E+02  0.51100000000E-03 0.  1.
    9900012    2    1    2    0    0  0.21589031265E+02 -0.38690821666E+02 -0.81269788896E+01  0.46142314990E+02  0.99999747331E+01 0.  0.
        -12    1    1    2    0    0 -0.21589031265E+02  0.38690821666E+02  0.81269788896E+01  0.45045685010E+02  0.00000000000E+00 0.  1.
         11    1    3    3    0    0  0.84692902885E+01 -0.15421779606E+02 -0.57264782620E+01  0.18502775947E+02  0.51100000000E-03 0. -1.
        -11    1    3    3    0    0  0.56023580944E+01 -0.15197010664E+02  0.60160062124E+00  0.16207944747E+02  0.51100000000E-03 0.  1.
        -12    1    3    3    0    0  0.75173828823E+01 -0.80720313957E+01 -0.30021012488E+01  0.11431594297E+02  0.00000000000E+00 0.  1.
</event>
<event>
 7    1  0.1563903E-008  0.4614232E+02  0.7816164E-02  0.1320468E+00
        -11   -1    0    0    0    0  0.00000000000E+00  0.00000000000E+00  0.45593999997E+02  0.45594000000E+02  0.51100000000E-03 0.  1.
         11   -1    0    0    0    0 -0.00000000000E+00 -0.00000000000E+00 -0.45593999997E+02  0.45594000000E+02  0.51100000000E-03 0. -1.
    9900012    2    1    2    0    0 -0.30727417786E+02 -0.10317048648E+02 -0.31280950876E+02  0.46142316696E+02  0.99999902888E+01 0.  0.
        -12    1    1    2    0    0  0.30727417786E+02  0.10317048648E+02  0.31280950876E+02  0.45045683304E+02  0.00000000000E+00 0.  1.
         11    1    3    3    0    0 -0.25239480784E+02 -0.89098295095E+01 -0.23492654619E+02  0.35613498472E+02  0.51100000000E-03 0. -1.
        -11    1    3    3    0    0 -0.49757449396E+00 -0.41438463567E+00  0.48986973154E+00  0.81195296559E+00  0.51100000000E-03 0.  1.
         12    1    3    3    0    0 -0.49903625084E+01 -0.99283450280E+00 -0.82781659886E+01  0.97168652584E+01  0.00000000000E+00 0. -1.
</event>
<event>
 7    1  0.1563903E-008  0.4614232E+02  0.7816164E-02  0.1320468E+00
        -11   -1    0    0    0    0  0.00000000000E+00  0.00000000000E+00  0.45593999997E+02  0.45594000000E+02  0.51100000000E-03 0. -1.
         11   -1    0    0    0    0 -0.00000000000E+00 -0.00000000000E+00 -0.45593999997E+02  0.45594000000E+02  0.51100000000E-03 0.  1.
    9900012    2    1    2    0    0  0.17415445857E+02  0.21957245177E+02  0.35266061821E+02  0.46142317782E+02  0.10000000186E+02 0.  0.
        -12    1    1    2    0    0 -0.17415445857E+02 -0.21957245177E+02 -0.35266061821E+02  0.45045682218E+02  0.00000000000E+00 0.  1.
         11    1    3    3    0    0  0.78822650385E+01  0.92232643532E+01  0.17816847153E+02  0.21555480746E+02  0.51100000000E-03 0. -1.
        -11    1    3    3    0    0  0.49977490661E+01  0.32183113208E+01  0.10158723107E+02  0.11770075569E+02  0.51100000000E-03 0.  1.
        -12    1    3    3    0    0  0.45354317527E+01  0.95156695032E+01  0.72904915613E+01  0.12816761466E+02  0.00000000000E+00 0.  1.
</event>
<event>
 7    1  0.1563903E-008  0.4614232E+02  0.7816164E-02  0.1320468E+00
        -11   -1    0    0    0    0  0.00000000000E+00  0.00000000000E+00  0.45593999997E+02  0.45594000000E+02  0.51100000000E-03 0. -1.
         11   -1    0    0    0    0 -0.00000000000E+00 -0.00000000000E+00 -0.45593999997E+02  0.45594000000E+02  0.51100000000E-03 0.  1.
    9900012    2    1    2    0    0 -0.22471336684E+02  0.30402705712E+02  0.24491388577E+02  0.46142316506E+02  0.99999885571E+01 0.  0.
        -12    1    1    2    0    0  0.22471336684E+02 -0.30402705712E+02 -0.24491388577E+02  0.45045683494E+02  0.00000000000E+00 0.  1.
         11    1    3    3    0    0 -0.75399335759E+01  0.84881621497E+01  0.73359447319E+01  0.13517232719E+02  0.51100000000E-03 0. -1.
        -11    1    3    3    0    0  0.75940952773E+00  0.19107237917E+00  0.12129834070E+01  0.14437937843E+01  0.51100000000E-03 0.  1.
        -12    1    3    3    0    0 -0.15690812636E+02  0.21723471183E+02  0.15942460438E+02  0.31181290003E+02  0.00000000000E+00 0.  1.
</event>
<event>
 7    1  0.1563903E-008  0.4614232E+02  0.7816164E-02  0.1320468E+00
        -11   -1    0    0    0    0  0.00000000000E+00  0.00000000000E+00  0.45593999997E+02  0.45594000000E+02  0.51100000000E-03 0. -1.
         11   -1    0    0    0    0 -0.00000000000E+00 -0.00000000000E+00 -0.45593999997E+02  0.45594000000E+02  0.51100000000E-03 0.  1.
    9900012    2    1    2    0    0 -0.44956703386E+02  0.24056577741E+01  0.14902785330E+01  0.46142319865E+02  0.10000019187E+02 0.  0.
        -12    1    1    2    0    0  0.44956703386E+02 -0.24056577741E+01 -0.14902785330E+01  0.45045680135E+02  0.00000000000E+00 0.  1.
         11    1    3    3    0    0 -0.12703049576E+02  0.32127657377E+01  0.15555723830E+01  0.13195042172E+02  0.51100000000E-03 0. -1.
        -11    1    3    3    0    0 -0.20234713465E+01  0.38495222638E+00 -0.16690781589E+01  0.26511217754E+01  0.51100000000E-03 0.  1.
         12    1    3    3    0    0 -0.30230182464E+02 -0.11920601899E+01  0.16037843089E+01  0.30296155918E+02  0.00000000000E+00 0. -1.
</event>
<event>
 7    1  0.1563903E-008  0.4614232E+02  0.7816164E-02  0.1320468E+00
        -11   -1    0    0    0    0  0.00000000000E+00  0.00000000000E+00  0.45593999997E+02  0.45594000000E+02  0.51100000000E-03 0.  1.
         11   -1    0    0    0    0 -0.00000000000E+00 -0.00000000000E+00 -0.45593999997E+02  0.45594000000E+02  0.51100000000E-03 0. -1.
    9900012    2    1    2    0    0 -0.33278313560E+02  0.16429391741E+02 -0.25529247754E+02  0.46142316996E+02  0.99999930261E+01 0.  0.
        -12    1    1    2    0    0  0.33278313560E+02 -0.16429391741E+02  0.25529247754E+02  0.45045683004E+02  0.00000000000E+00 0.  1.
         11    1    3    3    0    0 -0.17342369465E+02  0.11074752188E+02 -0.95923069701E+01  0.22702869157E+02  0.51100000000E-03 0. -1.
        -11    1    3    3    0    0 -0.14108597829E+02  0.58121477759E+01 -0.13619572182E+02  0.20453027677E+02  0.51100000000E-03 0.  1.
        -12    1    3    3    0    0 -0.18273462662E+01 -0.45750822298E+00 -0.23173686018E+01  0.29864201626E+01  0.00000000000E+00 0.  1.
</event>
<event>
 7    1  0.1563903E-008  0.4614232E+02  0.7816164E-02  0.1320468E+00
        -11   -1    0    0    0    0  0.00000000000E+00  0.00000000000E+00  0.45593999997E+02  0.45594000000E+02  0.51100000000E-03 0.  1.
         11   -1    0    0    0    0 -0.00000000000E+00 -0.00000000000E+00 -0.45593999997E+02  0.45594000000E+02  0.51100000000E-03 0. -1.
    9900012    2    1    2    0    0  0.21890794834E+02  0.78774068102E+01 -0.38572698552E+02  0.46142317520E+02  0.99999977986E+01 0.  0.
        -12    1    1    2    0    0 -0.21890794834E+02 -0.78774068102E+01  0.38572698552E+02  0.45045682480E+02  0.00000000000E+00 0.  1.
         11    1    3    3    0    0  0.12407810437E+02  0.61867844878E+01 -0.24934885237E+02  0.28530309570E+02  0.51100000000E-03 0. -1.
        -11    1    3    3    0    0  0.22642467259E+01 -0.13149526465E+01 -0.65668329654E+01  0.70695975242E+01  0.51100000000E-03 0.  1.
        -12    1    3    3    0    0  0.72187376719E+01  0.30055749689E+01 -0.70709803495E+01  0.10542410425E+02  0.00000000000E+00 0.  1.
</event>
<event>
 7    1  0.1563903E-008  0.4614232E+02  0.7816164E-02  0.1320468E+00
        -11   -1    0    0    0    0  0.00000000000E+00  0.00000000000E+00  0.45593999997E+02  0.45594000000E+02  0.51100000000E-03 0.  1.
         11   -1    0    0    0    0 -0.00000000000E+00 -0.00000000000E+00 -0.45593999997E+02  0.45594000000E+02  0.51100000000E-03 0. -1.
    9900012    2    1    2    0    0  0.13017332060E+02  0.42789213771E+02 -0.53615198364E+01  0.46142316033E+02  0.99999842377E+01 0.  0.
        -12    1    1    2    0    0 -0.13017332060E+02 -0.42789213771E+02  0.53615198364E+01  0.45045683967E+02  0.00000000000E+00 0.  1.
         11    1    3    3    0    0  0.96517277337E+01  0.24333858051E+02 -0.25849126610E+00  0.26179368096E+02  0.51100000000E-03 0. -1.
        -11    1    3    3    0    0 -0.45623107448E+00  0.98497456439E+01 -0.31002827762E+01  0.10336217374E+02  0.51100000000E-03 0.  1.
         12    1    3    3    0    0  0.38218354010E+01  0.86056100763E+01 -0.20027457942E+01  0.96267305631E+01  0.00000000000E+00 0. -1.
</event>
<event>
 7    1  0.1563903E-008  0.4614232E+02  0.7816164E-02  0.1320468E+00
        -11   -1    0    0    0    0  0.00000000000E+00  0.00000000000E+00  0.45593999997E+02  0.45594000000E+02  0.51100000000E-03 0.  1.
         11   -1    0    0    0    0 -0.00000000000E+00 -0.00000000000E+00 -0.45593999997E+02  0.45594000000E+02  0.51100000000E-03 0. -1.
    9900012    2    1    2    0    0 -0.93228694995E+01  0.39052347467E+02  0.20423313452E+02  0.46142317957E+02  0.10000001784E+02 0.  0.
        -12    1    1    2    0    0  0.93228694995E+01 -0.39052347467E+02 -0.20423313452E+02  0.45045682043E+02  0.00000000000E+00 0.  1.
         11    1    3    3    0    0 -0.75169958888E+00  0.81209619033E+01  0.22638007357E+01  0.84640338220E+01  0.51100000000E-03 0. -1.
        -11    1    3    3    0    0 -0.97499501231E+01  0.27100666304E+02  0.17238092919E+02  0.33565748752E+02  0.51100000000E-03 0.  1.
        -12    1    3    3    0    0  0.11787802125E+01  0.38307192590E+01  0.92141979807E+00  0.41125353828E+01  0.00000000000E+00 0.  1.
</event>
<event>
 7    1  0.1563903E-008  0.4614232E+02  0.7816164E-02  0.1320468E+00
        -11   -1    0    0    0    0  0.00000000000E+00  0.00000000000E+00  0.45593999997E+02  0.45594000000E+02  0.51100000000E-03 0. -1.
         11   -1    0    0    0    0 -0.00000000000E+00 -0.00000000000E+00 -0.45593999997E+02  0.45594000000E+02  0.51100000000E-03 0.  1.
    9900012    2    1    2    0    0  0.38967874204E+02  0.22363040938E+02  0.32423220402E+01  0.46142317941E+02  0.10000001639E+02 0.  0.
        -12    1    1    2    0    0 -0.38967874204E+02 -0.22363040938E+02 -0.32423220402E+01  0.45045682059E+02  0.00000000000E+00 0.  1.
         11    1    3    3    0    0  0.21805746039E+02  0.15019749954E+02  0.33371704442E+01  0.26687453154E+02  0.51100000000E-03 0. -1.
        -11    1    3    3    0    0  0.10099754846E+02  0.71092424143E+01  0.52005368645E+00  0.12361910522E+02  0.51100000000E-03 0.  1.
         12    1    3    3    0    0  0.70623733185E+01  0.23404856974E+00 -0.61490209045E+00  0.70929542649E+01  0.00000000000E+00 0. -1.
</event>
<event>
 7    1  0.1563903E-008  0.4614232E+02  0.7816164E-02  0.1320468E+00
        -11   -1    0    0    0    0  0.00000000000E+00  0.00000000000E+00  0.45593999997E+02  0.45594000000E+02  0.51100000000E-03 0. -1.
         11   -1    0    0    0    0 -0.00000000000E+00 -0.00000000000E+00 -0.45593999997E+02  0.45594000000E+02  0.51100000000E-03 0.  1.
    9900012    2    1    2    0    0 -0.16811383117E+02  0.37267813831E+02  0.18910341445E+02  0.46142316926E+02  0.99999923845E+01 0.  0.
        -12    1    1    2    0    0  0.16811383117E+02 -0.37267813831E+02 -0.18910341445E+02  0.45045683074E+02  0.00000000000E+00 0.  1.
         11    1    3    3    0    0 -0.80480418038E+01  0.13057412031E+02  0.10636064268E+02  0.18665284600E+02  0.51100000000E-03 0. -1.
        -11    1    3    3    0    0 -0.39208064266E+01  0.65971780889E+01  0.71386582649E+00  0.77074695232E+01  0.51100000000E-03 0.  1.
        -12    1    3    3    0    0 -0.48425348868E+01  0.17613223711E+02  0.75604113498E+01  0.19769562803E+02  0.00000000000E+00 0.  1.
</event>
<event>
 7    1  0.1563903E-008  0.4614232E+02  0.7816164E-02  0.1320468E+00
        -11   -1    0    0    0    0  0.00000000000E+00  0.00000000000E+00  0.45593999997E+02  0.45594000000E+02  0.51100000000E-03 0. -1.
         11   -1    0    0    0    0 -0.00000000000E+00 -0.00000000000E+00 -0.45593999997E+02  0.45594000000E+02  0.51100000000E-03 0.  1.
    9900012    2    1    2    0    0 -0.44517891171E+01 -0.44499506252E+02  0.53933932543E+01  0.46142321252E+02  0.10000031834E+02 0.  0.
        -12    1    1    2    0    0  0.44517891171E+01  0.44499506252E+02 -0.53933932543E+01  0.45045678748E+02  0.00000000000E+00 0.  1.
         11    1    3    3    0    0 -0.82128627381E+00 -0.11409273291E+02  0.48667326843E+00  0.11449143169E+02  0.51100000000E-03 0. -1.
        -11    1    3    3    0    0 -0.52352063077E-01 -0.25611891297E+02  0.12788350898E+01  0.25643851817E+02  0.51100000000E-03 0.  1.
        -12    1    3    3    0    0 -0.35781507802E+01 -0.74783416639E+01  0.36278848960E+01  0.90493262659E+01  0.00000000000E+00 0.  1.
</event>
<event>
 7    1  0.1563903E-008  0.4614232E+02  0.7816164E-02  0.1320468E+00
        -11   -1    0    0    0    0  0.00000000000E+00  0.00000000000E+00  0.45593999997E+02  0.45594000000E+02  0.51100000000E-03 0.  1.
         11   -1    0    0    0    0 -0.00000000000E+00 -0.00000000000E+00 -0.45593999997E+02  0.45594000000E+02  0.51100000000E-03 0. -1.
    9900012    2    1    2    0    0 -0.62043560721E+01  0.44193657826E+01 -0.44396944371E+02  0.46142317658E+02  0.99999990591E+01 0.  0.
        -12    1    1    2    0    0  0.62043560721E+01 -0.44193657826E+01  0.44396944371E+02  0.45045682342E+02  0.00000000000E+00 0.  1.
         11    1    3    3    0    0  0.14127531007E+01  0.80722526407E+00 -0.16874211277E+01  0.23441148167E+01  0.51100000000E-03 0. -1.
        -11    1    3    3    0    0 -0.21598603876E+01  0.33891204465E+01 -0.13627441464E+02  0.14207684379E+02  0.51100000000E-03 0.  1.
         12    1    3    3    0    0 -0.54572487852E+01  0.22302007201E+00 -0.29082081779E+02  0.29590518462E+02  0.00000000000E+00 0. -1.
</event>
<event>
 7    1  0.1563903E-008  0.4614232E+02  0.7816164E-02  0.1320468E+00
        -11   -1    0    0    0    0  0.00000000000E+00  0.00000000000E+00  0.45593999997E+02  0.45594000000E+02  0.51100000000E-03 0.  1.
         11   -1    0    0    0    0 -0.00000000000E+00 -0.00000000000E+00 -0.45593999997E+02  0.45594000000E+02  0.51100000000E-03 0. -1.
    9900012    2    1    2    0    0  0.17224398475E+02  0.39873689051E+02 -0.11938279741E+02  0.46142317582E+02  0.99999983663E+01 0.  0.
        -12    1    1    2    0    0 -0.17224398475E+02 -0.39873689051E+02  0.11938279741E+02  0.45045682418E+02  0.00000000000E+00 0.  1.
         11    1    3    3    0    0  0.14343298956E+02  0.26109320528E+02 -0.50227522748E+01  0.30210178485E+02  0.51100000000E-03 0. -1.
        -11    1    3    3    0    0  0.29500890888E+01  0.72147333318E+01 -0.34855625799E+01  0.85384160967E+01  0.51100000000E-03 0.  1.
         12    1    3    3    0    0 -0.68989570086E-01  0.65496351907E+01 -0.34299648860E+01  0.73937230007E+01  0.00000000000E+00 0. -1.
</event>
<event>
 7    1  0.1563903E-008  0.4614232E+02  0.7816164E-02  0.1320468E+00
        -11   -1    0    0    0    0  0.00000000000E+00  0.00000000000E+00  0.45593999997E+02  0.45594000000E+02  0.51100000000E-03 0.  1.
         11   -1    0    0    0    0 -0.00000000000E+00 -0.00000000000E+00 -0.45593999997E+02  0.45594000000E+02  0.51100000000E-03 0. -1.
    9900012    2    1    2    0    0 -0.26732114944E+02 -0.64671685495E+01 -0.35674686679E+02  0.46142317542E+02  0.99999980013E+01 0.  0.
        -12    1    1    2    0    0  0.26732114944E+02  0.64671685495E+01  0.35674686679E+02  0.45045682458E+02  0.00000000000E+00 0.  1.
         11    1    3    3    0    0 -0.13000158949E+02 -0.32425989957E+01 -0.19625218728E+02  0.23762739558E+02  0.51100000000E-03 0. -1.
        -11    1    3    3    0    0 -0.63279483179E+00 -0.23688841841E+01 -0.29278439628E+01  0.38189412287E+01  0.51100000000E-03 0.  1.
        -12    1    3    3    0    0 -0.13099161164E+02 -0.85568536978E+00 -0.13121623989E+02  0.18560636755E+02  0.00000000000E+00 0.  1.
</event>
<event>
 7    1  0.1563903E-008  0.4614232E+02  0.7816164E-02  0.1320468E+00
        -11   -1    0    0    0    0  0.00000000000E+00  0.00000000000E+00  0.45593999997E+02  0.45594000000E+02  0.51100000000E-03 0.  1.
         11   -1    0    0    0    0 -0.00000000000E+00 -0.00000000000E+00 -0.45593999997E+02  0.45594000000E+02  0.51100000000E-03 0. -1.
    9900012    2    1    2    0    0  0.34510147729E+02 -0.24600026067E+02 -0.15264401952E+02  0.46142317124E+02  0.99999941947E+01 0.  0.
        -12    1    1    2    0    0 -0.34510147729E+02  0.24600026067E+02  0.15264401952E+02  0.45045682876E+02  0.00000000000E+00 0.  1.
         11    1    3    3    0    0  0.21356509365E+02 -0.15067848596E+02 -0.69379623939E+01  0.27042113010E+02  0.51100000000E-03 0. -1.
        -11    1    3    3    0    0  0.81710092859E+01 -0.84409606547E+01 -0.74868838614E+01  0.13930852082E+02  0.51100000000E-03 0.  1.
         12    1    3    3    0    0  0.49826290782E+01 -0.10912168157E+01 -0.83955569688E+00  0.51693520327E+01  0.00000000000E+00 0. -1.
</event>
<event>
 7    1  0.1563903E-008  0.4614232E+02  0.7816164E-02  0.1320468E+00
        -11   -1    0    0    0    0  0.00000000000E+00  0.00000000000E+00  0.45593999997E+02  0.45594000000E+02  0.51100000000E-03 0.  1.
         11   -1    0    0    0    0 -0.00000000000E+00 -0.00000000000E+00 -0.45593999997E+02  0.45594000000E+02  0.51100000000E-03 0. -1.
    9900012    2    1    2    0    0  0.21753320537E+01 -0.44970695124E+02 -0.14205580184E+01  0.46142317914E+02  0.10000001397E+02 0.  0.
        -12    1    1    2    0    0 -0.21753320537E+01  0.44970695124E+02  0.14205580184E+01  0.45045682086E+02  0.00000000000E+00 0.  1.
         11    1    3    3    0    0  0.13058263870E+01 -0.16564106599E+02  0.18651737758E+01  0.16719858954E+02  0.51100000000E-03 0. -1.
        -11    1    3    3    0    0  0.13131249464E+01 -0.64549303499E+00 -0.33838661027E+00  0.15018202763E+01  0.51100000000E-03 0.  1.
        -12    1    3    3    0    0 -0.44361927976E+00 -0.27761095490E+02 -0.29473451840E+01  0.27920638684E+02  0.00000000000E+00 0.  1.
</event>
<event>
 7    1  0.1563903E-008  0.4614231E+02  0.7816164E-02  0.1320468E+00
        -11   -1    0    0    0    0  0.00000000000E+00  0.00000000000E+00  0.45593999997E+02  0.45594000000E+02  0.51100000000E-03 0.  1.
         11   -1    0    0    0    0 -0.00000000000E+00 -0.00000000000E+00 -0.45593999997E+02  0.45594000000E+02  0.51100000000E-03 0. -1.
    9900012    2    1    2    0    0  0.34729844007E+02  0.11222660182E+01 -0.28665174059E+02  0.46142314862E+02  0.99999735593E+01 0.  0.
        -12    1    1    2    0    0 -0.34729844007E+02 -0.11222660182E+01  0.28665174059E+02  0.45045685138E+02  0.00000000000E+00 0.  1.
         11    1    3    3    0    0  0.11496110606E+02  0.33351355465E+01 -0.53870941053E+01  0.13126479777E+02  0.51100000000E-03 0. -1.
        -11    1    3    3    0    0  0.64346226666E+01  0.19882099759E+00 -0.61265278091E+01  0.88869703447E+01  0.51100000000E-03 0.  1.
         12    1    3    3    0    0  0.16799110734E+02 -0.24116905259E+01 -0.17151552144E+02  0.24128864739E+02  0.00000000000E+00 0. -1.
</event>
<event>
 7    1  0.1563903E-008  0.4614232E+02  0.7816164E-02  0.1320468E+00
        -11   -1    0    0    0    0  0.00000000000E+00  0.00000000000E+00  0.45593999997E+02  0.45594000000E+02  0.51100000000E-03 0.  1.
         11   -1    0    0    0    0 -0.00000000000E+00 -0.00000000000E+00 -0.45593999997E+02  0.45594000000E+02  0.51100000000E-03 0. -1.
    9900012    2    1    2    0    0 -0.32567979694E+02 -0.23786976409E+02  0.20065389953E+02  0.46142318498E+02  0.10000006715E+02 0.  0.
        -12    1    1    2    0    0  0.32567979694E+02  0.23786976409E+02 -0.20065389953E+02  0.45045681502E+02  0.00000000000E+00 0.  1.
         11    1    3    3    0    0 -0.41350030057E+01  0.26011498703E+00  0.10716210359E+01  0.42795188479E+01  0.51100000000E-03 0. -1.
        -11    1    3    3    0    0 -0.12972276849E+02 -0.12281831374E+02  0.96654169176E+01  0.20311170154E+02  0.51100000000E-03 0.  1.
         12    1    3    3    0    0 -0.15460699839E+02 -0.11765260022E+02  0.93283519994E+01  0.21551629496E+02  0.00000000000E+00 0. -1.
</event>
<event>
 7    1  0.1563903E-008  0.4614232E+02  0.7816164E-02  0.1320468E+00
        -11   -1    0    0    0    0  0.00000000000E+00  0.00000000000E+00  0.45593999997E+02  0.45594000000E+02  0.51100000000E-03 0.  1.
         11   -1    0    0    0    0 -0.00000000000E+00 -0.00000000000E+00 -0.45593999997E+02  0.45594000000E+02  0.51100000000E-03 0. -1.
    9900012    2    1    2    0    0  0.49948257040E+00 -0.31658075215E+02 -0.32041072219E+02  0.46142317431E+02  0.99999969875E+01 0.  0.
        -12    1    1    2    0    0 -0.49948257040E+00  0.31658075215E+02  0.32041072219E+02  0.45045682569E+02  0.00000000000E+00 0.  1.
         11    1    3    3    0    0  0.47161726806E+00 -0.93988048702E+01 -0.11125885085E+02  0.14572071748E+02  0.51100000000E-03 0. -1.
        -11    1    3    3    0    0  0.23023627738E+01 -0.51089097763E+01 -0.88617170091E+01  0.10484839629E+02  0.51100000000E-03 0.  1.
        -12    1    3    3    0    0 -0.22744974714E+01 -0.17150360569E+02 -0.12053470125E+02  0.21085406053E+02  0.00000000000E+00 0.  1.
</event>
<event>
 7    1  0.1563903E-008  0.4614231E+02  0.7816164E-02  0.1320468E+00
        -11   -1    0    0    0    0  0.00000000000E+00  0.00000000000E+00  0.45593999997E+02  0.45594000000E+02  0.51100000000E-03 0.  1.
         11   -1    0    0    0    0 -0.00000000000E+00 -0.00000000000E+00 -0.45593999997E+02  0.45594000000E+02  0.51100000000E-03 0. -1.
    9900012    2    1    2    0    0  0.46961615240E+01 -0.43099180590E+02 -0.12227857073E+02  0.46142314422E+02  0.99999695532E+01 0.  0.
        -12    1    1    2    0    0 -0.46961615240E+01  0.43099180590E+02  0.12227857073E+02  0.45045685578E+02  0.00000000000E+00 0.  1.
         11    1    3    3    0    0 -0.60510744929E+00 -0.46857964771E+01  0.68068608888E+00  0.47734869292E+01  0.51100000000E-03 0. -1.
        -11    1    3    3    0    0 -0.10629434982E+01 -0.27711565266E+01 -0.11923632534E+00  0.29704166270E+01  0.51100000000E-03 0.  1.
         12    1    3    3    0    0  0.63642124715E+01 -0.35642227586E+02 -0.12789306836E+02  0.38398410866E+02  0.00000000000E+00 0. -1.
</event>
<event>
 7    1  0.1563903E-008  0.4614232E+02  0.7816164E-02  0.1320468E+00
        -11   -1    0    0    0    0  0.00000000000E+00  0.00000000000E+00  0.45593999997E+02  0.45594000000E+02  0.51100000000E-03 0.  1.
         11   -1    0    0    0    0 -0.00000000000E+00 -0.00000000000E+00 -0.45593999997E+02  0.45594000000E+02  0.51100000000E-03 0. -1.
    9900012    2    1    2    0    0  0.39572632155E+02 -0.10002688998E+02 -0.19054303656E+02  0.46142317735E+02  0.99999997654E+01 0.  0.
        -12    1    1    2    0    0 -0.39572632155E+02  0.10002688998E+02  0.19054303656E+02  0.45045682265E+02  0.00000000000E+00 0.  1.
         11    1    3    3    0    0  0.26318247210E+02 -0.76938073339E+01 -0.13617160070E+02  0.30614895984E+02  0.51100000000E-03 0. -1.
        -11    1    3    3    0    0  0.72196345232E+01  0.75063058685E+00 -0.48631914423E+01  0.87371162400E+01  0.51100000000E-03 0.  1.
        -12    1    3    3    0    0  0.60347504219E+01 -0.30595122514E+01 -0.57395214359E+00  0.67903055111E+01  0.00000000000E+00 0.  1.
</event>
<event>
 7    1  0.1563903E-008  0.4614232E+02  0.7816164E-02  0.1320468E+00
        -11   -1    0    0    0    0  0.00000000000E+00  0.00000000000E+00  0.45593999997E+02  0.45594000000E+02  0.51100000000E-03 0.  1.
         11   -1    0    0    0    0 -0.00000000000E+00 -0.00000000000E+00 -0.45593999997E+02  0.45594000000E+02  0.51100000000E-03 0. -1.
    9900012    2    1    2    0    0 -0.16291433969E+02  0.11580888866E+02 -0.40368127101E+02  0.46142317706E+02  0.99999995007E+01 0.  0.
        -12    1    1    2    0    0  0.16291433969E+02 -0.11580888866E+02  0.40368127101E+02  0.45045682294E+02  0.00000000000E+00 0.  1.
         11    1    3    3    0    0 -0.52519167950E+01  0.45432086476E+01 -0.23415781586E+02  0.24423804011E+02  0.51100000000E-03 0. -1.
        -11    1    3    3    0    0 -0.28976533938E+01  0.14788507077E+00 -0.33087346573E+01  0.44006806835E+01  0.51100000000E-03 0.  1.
         12    1    3    3    0    0 -0.81418637804E+01  0.68897951476E+01 -0.13643610857E+02  0.17317833011E+02  0.00000000000E+00 0. -1.
</event>
<event>
 7    1  0.1563903E-008  0.4614232E+02  0.7816164E-02  0.1320468E+00
        -11   -1    0    0    0    0  0.00000000000E+00  0.00000000000E+00  0.45593999997E+02  0.45594000000E+02  0.51100000000E-03 0.  1.
         11   -1    0    0    0    0 -0.00000000000E+00 -0.00000000000E+00 -0.45593999997E+02  0.45594000000E+02  0.51100000000E-03 0. -1.
    9900012    2    1    2    0    0  0.18368735751E+01 -0.43167073999E+02 -0.12741392093E+02  0.46142318136E+02  0.10000003417E+02 0.  0.
        -12    1    1    2    0    0 -0.18368735751E+01  0.43167073999E+02  0.12741392093E+02  0.45045681864E+02  0.00000000000E+00 0.  1.
         11    1    3    3    0    0  0.11370737806E+01 -0.13061988121E+02 -0.27510341530E+01  0.13396889924E+02  0.51100000000E-03 0. -1.
        -11    1    3    3    0    0 -0.29425451458E+01 -0.78036828041E+01 -0.45598411052E+01  0.95051664061E+01  0.51100000000E-03 0.  1.
        -12    1    3    3    0    0  0.36423449403E+01 -0.22301403074E+02 -0.54305168349E+01  0.23240261806E+02  0.00000000000E+00 0.  1.
</event>
<event>
 7    1  0.1563903E-008  0.4614232E+02  0.7816164E-02  0.1320468E+00
        -11   -1    0    0    0    0  0.00000000000E+00  0.00000000000E+00  0.45593999997E+02  0.45594000000E+02  0.51100000000E-03 0.  1.
         11   -1    0    0    0    0 -0.00000000000E+00 -0.00000000000E+00 -0.45593999997E+02  0.45594000000E+02  0.51100000000E-03 0. -1.
    9900012    2    1    2    0    0  0.10966958449E+02 -0.28001000237E+02 -0.33537789106E+02  0.46142317743E+02  0.99999998335E+01 0.  0.
        -12    1    1    2    0    0 -0.10966958449E+02  0.28001000237E+02  0.33537789106E+02  0.45045682257E+02  0.00000000000E+00 0.  1.
         11    1    3    3    0    0  0.58555336843E+01 -0.18927396159E+02 -0.27156307096E+02  0.33615452034E+02  0.51100000000E-03 0. -1.
        -11    1    3    3    0    0  0.43074565893E+01 -0.57006210777E+01 -0.52949988702E+01  0.88931589571E+01  0.51100000000E-03 0.  1.
         12    1    3    3    0    0  0.80396817497E+00 -0.33729830001E+01 -0.10864831402E+01  0.36337067520E+01  0.00000000000E+00 0. -1.
</event>
<event>
 7    1  0.1563903E-008  0.4614232E+02  0.7816164E-02  0.1320468E+00
        -11   -1    0    0    0    0  0.00000000000E+00  0.00000000000E+00  0.45593999997E+02  0.45594000000E+02  0.51100000000E-03 0.  1.
         11   -1    0    0    0    0 -0.00000000000E+00 -0.00000000000E+00 -0.45593999997E+02  0.45594000000E+02  0.51100000000E-03 0. -1.
    9900012    2    1    2    0    0 -0.35655610986E+02  0.27525331237E+02 -0.38364455170E+00  0.46142316104E+02  0.99999848935E+01 0.  0.
        -12    1    1    2    0    0  0.35655610986E+02 -0.27525331237E+02  0.38364455170E+00  0.45045683896E+02  0.00000000000E+00 0.  1.
         11    1    3    3    0    0 -0.21834017580E+02  0.14740780767E+02 -0.84458344656E+00  0.26357698358E+02  0.51100000000E-03 0.  1.
        -11    1    3    3    0    0 -0.11342984316E+02  0.10775033446E+02  0.27138127553E+01  0.15878583655E+02  0.51100000000E-03 0. -1.
         12    1    3    3    0    0 -0.24786090908E+01  0.20095170235E+01 -0.22528738604E+01  0.39060340915E+01  0.00000000000E+00 0. -1.
</event>
<event>
 7    1  0.1563903E-008  0.4614232E+02  0.7816164E-02  0.1320468E+00
        -11   -1    0    0    0    0  0.00000000000E+00  0.00000000000E+00  0.45593999997E+02  0.45594000000E+02  0.51100000000E-03 0.  1.
         11   -1    0    0    0    0 -0.00000000000E+00 -0.00000000000E+00 -0.45593999997E+02  0.45594000000E+02  0.51100000000E-03 0. -1.
    9900012    2    1    2    0    0 -0.13961349141E+02 -0.36083737550E+02 -0.23068551316E+02  0.46142318240E+02  0.10000004370E+02 0.  0.
        -12    1    1    2    0    0  0.13961349141E+02  0.36083737550E+02  0.23068551316E+02  0.45045681760E+02  0.00000000000E+00 0.  1.
         11    1    3    3    0    0 -0.68831204141E+01 -0.27001211951E+02 -0.18603227578E+02  0.33504072440E+02  0.51100000000E-03 0. -1.
        -11    1    3    3    0    0 -0.69549707220E+01 -0.91922585532E+01 -0.46140727949E+01  0.12416074382E+02  0.51100000000E-03 0.  1.
         12    1    3    3    0    0 -0.12325800497E+00  0.10973295449E+00  0.14874905728E+00  0.22217141835E+00  0.00000000000E+00 0. -1.
</event>
<event>
 7    1  0.1563903E-008  0.4614232E+02  0.7816164E-02  0.1320468E+00
        -11   -1    0    0    0    0  0.00000000000E+00  0.00000000000E+00  0.45593999997E+02  0.45594000000E+02  0.51100000000E-03 0.  1.
         11   -1    0    0    0    0 -0.00000000000E+00 -0.00000000000E+00 -0.45593999997E+02  0.45594000000E+02  0.51100000000E-03 0. -1.
    9900012    2    1    2    0    0 -0.26917994495E+02 -0.36010687294E+02 -0.27866370214E+01  0.46142319043E+02  0.10000011688E+02 0.  0.
        -12    1    1    2    0    0  0.26917994495E+02  0.36010687294E+02  0.27866370214E+01  0.45045680957E+02  0.00000000000E+00 0.  1.
         11    1    3    3    0    0 -0.23371676101E+01 -0.49824225848E+01 -0.93897737634E+00  0.55828815163E+01  0.51100000000E-03 0. -1.
        -11    1    3    3    0    0 -0.71353311548E+01 -0.41555891094E+01  0.13290775632E+01  0.83635111625E+01  0.51100000000E-03 0.  1.
        -12    1    3    3    0    0 -0.17445495730E+02 -0.26872675600E+02 -0.31767372082E+01  0.32195926364E+02  0.00000000000E+00 0.  1.
</event>
<event>
 7    1  0.1563903E-008  0.4614232E+02  0.7816164E-02  0.1320468E+00
        -11   -1    0    0    0    0  0.00000000000E+00  0.00000000000E+00  0.45593999997E+02  0.45594000000E+02  0.51100000000E-03 0. -1.
         11   -1    0    0    0    0 -0.00000000000E+00 -0.00000000000E+00 -0.45593999997E+02  0.45594000000E+02  0.51100000000E-03 0.  1.
    9900012    2    1    2    0    0 -0.30662010943E+02 -0.29037124805E+02  0.15678008149E+02  0.46142317948E+02  0.10000001705E+02 0.  0.
        -12    1    1    2    0    0  0.30662010943E+02  0.29037124805E+02 -0.15678008149E+02  0.45045682052E+02  0.00000000000E+00 0.  1.
         11    1    3    3    0    0 -0.11335051775E+01 -0.19599189499E+01  0.25384545156E+01  0.34014508473E+01  0.51100000000E-03 0. -1.
        -11    1    3    3    0    0 -0.27697678200E+02 -0.23023765445E+02  0.10289594911E+02  0.37458389136E+02  0.51100000000E-03 0.  1.
        -12    1    3    3    0    0 -0.18308275653E+01 -0.40534404099E+01  0.28499587230E+01  0.52824779652E+01  0.00000000000E+00 0.  1.
</event>
<event>
 7    1  0.1563903E-008  0.4614232E+02  0.7816164E-02  0.1320468E+00
        -11   -1    0    0    0    0  0.00000000000E+00  0.00000000000E+00  0.45593999997E+02  0.45594000000E+02  0.51100000000E-03 0.  1.
         11   -1    0    0    0    0 -0.00000000000E+00 -0.00000000000E+00 -0.45593999997E+02  0.45594000000E+02  0.51100000000E-03 0. -1.
    9900012    2    1    2    0    0 -0.39644827884E+02  0.24604787823E+00 -0.21385523209E+02  0.46142317405E+02  0.99999967567E+01 0.  0.
        -12    1    1    2    0    0  0.39644827884E+02 -0.24604787823E+00  0.21385523209E+02  0.45045682595E+02  0.00000000000E+00 0.  1.
         11    1    3    3    0    0 -0.22261758688E+02  0.16458794806E+01 -0.10204289214E+02  0.24544293385E+02  0.51100000000E-03 0. -1.
        -11    1    3    3    0    0 -0.43960083144E+01 -0.20693319440E+01 -0.72738302448E+00  0.49128515264E+01  0.51100000000E-03 0.  1.
        -12    1    3    3    0    0 -0.12987060882E+02  0.66950034160E+00 -0.10453850971E+02  0.16685172494E+02  0.00000000000E+00 0.  1.
</event>
<event>
 7    1  0.3425615E-008  0.4614232E+02  0.7816164E-02  0.1320468E+00
        -11   -1    0    0    0    0  0.00000000000E+00  0.00000000000E+00  0.45593999997E+02  0.45594000000E+02  0.51100000000E-03 0. -1.
         11   -1    0    0    0    0 -0.00000000000E+00 -0.00000000000E+00 -0.45593999997E+02  0.45594000000E+02  0.51100000000E-03 0.  1.
    9900012    2    1    2    0    0  0.11424633698E+02  0.43572289062E+02  0.21594189439E+00  0.46142320295E+02  0.10000023102E+02 0.  0.
        -12    1    1    2    0    0 -0.11424633698E+02 -0.43572289062E+02 -0.21594189439E+00  0.45045679705E+02  0.00000000000E+00 0.  1.
         11    1    3    3    0    0  0.11017149648E+02  0.40864766177E+02 -0.56460325614E+00  0.42327597122E+02  0.51100000000E-03 0. -1.
        -11    1    3    3    0    0 -0.78212810752E+00  0.73934675495E+00 -0.49529528289E+00  0.11847681963E+01  0.51100000000E-03 0.  1.
         12    1    3    3    0    0  0.11896121577E+01  0.19681761303E+01  0.12758404334E+01  0.26299549763E+01  0.00000000000E+00 0. -1.
</event>
<event>
 7    1  0.1563903E-008  0.4614232E+02  0.7816164E-02  0.1320468E+00
        -11   -1    0    0    0    0  0.00000000000E+00  0.00000000000E+00  0.45593999997E+02  0.45594000000E+02  0.51100000000E-03 0. -1.
         11   -1    0    0    0    0 -0.00000000000E+00 -0.00000000000E+00 -0.45593999997E+02  0.45594000000E+02  0.51100000000E-03 0.  1.
    9900012    2    1    2    0    0 -0.15120079552E+02 -0.12784635202E+02  0.40460468366E+02  0.46142320925E+02  0.10000028852E+02 0.  0.
        -12    1    1    2    0    0  0.15120079552E+02  0.12784635202E+02 -0.40460468366E+02  0.45045679075E+02  0.00000000000E+00 0.  1.
         11    1    3    3    0    0 -0.46359719511E+01 -0.40472652893E+01  0.99431978928E+01  0.11693578445E+02  0.51100000000E-03 0. -1.
        -11    1    3    3    0    0 -0.99807056358E+01 -0.35015832136E+01  0.18109581446E+02  0.20972184206E+02  0.51100000000E-03 0.  1.
        -12    1    3    3    0    0 -0.50340196495E+00 -0.52357866990E+01  0.12407689028E+02  0.13476558274E+02  0.00000000000E+00 0.  1.
</event>
<event>
 7    1  0.1563903E-008  0.4614232E+02  0.7816164E-02  0.1320468E+00
        -11   -1    0    0    0    0  0.00000000000E+00  0.00000000000E+00  0.45593999997E+02  0.45594000000E+02  0.51100000000E-03 0.  1.
         11   -1    0    0    0    0 -0.00000000000E+00 -0.00000000000E+00 -0.45593999997E+02  0.45594000000E+02  0.51100000000E-03 0. -1.
    9900012    2    1    2    0    0  0.14706858766E+02  0.30187410231E+01 -0.42470096414E+02  0.46142316727E+02  0.99999905733E+01 0.  0.
        -12    1    1    2    0    0 -0.14706858766E+02 -0.30187410231E+01  0.42470096414E+02  0.45045683273E+02  0.00000000000E+00 0.  1.
         11    1    3    3    0    0  0.36568618038E+00 -0.12081026065E+01 -0.11138538392E+01  0.16834217911E+01  0.51100000000E-03 0. -1.
        -11    1    3    3    0    0  0.49697635274E+00  0.19246111952E+01 -0.28489165690E+01  0.34738220487E+01  0.51100000000E-03 0.  1.
         12    1    3    3    0    0  0.13844196233E+02  0.23022324344E+01 -0.38507326005E+02  0.40985072888E+02  0.00000000000E+00 0. -1.
</event>
<event>
 7    1  0.1563903E-008  0.4614232E+02  0.7816164E-02  0.1320468E+00
        -11   -1    0    0    0    0  0.00000000000E+00  0.00000000000E+00  0.45593999997E+02  0.45594000000E+02  0.51100000000E-03 0.  1.
         11   -1    0    0    0    0 -0.00000000000E+00 -0.00000000000E+00 -0.45593999997E+02  0.45594000000E+02  0.51100000000E-03 0. -1.
    9900012    2    1    2    0    0 -0.20622024856E+02  0.39799311339E+02 -0.44564991193E+01  0.46142317892E+02  0.10000001191E+02 0.  0.
        -12    1    1    2    0    0  0.20622024856E+02 -0.39799311339E+02  0.44564991193E+01  0.45045682108E+02  0.00000000000E+00 0.  1.
         11    1    3    3    0    0 -0.12648501036E+02  0.25335852151E+02 -0.50521789622E+00  0.28322168491E+02  0.51100000000E-03 0. -1.
        -11    1    3    3    0    0 -0.19580478130E+01  0.20704191507E+01  0.12278327731E+01  0.31029276945E+01  0.51100000000E-03 0.  1.
         12    1    3    3    0    0 -0.60154760076E+01  0.12393040037E+02 -0.51791139961E+01  0.14717221706E+02  0.00000000000E+00 0. -1.
</event>
<event>
 7    1  0.1563903E-008  0.4614232E+02  0.7816164E-02  0.1320468E+00
        -11   -1    0    0    0    0  0.00000000000E+00  0.00000000000E+00  0.45593999997E+02  0.45594000000E+02  0.51100000000E-03 0.  1.
         11   -1    0    0    0    0 -0.00000000000E+00 -0.00000000000E+00 -0.45593999997E+02  0.45594000000E+02  0.51100000000E-03 0. -1.
    9900012    2    1    2    0    0  0.33221378118E+02 -0.30322063536E+02 -0.24547829790E+01  0.46142318069E+02  0.10000002810E+02 0.  0.
        -12    1    1    2    0    0 -0.33221378118E+02  0.30322063536E+02  0.24547829790E+01  0.45045681931E+02  0.00000000000E+00 0.  1.
         11    1    3    3    0    0  0.14002016245E+02 -0.17566482470E+02 -0.24855588346E+01  0.22601233778E+02  0.51100000000E-03 0. -1.
        -11    1    3    3    0    0  0.12207384276E+02 -0.86390152390E+01  0.22238640234E+01  0.15119470447E+02  0.51100000000E-03 0.  1.
        -12    1    3    3    0    0  0.70119775969E+01 -0.41165658270E+01 -0.21930881678E+01  0.84216138441E+01  0.00000000000E+00 0.  1.
</event>
<event>
 7    1  0.1563903E-008  0.4614233E+02  0.7816164E-02  0.1320468E+00
        -11   -1    0    0    0    0  0.00000000000E+00  0.00000000000E+00  0.45593999997E+02  0.45594000000E+02  0.51100000000E-03 0.  1.
         11   -1    0    0    0    0 -0.00000000000E+00 -0.00000000000E+00 -0.45593999997E+02  0.45594000000E+02  0.51100000000E-03 0. -1.
    9900012    2    1    2    0    0  0.25532161635E+02 -0.31789408980E+02  0.19148230374E+02  0.46142328427E+02  0.10000097258E+02 0.  0.
        -12    1    1    2    0    0 -0.25532161635E+02  0.31789408980E+02 -0.19148230374E+02  0.45045671573E+02  0.00000000000E+00 0.  1.
         11    1    3    3    0    0  0.21848739557E+02 -0.27788841354E+02  0.13350144357E+02  0.37786419235E+02  0.51100000000E-03 0. -1.
        -11    1    3    3    0    0  0.82927313556E+00 -0.13612828411E+01  0.34853577710E+01  0.38325584092E+01  0.51100000000E-03 0.  1.
        -12    1    3    3    0    0  0.28541489421E+01 -0.26392847849E+01  0.23127282463E+01  0.45233507824E+01  0.00000000000E+00 0.  1.
</event>
<event>
 7    1  0.1563903E-008  0.4614233E+02  0.7816164E-02  0.1320468E+00
        -11   -1    0    0    0    0  0.00000000000E+00  0.00000000000E+00  0.45593999997E+02  0.45594000000E+02  0.51100000000E-03 0. -1.
         11   -1    0    0    0    0 -0.00000000000E+00 -0.00000000000E+00 -0.45593999997E+02  0.45594000000E+02  0.51100000000E-03 0.  1.
    9900012    2    1    2    0    0 -0.61415672923E+01 -0.33804842207E+02  0.29131188349E+02  0.46142330507E+02  0.10000116227E+02 0.  0.
        -12    1    1    2    0    0  0.61415672923E+01  0.33804842207E+02 -0.29131188349E+02  0.45045669493E+02  0.00000000000E+00 0.  1.
         11    1    3    3    0    0 -0.22181210216E+01 -0.22010267342E+02  0.16348252692E+02  0.27507040838E+02  0.51100000000E-03 0. -1.
        -11    1    3    3    0    0 -0.43731601940E+01 -0.47010427735E+01  0.54344295414E+01  0.84117392936E+01  0.51100000000E-03 0.  1.
         12    1    3    3    0    0  0.44971392325E+00 -0.70935320909E+01  0.73485061163E+01  0.10223550375E+02  0.00000000000E+00 0. -1.
</event>
<event>
 7    1  0.1563903E-008  0.4614232E+02  0.7816164E-02  0.1320468E+00
        -11   -1    0    0    0    0  0.00000000000E+00  0.00000000000E+00  0.45593999997E+02  0.45594000000E+02  0.51100000000E-03 0.  1.
         11   -1    0    0    0    0 -0.00000000000E+00 -0.00000000000E+00 -0.45593999997E+02  0.45594000000E+02  0.51100000000E-03 0. -1.
    9900012    2    1    2    0    0 -0.41486129625E+01  0.49312473117E+00 -0.44851527151E+02  0.46142315975E+02  0.99999837132E+01 0.  0.
        -12    1    1    2    0    0  0.41486129625E+01 -0.49312473117E+00  0.44851527151E+02  0.45045684025E+02  0.00000000000E+00 0.  1.
         11    1    3    3    0    0 -0.12076958794E+01 -0.72276096107E-01 -0.97323403794E+01  0.98072525558E+01  0.51100000000E-03 0. -1.
        -11    1    3    3    0    0  0.19592103479E+01 -0.86869902716E+00 -0.23905907947E+01  0.32106179772E+01  0.51100000000E-03 0.  1.
        -12    1    3    3    0    0 -0.49001274310E+01  0.14340998544E+01 -0.32728595977E+02  0.33124445442E+02  0.00000000000E+00 0.  1.
</event>
<event>
 7    1  0.1563903E-008  0.4614232E+02  0.7816164E-02  0.1320468E+00
        -11   -1    0    0    0    0  0.00000000000E+00  0.00000000000E+00  0.45593999997E+02  0.45594000000E+02  0.51100000000E-03 0.  1.
         11   -1    0    0    0    0 -0.00000000000E+00 -0.00000000000E+00 -0.45593999997E+02  0.45594000000E+02  0.51100000000E-03 0. -1.
    9900012    2    1    2    0    0 -0.41191840801E+02 -0.17983584502E+02 -0.29893221549E+01  0.46142321993E+02  0.10000038591E+02 0.  0.
        -12    1    1    2    0    0  0.41191840801E+02  0.17983584502E+02  0.29893221549E+01  0.45045678007E+02  0.00000000000E+00 0.  1.
         11    1    3    3    0    0 -0.35946372406E+02 -0.14808789141E+02 -0.13006854411E+01  0.38899019369E+02  0.51100000000E-03 0. -1.
        -11    1    3    3    0    0 -0.53347624543E+00  0.22242363650E+00  0.74690787847E+00  0.94442618481E+00  0.51100000000E-03 0.  1.
         12    1    3    3    0    0 -0.47119921497E+01 -0.33972189977E+01 -0.24355445922E+01  0.62988764394E+01  0.00000000000E+00 0. -1.
</event>
<event>
 7    1  0.1563903E-008  0.4614232E+02  0.7816164E-02  0.1320468E+00
        -11   -1    0    0    0    0  0.00000000000E+00  0.00000000000E+00  0.45593999997E+02  0.45594000000E+02  0.51100000000E-03 0. -1.
         11   -1    0    0    0    0 -0.00000000000E+00 -0.00000000000E+00 -0.45593999997E+02  0.45594000000E+02  0.51100000000E-03 0.  1.
    9900012    2    1    2    0    0 -0.21896547447E+02  0.36635798720E+01  0.39194806133E+02  0.46142318349E+02  0.10000005362E+02 0.  0.
        -12    1    1    2    0    0  0.21896547447E+02 -0.36635798720E+01 -0.39194806133E+02  0.45045681651E+02  0.00000000000E+00 0.  1.
         11    1    3    3    0    0 -0.15993254262E+02  0.50863294760E+01  0.22507130091E+02  0.28075359920E+02  0.51100000000E-03 0. -1.
        -11    1    3    3    0    0 -0.41811204176E+01 -0.21719450338E+01  0.90649618223E+01  0.10216293177E+02  0.51100000000E-03 0.  1.
        -12    1    3    3    0    0 -0.17221727679E+01  0.74919542981E+00  0.76227142192E+01  0.78506652522E+01  0.00000000000E+00 0.  1.
</event>
<event>
 7    1  0.1563903E-008  0.4614232E+02  0.7816164E-02  0.1320468E+00
        -11   -1    0    0    0    0  0.00000000000E+00  0.00000000000E+00  0.45593999997E+02  0.45594000000E+02  0.51100000000E-03 0. -1.
         11   -1    0    0    0    0 -0.00000000000E+00 -0.00000000000E+00 -0.45593999997E+02  0.45594000000E+02  0.51100000000E-03 0.  1.
    9900012    2    1    2    0    0  0.18020297318E+02  0.39878887180E+02 -0.10679728473E+02  0.46142319203E+02  0.10000013149E+02 0.  0.
        -12    1    1    2    0    0 -0.18020297318E+02 -0.39878887180E+02  0.10679728473E+02  0.45045680797E+02  0.00000000000E+00 0.  1.
         11    1    3    3    0    0  0.10253406766E+02  0.18937419631E+02 -0.37880817278E+01  0.21865675750E+02  0.51100000000E-03 0.  1.
        -11    1    3    3    0    0  0.59993619697E+00  0.59530813902E+01  0.67450533021E+00  0.60211343766E+01  0.51100000000E-03 0. -1.
        -12    1    3    3    0    0  0.71669543553E+01  0.14988386160E+02 -0.75661520759E+01  0.18255509076E+02  0.00000000000E+00 0.  1.
</event>
<event>
 7    1  0.1563903E-008  0.4614232E+02  0.7816164E-02  0.1320468E+00
        -11   -1    0    0    0    0  0.00000000000E+00  0.00000000000E+00  0.45593999997E+02  0.45594000000E+02  0.51100000000E-03 0.  1.
         11   -1    0    0    0    0 -0.00000000000E+00 -0.00000000000E+00 -0.45593999997E+02  0.45594000000E+02  0.51100000000E-03 0. -1.
    9900012    2    1    2    0    0 -0.21220126754E+02  0.25760161620E+01 -0.39650766459E+02  0.46142324076E+02  0.10000057580E+02 0.  0.
        -12    1    1    2    0    0  0.21220126754E+02 -0.25760161620E+01  0.39650766459E+02  0.45045675924E+02  0.00000000000E+00 0.  1.
         11    1    3    3    0    0 -0.66052065942E+01 -0.17842722983E+01 -0.99472795282E+01  0.12073141764E+02  0.51100000000E-03 0. -1.
        -11    1    3    3    0    0 -0.12475414909E+02  0.49330623510E+01 -0.28610015557E+02  0.31599115047E+02  0.51100000000E-03 0.  1.
        -12    1    3    3    0    0 -0.21395052505E+01 -0.57277389069E+00 -0.10934713740E+01  0.24700672648E+01  0.00000000000E+00 0.  1.
</event>
<event>
 7    1  0.1563903E-008  0.4614232E+02  0.7816164E-02  0.1320468E+00
        -11   -1    0    0    0    0  0.00000000000E+00  0.00000000000E+00  0.45593999997E+02  0.45594000000E+02  0.51100000000E-03 0.  1.
         11   -1    0    0    0    0 -0.00000000000E+00 -0.00000000000E+00 -0.45593999997E+02  0.45594000000E+02  0.51100000000E-03 0. -1.
    9900012    2    1    2    0    0  0.44837511083E+02 -0.26374904607E+01 -0.34284998289E+01  0.46142319106E+02  0.10000012267E+02 0.  0.
        -12    1    1    2    0    0 -0.44837511083E+02  0.26374904607E+01  0.34284998289E+01  0.45045680894E+02  0.00000000000E+00 0.  1.
         11    1    3    3    0    0  0.41807418340E+01  0.37258666664E+00 -0.32499355069E+01  0.53084370739E+01  0.51100000000E-03 0. -1.
        -11    1    3    3    0    0  0.14018984622E+02 -0.10498539565E+01  0.10369070414E+01  0.14096428613E+02  0.51100000000E-03 0.  1.
         12    1    3    3    0    0  0.26637784628E+02 -0.19602231709E+01 -0.12154713634E+01  0.26737453420E+02  0.00000000000E+00 0. -1.
</event>
<event>
 7    1  0.1563903E-008  0.4614231E+02  0.7816164E-02  0.1320468E+00
        -11   -1    0    0    0    0  0.00000000000E+00  0.00000000000E+00  0.45593999997E+02  0.45594000000E+02  0.51100000000E-03 0. -1.
         11   -1    0    0    0    0 -0.00000000000E+00 -0.00000000000E+00 -0.45593999997E+02  0.45594000000E+02  0.51100000000E-03 0.  1.
    9900012    2    1    2    0    0 -0.27172357431E+01 -0.44343844965E+02  0.74400124079E+01  0.46142314957E+02  0.99999744282E+01 0.  0.
        -12    1    1    2    0    0  0.27172357431E+01  0.44343844965E+02 -0.74400124079E+01  0.45045685043E+02  0.00000000000E+00 0.  1.
         11    1    3    3    0    0 -0.53968908310E+00 -0.12683752935E+02  0.59236935687E+01  0.14009246896E+02  0.51100000000E-03 0. -1.
        -11    1    3    3    0    0 -0.29429064708E+00 -0.45470828165E+00  0.66720734986E+00  0.85937914519E+00  0.51100000000E-03 0.  1.
         12    1    3    3    0    0 -0.18832560129E+01 -0.31205383748E+02  0.84911148938E+00  0.31273688916E+02  0.00000000000E+00 0. -1.
</event>
<event>
 7    1  0.1563903E-008  0.4614232E+02  0.7816164E-02  0.1320468E+00
        -11   -1    0    0    0    0  0.00000000000E+00  0.00000000000E+00  0.45593999997E+02  0.45594000000E+02  0.51100000000E-03 0.  1.
         11   -1    0    0    0    0 -0.00000000000E+00 -0.00000000000E+00 -0.45593999997E+02  0.45594000000E+02  0.51100000000E-03 0. -1.
    9900012    2    1    2    0    0  0.21603248457E+02 -0.36015060977E+02 -0.16288907123E+02  0.46142318117E+02  0.10000003242E+02 0.  0.
        -12    1    1    2    0    0 -0.21603248457E+02  0.36015060977E+02  0.16288907123E+02  0.45045681883E+02  0.00000000000E+00 0.  1.
         11    1    3    3    0    0  0.23128423000E+01 -0.16526344493E+01  0.33213346529E+00  0.28619491659E+01  0.51100000000E-03 0.  1.
        -11    1    3    3    0    0  0.16726207970E+02 -0.23863031387E+02 -0.11642377827E+02  0.31380810406E+02  0.51100000000E-03 0. -1.
         12    1    3    3    0    0  0.25641981869E+01 -0.10499395140E+02 -0.49786627615E+01  0.11899558544E+02  0.00000000000E+00 0. -1.
</event>
<event>
 7    1  0.1563903E-008  0.4614232E+02  0.7816164E-02  0.1320468E+00
        -11   -1    0    0    0    0  0.00000000000E+00  0.00000000000E+00  0.45593999997E+02  0.45594000000E+02  0.51100000000E-03 0.  1.
         11   -1    0    0    0    0 -0.00000000000E+00 -0.00000000000E+00 -0.45593999997E+02  0.45594000000E+02  0.51100000000E-03 0. -1.
    9900012    2    1    2    0    0  0.31824227398E+02  0.27265541188E+02 -0.16520355379E+02  0.46142319546E+02  0.10000016273E+02 0.  0.
        -12    1    1    2    0    0 -0.31824227398E+02 -0.27265541188E+02  0.16520355379E+02  0.45045680454E+02  0.00000000000E+00 0.  1.
         11    1    3    3    0    0  0.50959852573E+01  0.24158993246E+01  0.78132253752E+00  0.56935138937E+01  0.51100000000E-03 0. -1.
        -11    1    3    3    0    0  0.19380123948E+02  0.16706558731E+02 -0.12452694478E+02  0.28456421224E+02  0.51100000000E-03 0.  1.
         12    1    3    3    0    0  0.73481181930E+01  0.81430831325E+01 -0.48489834379E+01  0.11992384428E+02  0.00000000000E+00 0. -1.
</event>
<event>
 7    1  0.1563903E-008  0.4614232E+02  0.7816164E-02  0.1320468E+00
        -11   -1    0    0    0    0  0.00000000000E+00  0.00000000000E+00  0.45593999997E+02  0.45594000000E+02  0.51100000000E-03 0. -1.
         11   -1    0    0    0    0 -0.00000000000E+00 -0.00000000000E+00 -0.45593999997E+02  0.45594000000E+02  0.51100000000E-03 0.  1.
    9900012    2    1    2    0    0  0.12001867085E+02  0.41755663787E+02  0.11896775707E+02  0.46142317143E+02  0.99999943651E+01 0.  0.
        -12    1    1    2    0    0 -0.12001867085E+02 -0.41755663787E+02 -0.11896775707E+02  0.45045682857E+02  0.00000000000E+00 0.  1.
         11    1    3    3    0    0  0.18860747256E+01  0.31452229120E+01  0.33488849889E+01  0.49663604347E+01  0.51100000000E-03 0. -1.
        -11    1    3    3    0    0  0.29841891490E+01  0.15918409672E+02  0.59249859848E+01  0.17245480873E+02  0.51100000000E-03 0.  1.
         12    1    3    3    0    0  0.71316032100E+01  0.22692031203E+02  0.26229047328E+01  0.23930475835E+02  0.00000000000E+00 0. -1.
</event>
<event>
 7    1  0.1563903E-008  0.4614232E+02  0.7816164E-02  0.1320468E+00
        -11   -1    0    0    0    0  0.00000000000E+00  0.00000000000E+00  0.45593999997E+02  0.45594000000E+02  0.51100000000E-03 0.  1.
         11   -1    0    0    0    0 -0.00000000000E+00 -0.00000000000E+00 -0.45593999997E+02  0.45594000000E+02  0.51100000000E-03 0. -1.
    9900012    2    1    2    0    0 -0.12162739307E+02  0.43369191595E+02 -0.54262575745E+00  0.46142318190E+02  0.10000003909E+02 0.  0.
        -12    1    1    2    0    0  0.12162739307E+02 -0.43369191595E+02  0.54262575745E+00  0.45045681810E+02  0.00000000000E+00 0.  1.
         11    1    3    3    0    0 -0.90630885083E+01  0.34049355292E+02 -0.33393462725E+01  0.35392787441E+02  0.51100000000E-03 0. -1.
        -11    1    3    3    0    0 -0.29676825342E+01  0.47228536257E+01  0.47559692240E+00  0.55980959877E+01  0.51100000000E-03 0.  1.
         12    1    3    3    0    0 -0.13196826411E+00  0.45969826776E+01  0.23211235926E+01  0.51514347607E+01  0.00000000000E+00 0. -1.
</event>
<event>
 7    1  0.1563903E-008  0.4614232E+02  0.7816164E-02  0.1320468E+00
        -11   -1    0    0    0    0  0.00000000000E+00  0.00000000000E+00  0.45593999997E+02  0.45594000000E+02  0.51100000000E-03 0.  1.
         11   -1    0    0    0    0 -0.00000000000E+00 -0.00000000000E+00 -0.45593999997E+02  0.45594000000E+02  0.51100000000E-03 0. -1.
    9900012    2    1    2    0    0  0.11324066050E+02 -0.13963173534E+02 -0.41302648928E+02  0.46142317682E+02  0.99999992790E+01 0.  0.
        -12    1    1    2    0    0 -0.11324066050E+02  0.13963173534E+02  0.41302648928E+02  0.45045682318E+02  0.00000000000E+00 0.  1.
         11    1    3    3    0    0  0.11354097823E+02 -0.13203285281E+02 -0.37318901515E+02  0.41181824755E+02  0.51100000000E-03 0. -1.
        -11    1    3    3    0    0 -0.40854710911E+00  0.96250596880E+00 -0.78377680312E+00  0.13067650204E+01  0.51100000000E-03 0.  1.
        -12    1    3    3    0    0  0.37851533567E+00 -0.17223942217E+01 -0.31999706099E+01  0.36537279070E+01  0.00000000000E+00 0.  1.
</event>
<event>
 7    1  0.1563903E-008  0.4614232E+02  0.7816164E-02  0.1320468E+00
        -11   -1    0    0    0    0  0.00000000000E+00  0.00000000000E+00  0.45593999997E+02  0.45594000000E+02  0.51100000000E-03 0.  1.
         11   -1    0    0    0    0 -0.00000000000E+00 -0.00000000000E+00 -0.45593999997E+02  0.45594000000E+02  0.51100000000E-03 0. -1.
    9900012    2    1    2    0    0  0.36586276033E+02  0.25223636215E+02 -0.73706260520E+01  0.46142317119E+02  0.99999941403E+01 0.  0.
        -12    1    1    2    0    0 -0.36586276033E+02 -0.25223636215E+02  0.73706260520E+01  0.45045682881E+02  0.00000000000E+00 0.  1.
         11    1    3    3    0    0  0.23319201774E+02  0.14608269991E+02 -0.11220650085E+01  0.27539893857E+02  0.51100000000E-03 0. -1.
        -11    1    3    3    0    0  0.79403649428E+00  0.29120737204E-01 -0.12766734730E+01  0.15037411311E+01  0.51100000000E-03 0.  1.
         12    1    3    3    0    0  0.12473037764E+02  0.10586245487E+02 -0.49718875705E+01  0.17098682130E+02  0.00000000000E+00 0. -1.
</event>
<event>
 7    1  0.1563903E-008  0.4614232E+02  0.7816164E-02  0.1320468E+00
        -11   -1    0    0    0    0  0.00000000000E+00  0.00000000000E+00  0.45593999997E+02  0.45594000000E+02  0.51100000000E-03 0.  1.
         11   -1    0    0    0    0 -0.00000000000E+00 -0.00000000000E+00 -0.45593999997E+02  0.45594000000E+02  0.51100000000E-03 0. -1.
    9900012    2    1    2    0    0  0.28252947026E+02  0.40627553384E+00 -0.35081609875E+02  0.46142318444E+02  0.10000006226E+02 0.  0.
        -12    1    1    2    0    0 -0.28252947026E+02 -0.40627553384E+00  0.35081609875E+02  0.45045681556E+02  0.00000000000E+00 0.  1.
         11    1    3    3    0    0  0.85485912663E+01  0.26322659274E+01 -0.16492486274E+02  0.18761911958E+02  0.51100000000E-03 0. -1.
        -11    1    3    3    0    0  0.10774802088E+02  0.12971866830E+00 -0.86965106017E+01  0.13847111030E+02  0.51100000000E-03 0.  1.
         12    1    3    3    0    0  0.89295536713E+01 -0.23557090619E+01 -0.98926129988E+01  0.13533295456E+02  0.00000000000E+00 0. -1.
</event>
<event>
 7    1  0.1563903E-008  0.4614231E+02  0.7816164E-02  0.1320468E+00
        -11   -1    0    0    0    0  0.00000000000E+00  0.00000000000E+00  0.45593999997E+02  0.45594000000E+02  0.51100000000E-03 0.  1.
         11   -1    0    0    0    0 -0.00000000000E+00 -0.00000000000E+00 -0.45593999997E+02  0.45594000000E+02  0.51100000000E-03 0. -1.
    9900012    2    1    2    0    0 -0.23486321648E+02 -0.40700437195E+01 -0.38222265146E+02  0.46142310824E+02  0.99999367432E+01 0.  0.
        -12    1    1    2    0    0  0.23486321648E+02  0.40700437195E+01  0.38222265146E+02  0.45045689176E+02  0.00000000000E+00 0.  1.
         11    1    3    3    0    0 -0.14160344160E+02  0.76684667469E+00 -0.15675695804E+02  0.21138373631E+02  0.51100000000E-03 0.  1.
        -11    1    3    3    0    0 -0.43589238123E+01 -0.13807047085E+01 -0.12045855555E+02  0.12884455697E+02  0.51100000000E-03 0. -1.
        -12    1    3    3    0    0 -0.49670536766E+01 -0.34561856856E+01 -0.10500713787E+02  0.12119481497E+02  0.00000000000E+00 0.  1.
</event>
<event>
 7    1  0.1563903E-008  0.4614232E+02  0.7816164E-02  0.1320468E+00
        -11   -1    0    0    0    0  0.00000000000E+00  0.00000000000E+00  0.45593999997E+02  0.45594000000E+02  0.51100000000E-03 0.  1.
         11   -1    0    0    0    0 -0.00000000000E+00 -0.00000000000E+00 -0.45593999997E+02  0.45594000000E+02  0.51100000000E-03 0. -1.
    9900012    2    1    2    0    0 -0.58163406392E+01 -0.44388720970E+02  0.49924959599E+01  0.46142318923E+02  0.10000010593E+02 0.  0.
        -12    1    1    2    0    0  0.58163406392E+01  0.44388720970E+02 -0.49924959599E+01  0.45045681077E+02  0.00000000000E+00 0.  1.
         11    1    3    3    0    0 -0.73433833818E+01 -0.41602881948E+02  0.49940806015E+01  0.42540168161E+02  0.51100000000E-03 0. -1.
        -11    1    3    3    0    0  0.11877727541E+01 -0.10712790839E+01 -0.66558350671E+00  0.17324677938E+01  0.51100000000E-03 0.  1.
        -12    1    3    3    0    0  0.33926998850E+00 -0.17145599382E+01  0.66399886510E+00  0.18696829677E+01  0.00000000000E+00 0.  1.
</event>
<event>
 7    1  0.1563903E-008  0.4614232E+02  0.7816164E-02  0.1320468E+00
        -11   -1    0    0    0    0  0.00000000000E+00  0.00000000000E+00  0.45593999997E+02  0.45594000000E+02  0.51100000000E-03 0.  1.
         11   -1    0    0    0    0 -0.00000000000E+00 -0.00000000000E+00 -0.45593999997E+02  0.45594000000E+02  0.51100000000E-03 0. -1.
    9900012    2    1    2    0    0 -0.43874119666E+00 -0.71775255245E+01 -0.44468012906E+02  0.46142317207E+02  0.99999949473E+01 0.  0.
        -12    1    1    2    0    0  0.43874119666E+00  0.71775255245E+01  0.44468012906E+02  0.45045682793E+02  0.00000000000E+00 0.  1.
         11    1    3    3    0    0 -0.26306860285E+01  0.26591387374E+00 -0.15560267962E+02  0.15783318994E+02  0.51100000000E-03 0. -1.
        -11    1    3    3    0    0  0.20770033782E+01 -0.13138606575E+01 -0.38923512557E+01  0.46033217810E+01  0.51100000000E-03 0.  1.
         12    1    3    3    0    0  0.11494145361E+00 -0.61295787408E+01 -0.25015393688E+02  0.25755676432E+02  0.00000000000E+00 0. -1.
</event>
<event>
 7    1  0.1563903E-008  0.4614232E+02  0.7816164E-02  0.1320468E+00
        -11   -1    0    0    0    0  0.00000000000E+00  0.00000000000E+00  0.45593999997E+02  0.45594000000E+02  0.51100000000E-03 0.  1.
         11   -1    0    0    0    0 -0.00000000000E+00 -0.00000000000E+00 -0.45593999997E+02  0.45594000000E+02  0.51100000000E-03 0. -1.
    9900012    2    1    2    0    0 -0.24540747310E+02  0.36244592997E+02 -0.10639300250E+02  0.46142317523E+02  0.99999978268E+01 0.  0.
        -12    1    1    2    0    0  0.24540747310E+02 -0.36244592997E+02  0.10639300250E+02  0.45045682477E+02  0.00000000000E+00 0.  1.
         11    1    3    3    0    0 -0.16186901351E+02  0.27474923721E+02 -0.10691327911E+02  0.33633193449E+02  0.51100000000E-03 0. -1.
        -11    1    3    3    0    0 -0.79693608800E+01  0.90307216974E+01  0.51950329252E-01  0.12044390657E+02  0.51100000000E-03 0.  1.
         12    1    3    3    0    0 -0.38448507839E+00 -0.26105242134E+00  0.77331641161E-04  0.46473341624E+00  0.00000000000E+00 0. -1.
</event>
<event>
 7    1  0.1563903E-008  0.4614231E+02  0.7816164E-02  0.1320468E+00
        -11   -1    0    0    0    0  0.00000000000E+00  0.00000000000E+00  0.45593999997E+02  0.45594000000E+02  0.51100000000E-03 0.  1.
         11   -1    0    0    0    0 -0.00000000000E+00 -0.00000000000E+00 -0.45593999997E+02  0.45594000000E+02  0.51100000000E-03 0. -1.
    9900012    2    1    2    0    0  0.25956961717E+02  0.11023768172E+01 -0.36798576552E+02  0.46142308391E+02  0.99999145560E+01 0.  0.
        -12    1    1    2    0    0 -0.25956961717E+02 -0.11023768172E+01  0.36798576552E+02  0.45045691609E+02  0.00000000000E+00 0.  1.
         11    1    3    3    0    0  0.11514464847E+02 -0.15904622666E+01 -0.22999279861E+02  0.25769737005E+02  0.51100000000E-03 0. -1.
        -11    1    3    3    0    0  0.95284863255E+01  0.31885107908E+01 -0.91658598434E+01  0.13600427922E+02  0.51100000000E-03 0.  1.
        -12    1    3    3    0    0  0.49140105451E+01 -0.49567170701E+00 -0.46334368484E+01  0.67721434647E+01  0.00000000000E+00 0.  1.
</event>
<event>
 7    1  0.1563903E-008  0.4614232E+02  0.7816164E-02  0.1320468E+00
        -11   -1    0    0    0    0  0.00000000000E+00  0.00000000000E+00  0.45593999997E+02  0.45594000000E+02  0.51100000000E-03 0. -1.
         11   -1    0    0    0    0 -0.00000000000E+00 -0.00000000000E+00 -0.45593999997E+02  0.45594000000E+02  0.51100000000E-03 0.  1.
    9900012    2    1    2    0    0 -0.40717173428E+02 -0.18851081212E+02 -0.39827200020E+01  0.46142317261E+02  0.99999954352E+01 0.  0.
        -12    1    1    2    0    0  0.40717173428E+02  0.18851081212E+02  0.39827200020E+01  0.45045682739E+02  0.00000000000E+00 0.  1.
         11    1    3    3    0    0 -0.22018239625E+02 -0.82761469138E+01  0.14624276731E+01  0.23567693542E+02  0.51100000000E-03 0. -1.
        -11    1    3    3    0    0 -0.98308698374E+01 -0.75650984772E+01 -0.18432070270E+01  0.12540898259E+02  0.51100000000E-03 0.  1.
        -12    1    3    3    0    0 -0.88680639659E+01 -0.30098358207E+01 -0.36019406481E+01  0.10033725460E+02  0.00000000000E+00 0.  1.
</event>
<event>
 7    1  0.1563903E-008  0.4614232E+02  0.7816164E-02  0.1320468E+00
        -11   -1    0    0    0    0  0.00000000000E+00  0.00000000000E+00  0.45593999997E+02  0.45594000000E+02  0.51100000000E-03 0.  1.
         11   -1    0    0    0    0 -0.00000000000E+00 -0.00000000000E+00 -0.45593999997E+02  0.45594000000E+02  0.51100000000E-03 0. -1.
    9900012    2    1    2    0    0  0.71126515023E+01  0.40088968918E+02 -0.19271696436E+02  0.46142317367E+02  0.99999964057E+01 0.  0.
        -12    1    1    2    0    0 -0.71126515023E+01 -0.40088968918E+02  0.19271696436E+02  0.45045682633E+02  0.00000000000E+00 0.  1.
         11    1    3    3    0    0  0.46429263391E+01  0.28413932530E+02 -0.13306003565E+02  0.31716841866E+02  0.51100000000E-03 0. -1.
        -11    1    3    3    0    0  0.92738586415E+00  0.74589776450E+00 -0.26432634635E+01  0.28988359759E+01  0.51100000000E-03 0.  1.
        -12    1    3    3    0    0  0.15423392990E+01  0.10929138624E+02 -0.33224294083E+01  0.11526639525E+02  0.00000000000E+00 0.  1.
</event>
<event>
 7    1  0.1563903E-008  0.4614232E+02  0.7816164E-02  0.1320468E+00
        -11   -1    0    0    0    0  0.00000000000E+00  0.00000000000E+00  0.45593999997E+02  0.45594000000E+02  0.51100000000E-03 0. -1.
         11   -1    0    0    0    0 -0.00000000000E+00 -0.00000000000E+00 -0.45593999997E+02  0.45594000000E+02  0.51100000000E-03 0.  1.
    9900012    2    1    2    0    0  0.97072886504E+01 -0.31724134528E+02 -0.30470663719E+02  0.46142317499E+02  0.99999976116E+01 0.  0.
        -12    1    1    2    0    0 -0.97072886504E+01  0.31724134528E+02  0.30470663719E+02  0.45045682501E+02  0.00000000000E+00 0.  1.
         11    1    3    3    0    0  0.18471645845E+01 -0.18671744719E+02 -0.20946973161E+02  0.28121553170E+02  0.51100000000E-03 0.  1.
        -11    1    3    3    0    0  0.39244392536E+01 -0.78227735765E+01 -0.53230491797E+01  0.10243625467E+02  0.51100000000E-03 0. -1.
        -12    1    3    3    0    0  0.39356848123E+01 -0.52296162325E+01 -0.42006413786E+01  0.77771388616E+01  0.00000000000E+00 0.  1.
</event>
<event>
 7    1  0.1563903E-008  0.4614231E+02  0.7816164E-02  0.1320468E+00
        -11   -1    0    0    0    0  0.00000000000E+00  0.00000000000E+00  0.45593999997E+02  0.45594000000E+02  0.51100000000E-03 0. -1.
         11   -1    0    0    0    0 -0.00000000000E+00 -0.00000000000E+00 -0.45593999997E+02  0.45594000000E+02  0.51100000000E-03 0.  1.
    9900012    2    1    2    0    0  0.20670022092E+02 -0.17478547994E+02  0.36005064279E+02  0.46142310894E+02  0.99999373800E+01 0.  0.
        -12    1    1    2    0    0 -0.20670022092E+02  0.17478547994E+02 -0.36005064279E+02  0.45045689106E+02  0.00000000000E+00 0.  1.
         11    1    3    3    0    0  0.40198092892E+01 -0.54757047580E+01  0.13560679104E+02  0.15166879288E+02  0.51100000000E-03 0. -1.
        -11    1    3    3    0    0  0.16592519435E+02 -0.12295078503E+02  0.22620391530E+02  0.30629442859E+02  0.51100000000E-03 0.  1.
        -12    1    3    3    0    0  0.57693367739E-01  0.29223526722E+00 -0.17600635469E+00  0.34598874690E+00  0.00000000000E+00 0.  1.
</event>
<event>
 7    1  0.1563903E-008  0.4614232E+02  0.7816164E-02  0.1320468E+00
        -11   -1    0    0    0    0  0.00000000000E+00  0.00000000000E+00  0.45593999997E+02  0.45594000000E+02  0.51100000000E-03 0. -1.
         11   -1    0    0    0    0 -0.00000000000E+00 -0.00000000000E+00 -0.45593999997E+02  0.45594000000E+02  0.51100000000E-03 0.  1.
    9900012    2    1    2    0    0 -0.44801168938E+02  0.36486674457E+01 -0.29421026974E+01  0.46142317847E+02  0.10000000783E+02 0.  0.
        -12    1    1    2    0    0  0.44801168938E+02 -0.36486674457E+01  0.29421026974E+01  0.45045682153E+02  0.00000000000E+00 0.  1.
         11    1    3    3    0    0 -0.27788660698E+02  0.34824773254E+01  0.11302574735E+01  0.28028820773E+02  0.51100000000E-03 0. -1.
        -11    1    3    3    0    0 -0.86853074685E+00  0.69320278180E+00  0.64664409464E+00  0.12857000432E+01  0.51100000000E-03 0.  1.
         12    1    3    3    0    0 -0.16143977493E+02 -0.52701266147E+00 -0.47190042655E+01  0.16827797030E+02  0.00000000000E+00 0. -1.
</event>
<event>
 7    1  0.1563903E-008  0.4614232E+02  0.7816164E-02  0.1320468E+00
        -11   -1    0    0    0    0  0.00000000000E+00  0.00000000000E+00  0.45593999997E+02  0.45594000000E+02  0.51100000000E-03 0. -1.
         11   -1    0    0    0    0 -0.00000000000E+00 -0.00000000000E+00 -0.45593999997E+02  0.45594000000E+02  0.51100000000E-03 0.  1.
    9900012    2    1    2    0    0 -0.48689364366E+01  0.27972530503E+02  0.34970619467E+02  0.46142320622E+02  0.10000026085E+02 0.  0.
        -12    1    1    2    0    0  0.48689364366E+01 -0.27972530503E+02 -0.34970619467E+02  0.45045679378E+02  0.00000000000E+00 0.  1.
         11    1    3    3    0    0  0.12903631149E+01  0.14071457042E+02  0.19762501979E+02  0.24294596621E+02  0.51100000000E-03 0. -1.
        -11    1    3    3    0    0 -0.30497312219E+01  0.37936271995E+01  0.30956643047E+01  0.57685011574E+01  0.51100000000E-03 0.  1.
         12    1    3    3    0    0 -0.31095683296E+01  0.10107446262E+02  0.12112453183E+02  0.16079222843E+02  0.00000000000E+00 0. -1.
</event>
<event>
 7    1  0.1563903E-008  0.4614232E+02  0.7816164E-02  0.1320468E+00
        -11   -1    0    0    0    0  0.00000000000E+00  0.00000000000E+00  0.45593999997E+02  0.45594000000E+02  0.51100000000E-03 0. -1.
         11   -1    0    0    0    0 -0.00000000000E+00 -0.00000000000E+00 -0.45593999997E+02  0.45594000000E+02  0.51100000000E-03 0.  1.
    9900012    2    1    2    0    0  0.32591542741E+02  0.30798442909E+02 -0.42849500466E+01  0.46142317180E+02  0.99999946975E+01 0.  0.
        -12    1    1    2    0    0 -0.32591542741E+02 -0.30798442909E+02  0.42849500466E+01  0.45045682820E+02  0.00000000000E+00 0.  1.
         11    1    3    3    0    0  0.62042268621E+01  0.41307669476E+01 -0.11561849869E+01  0.75427071080E+01  0.51100000000E-03 0. -1.
        -11    1    3    3    0    0  0.22096459582E+02  0.16968901320E+02 -0.25885854230E+01  0.27980312950E+02  0.51100000000E-03 0.  1.
        -12    1    3    3    0    0  0.42908562973E+01  0.96987746416E+01 -0.54017963668E+00  0.10619297121E+02  0.00000000000E+00 0.  1.
</event>
<event>
 7    1  0.1563903E-008  0.4614232E+02  0.7816164E-02  0.1320468E+00
        -11   -1    0    0    0    0  0.00000000000E+00  0.00000000000E+00  0.45593999997E+02  0.45594000000E+02  0.51100000000E-03 0.  1.
         11   -1    0    0    0    0 -0.00000000000E+00 -0.00000000000E+00 -0.45593999997E+02  0.45594000000E+02  0.51100000000E-03 0. -1.
    9900012    2    1    2    0    0 -0.40375627338E+02  0.15717173200E+02 -0.12324461844E+02  0.46142321228E+02  0.10000031612E+02 0.  0.
        -12    1    1    2    0    0  0.40375627338E+02 -0.15717173200E+02  0.12324461844E+02  0.45045678772E+02  0.00000000000E+00 0.  1.
         11    1    3    3    0    0 -0.12539911475E+02  0.50299787371E+01 -0.53744675902E+01  0.14540803556E+02  0.51100000000E-03 0. -1.
        -11    1    3    3    0    0 -0.10728011483E+02  0.31706834319E+01  0.11291958729E+01  0.11243600286E+02  0.51100000000E-03 0.  1.
        -12    1    3    3    0    0 -0.17107704379E+02  0.75165110313E+01 -0.80791901264E+01  0.20357917386E+02  0.00000000000E+00 0.  1.
</event>
<event>
 7    1  0.1563903E-008  0.4614232E+02  0.7816164E-02  0.1320468E+00
        -11   -1    0    0    0    0  0.00000000000E+00  0.00000000000E+00  0.45593999997E+02  0.45594000000E+02  0.51100000000E-03 0. -1.
         11   -1    0    0    0    0 -0.00000000000E+00 -0.00000000000E+00 -0.45593999997E+02  0.45594000000E+02  0.51100000000E-03 0.  1.
    9900012    2    1    2    0    0  0.42241306307E+01  0.15235762125E+02  0.42179874794E+02  0.46142316914E+02  0.99999922715E+01 0.  0.
        -12    1    1    2    0    0 -0.42241306307E+01 -0.15235762125E+02 -0.42179874794E+02  0.45045683086E+02  0.00000000000E+00 0.  1.
         11    1    3    3    0    0  0.10734054921E+01 -0.17585787179E-02  0.52842187871E+01  0.53921397324E+01  0.51100000000E-03 0. -1.
        -11    1    3    3    0    0 -0.92346622423E+00  0.89317414271E+01  0.26094364372E+02  0.27596098402E+02  0.51100000000E-03 0.  1.
        -12    1    3    3    0    0  0.40741913628E+01  0.63057792766E+01  0.10801291635E+02  0.13154078779E+02  0.00000000000E+00 0.  1.
</event>
<event>
 7    1  0.1563903E-008  0.4614232E+02  0.7816164E-02  0.1320468E+00
        -11   -1    0    0    0    0  0.00000000000E+00  0.00000000000E+00  0.45593999997E+02  0.45594000000E+02  0.51100000000E-03 0.  1.
         11   -1    0    0    0    0 -0.00000000000E+00 -0.00000000000E+00 -0.45593999997E+02  0.45594000000E+02  0.51100000000E-03 0. -1.
    9900012    2    1    2    0    0  0.38604639517E+02 -0.13867345646E+02  0.18614296966E+02  0.46142317421E+02  0.99999968941E+01 0.  0.
        -12    1    1    2    0    0 -0.38604639517E+02  0.13867345646E+02 -0.18614296966E+02  0.45045682579E+02  0.00000000000E+00 0.  1.
         11    1    3    3    0    0  0.74910575302E+01 -0.11387130940E+01  0.14653741607E+01  0.77175081551E+01  0.51100000000E-03 0.  1.
        -11    1    3    3    0    0  0.16105632207E+02 -0.73371710566E+01  0.12962530986E+02  0.21937471999E+02  0.51100000000E-03 0. -1.
        -12    1    3    3    0    0  0.15007949780E+02 -0.53914614953E+01  0.41863918190E+01  0.16487337266E+02  0.00000000000E+00 0.  1.
</event>
<event>
 7    1  0.1563903E-008  0.4614232E+02  0.7816164E-02  0.1320468E+00
        -11   -1    0    0    0    0  0.00000000000E+00  0.00000000000E+00  0.45593999997E+02  0.45594000000E+02  0.51100000000E-03 0.  1.
         11   -1    0    0    0    0 -0.00000000000E+00 -0.00000000000E+00 -0.45593999997E+02  0.45594000000E+02  0.51100000000E-03 0. -1.
    9900012    2    1    2    0    0  0.37311578711E+01 -0.43695378629E+02 -0.10291037710E+02  0.46142321963E+02  0.10000038320E+02 0.  0.
        -12    1    1    2    0    0 -0.37311578711E+01  0.43695378629E+02  0.10291037710E+02  0.45045678037E+02  0.00000000000E+00 0.  1.
         11    1    3    3    0    0  0.11516047482E+01 -0.19801944017E+02 -0.64239330913E+00  0.19845801818E+02  0.51100000000E-03 0. -1.
        -11    1    3    3    0    0  0.31788395643E+01 -0.20134143204E+02 -0.66188794991E+01  0.21431246105E+02  0.51100000000E-03 0.  1.
        -12    1    3    3    0    0 -0.59928644145E+00 -0.37592914081E+01 -0.30297649019E+01  0.48652740407E+01  0.00000000000E+00 0.  1.
</event>
<event>
 7    1  0.1563903E-008  0.4614232E+02  0.7816164E-02  0.1320468E+00
        -11   -1    0    0    0    0  0.00000000000E+00  0.00000000000E+00  0.45593999997E+02  0.45594000000E+02  0.51100000000E-03 0. -1.
         11   -1    0    0    0    0 -0.00000000000E+00 -0.00000000000E+00 -0.45593999997E+02  0.45594000000E+02  0.51100000000E-03 0.  1.
    9900012    2    1    2    0    0  0.15459371663E+02  0.10113656935E+02  0.41083273484E+02  0.46142316644E+02  0.99999898167E+01 0.  0.
        -12    1    1    2    0    0 -0.15459371663E+02 -0.10113656935E+02 -0.41083273484E+02  0.45045683356E+02  0.00000000000E+00 0.  1.
         11    1    3    3    0    0  0.39405755478E+01  0.12050479761E+01  0.10580912778E+02  0.11354998536E+02  0.51100000000E-03 0. -1.
        -11    1    3    3    0    0 -0.62783939207E+00 -0.65578195668E-01  0.57995943836E+01  0.58338476220E+01  0.51100000000E-03 0.  1.
        -12    1    3    3    0    0  0.12146635507E+02  0.89741871545E+01  0.24702766322E+02  0.28953470486E+02  0.00000000000E+00 0.  1.
</event>
<event>
 7    1  0.1563903E-008  0.4614232E+02  0.7816164E-02  0.1320468E+00
        -11   -1    0    0    0    0  0.00000000000E+00  0.00000000000E+00  0.45593999997E+02  0.45594000000E+02  0.51100000000E-03 0. -1.
         11   -1    0    0    0    0 -0.00000000000E+00 -0.00000000000E+00 -0.45593999997E+02  0.45594000000E+02  0.51100000000E-03 0.  1.
    9900012    2    1    2    0    0  0.13999937464E+02  0.11045556462E+02  0.41365576484E+02  0.46142317805E+02  0.10000000404E+02 0.  0.
        -12    1    1    2    0    0 -0.13999937464E+02 -0.11045556462E+02 -0.41365576484E+02  0.45045682195E+02  0.00000000000E+00 0.  1.
         11    1    3    3    0    0  0.75583927807E+01  0.40310499216E+01  0.16079378738E+02  0.18218811316E+02  0.51100000000E-03 0. -1.
        -11    1    3    3    0    0  0.31853783378E+01  0.45864549526E+01  0.59285770000E+01  0.81443372777E+01  0.51100000000E-03 0.  1.
        -12    1    3    3    0    0  0.32561663452E+01  0.24280515879E+01  0.19357620746E+02  0.19779169212E+02  0.00000000000E+00 0.  1.
</event>
<event>
 7    1  0.1563903E-008  0.4614232E+02  0.7816164E-02  0.1320468E+00
        -11   -1    0    0    0    0  0.00000000000E+00  0.00000000000E+00  0.45593999997E+02  0.45594000000E+02  0.51100000000E-03 0.  1.
         11   -1    0    0    0    0 -0.00000000000E+00 -0.00000000000E+00 -0.45593999997E+02  0.45594000000E+02  0.51100000000E-03 0. -1.
    9900012    2    1    2    0    0  0.65922940474E+01 -0.10247499482E+02 -0.43366391354E+02  0.46142317793E+02  0.10000000291E+02 0.  0.
        -12    1    1    2    0    0 -0.65922940474E+01  0.10247499482E+02  0.43366391354E+02  0.45045682207E+02  0.00000000000E+00 0.  1.
         11    1    3    3    0    0  0.33777458355E+01 -0.41385953958E+01 -0.18373131448E+02  0.19133977585E+02  0.51100000000E-03 0. -1.
        -11    1    3    3    0    0  0.41529550554E+01 -0.66921612826E+00 -0.67984574138E+01  0.79946175260E+01  0.51100000000E-03 0.  1.
        -12    1    3    3    0    0 -0.93840684344E+00 -0.54396879580E+01 -0.18194802492E+02  0.19013722682E+02  0.00000000000E+00 0.  1.
</event>
<event>
 7    1  0.1563903E-008  0.4614232E+02  0.7816164E-02  0.1320468E+00
        -11   -1    0    0    0    0  0.00000000000E+00  0.00000000000E+00  0.45593999997E+02  0.45594000000E+02  0.51100000000E-03 0.  1.
         11   -1    0    0    0    0 -0.00000000000E+00 -0.00000000000E+00 -0.45593999997E+02  0.45594000000E+02  0.51100000000E-03 0. -1.
    9900012    2    1    2    0    0  0.20920226537E+02 -0.38801479441E+02 -0.92683801244E+01  0.46142317018E+02  0.99999932222E+01 0.  0.
        -12    1    1    2    0    0 -0.20920226537E+02  0.38801479441E+02  0.92683801244E+01  0.45045682982E+02  0.00000000000E+00 0.  1.
         11    1    3    3    0    0  0.22838254858E+01 -0.97514212841E+00 -0.12913329475E+01  0.27989823262E+01  0.51100000000E-03 0. -1.
        -11    1    3    3    0    0  0.63808903386E+00 -0.28845774261E+01  0.82025493105E+00  0.30660663651E+01  0.51100000000E-03 0.  1.
         12    1    3    3    0    0  0.17998312018E+02 -0.34941759887E+02 -0.87973021080E+01  0.40277268327E+02  0.00000000000E+00 0. -1.
</event>
<event>
 7    1  0.1563903E-008  0.4614232E+02  0.7816164E-02  0.1320468E+00
        -11   -1    0    0    0    0  0.00000000000E+00  0.00000000000E+00  0.45593999997E+02  0.45594000000E+02  0.51100000000E-03 0.  1.
         11   -1    0    0    0    0 -0.00000000000E+00 -0.00000000000E+00 -0.45593999997E+02  0.45594000000E+02  0.51100000000E-03 0. -1.
    9900012    2    1    2    0    0  0.26759100387E+02 -0.36230602570E+02 -0.63839580660E+00  0.46142316907E+02  0.99999922112E+01 0.  0.
        -12    1    1    2    0    0 -0.26759100387E+02  0.36230602570E+02  0.63839580660E+00  0.45045683093E+02  0.00000000000E+00 0.  1.
         11    1    3    3    0    0  0.64510953397E+01 -0.53651508508E+01 -0.10708542185E+01  0.84586171300E+01  0.51100000000E-03 0. -1.
        -11    1    3    3    0    0  0.85935102149E+01 -0.69695042012E+01 -0.11884376188E+00  0.11065104190E+02  0.51100000000E-03 0.  1.
        -12    1    3    3    0    0  0.11714494833E+02 -0.23895947518E+02  0.55130217375E+00  0.26618595587E+02  0.00000000000E+00 0.  1.
</event>
<event>
 7    1  0.1563903E-008  0.4614232E+02  0.7816164E-02  0.1320468E+00
        -11   -1    0    0    0    0  0.00000000000E+00  0.00000000000E+00  0.45593999997E+02  0.45594000000E+02  0.51100000000E-03 0.  1.
         11   -1    0    0    0    0 -0.00000000000E+00 -0.00000000000E+00 -0.45593999997E+02  0.45594000000E+02  0.51100000000E-03 0. -1.
    9900012    2    1    2    0    0 -0.44591912060E+02  0.49017046163E+01 -0.40802165463E+01  0.46142317672E+02  0.99999991901E+01 0.  0.
        -12    1    1    2    0    0  0.44591912060E+02 -0.49017046163E+01  0.40802165463E+01  0.45045682328E+02  0.00000000000E+00 0.  1.
         11    1    3    3    0    0 -0.25803279101E+02  0.36583593458E+01 -0.30830390020E+01  0.26243054990E+02  0.51100000000E-03 0. -1.
        -11    1    3    3    0    0  0.55527904584E-01 -0.72442680674E+00 -0.61001992897E+00  0.94868441612E+00  0.51100000000E-03 0.  1.
        -12    1    3    3    0    0 -0.18844160864E+02  0.19677720772E+01 -0.38715761532E+00  0.18950578266E+02  0.00000000000E+00 0.  1.
</event>
<event>
 7    1  0.1563903E-008  0.4614232E+02  0.7816164E-02  0.1320468E+00
        -11   -1    0    0    0    0  0.00000000000E+00  0.00000000000E+00  0.45593999997E+02  0.45594000000E+02  0.51100000000E-03 0.  1.
         11   -1    0    0    0    0 -0.00000000000E+00 -0.00000000000E+00 -0.45593999997E+02  0.45594000000E+02  0.51100000000E-03 0. -1.
    9900012    2    1    2    0    0 -0.36230412394E+02 -0.15412309376E+02 -0.21884504511E+02  0.46142316520E+02  0.99999886796E+01 0.  0.
        -12    1    1    2    0    0  0.36230412394E+02  0.15412309376E+02  0.21884504511E+02  0.45045683480E+02  0.00000000000E+00 0.  1.
         11    1    3    3    0    0  0.10414823128E+00 -0.48859510317E+00 -0.55449012192E-01  0.50263991385E+00  0.51100000000E-03 0. -1.
        -11    1    3    3    0    0 -0.45342206548E+01 -0.45248183930E+01 -0.18354125919E+01  0.66634734246E+01  0.51100000000E-03 0.  1.
         12    1    3    3    0    0 -0.31800339970E+02 -0.10398895880E+02 -0.19993642907E+02  0.38976203181E+02  0.00000000000E+00 0. -1.
</event>
<event>
 7    1  0.1563903E-008  0.4614231E+02  0.7816164E-02  0.1320468E+00
        -11   -1    0    0    0    0  0.00000000000E+00  0.00000000000E+00  0.45593999997E+02  0.45594000000E+02  0.51100000000E-03 0. -1.
         11   -1    0    0    0    0 -0.00000000000E+00 -0.00000000000E+00 -0.45593999997E+02  0.45594000000E+02  0.51100000000E-03 0.  1.
    9900012    2    1    2    0    0  0.24117885963E+02 -0.10361857758E+01  0.38031142517E+02  0.46142313132E+02  0.99999577904E+01 0.  0.
        -12    1    1    2    0    0 -0.24117885963E+02  0.10361857758E+01 -0.38031142517E+02  0.45045686868E+02  0.00000000000E+00 0.  1.
         11    1    3    3    0    0  0.12235603610E+02 -0.91979881331E+00  0.26075673447E+02  0.28818340888E+02  0.51100000000E-03 0. -1.
        -11    1    3    3    0    0  0.11384081421E+02 -0.10855751877E+01  0.11119495492E+02  0.15950516090E+02  0.51100000000E-03 0.  1.
        -12    1    3    3    0    0  0.49820093191E+00  0.96918822524E+00  0.83597357720E+00  0.13734561538E+01  0.00000000000E+00 0.  1.
</event>
<event>
 7    1  0.1563903E-008  0.4614232E+02  0.7816164E-02  0.1320468E+00
        -11   -1    0    0    0    0  0.00000000000E+00  0.00000000000E+00  0.45593999997E+02  0.45594000000E+02  0.51100000000E-03 0.  1.
         11   -1    0    0    0    0 -0.00000000000E+00 -0.00000000000E+00 -0.45593999997E+02  0.45594000000E+02  0.51100000000E-03 0. -1.
    9900012    2    1    2    0    0  0.39345123390E+02 -0.21599969770E+02 -0.38100006236E+01  0.46142317261E+02  0.99999954433E+01 0.  0.
        -12    1    1    2    0    0 -0.39345123390E+02  0.21599969770E+02  0.38100006236E+01  0.45045682739E+02  0.00000000000E+00 0.  1.
         11    1    3    3    0    0  0.44914273042E+01 -0.10079441140E+01  0.16841167008E+01  0.49015426030E+01  0.51100000000E-03 0. -1.
        -11    1    3    3    0    0  0.12647023524E+02 -0.59313848524E+01  0.44706079046E+00  0.13975993485E+02  0.51100000000E-03 0.  1.
         12    1    3    3    0    0  0.22206672562E+02 -0.14660640804E+02 -0.59411781148E+01  0.27264781173E+02  0.00000000000E+00 0. -1.
</event>
<event>
 7    1  0.1563903E-008  0.4614232E+02  0.7816164E-02  0.1320468E+00
        -11   -1    0    0    0    0  0.00000000000E+00  0.00000000000E+00  0.45593999997E+02  0.45594000000E+02  0.51100000000E-03 0. -1.
         11   -1    0    0    0    0 -0.00000000000E+00 -0.00000000000E+00 -0.45593999997E+02  0.45594000000E+02  0.51100000000E-03 0.  1.
    9900012    2    1    2    0    0 -0.39531686253E+02 -0.17060640053E+02 -0.13239858762E+02  0.46142317443E+02  0.99999970981E+01 0.  0.
        -12    1    1    2    0    0  0.39531686253E+02  0.17060640053E+02  0.13239858762E+02  0.45045682557E+02  0.00000000000E+00 0.  1.
         11    1    3    3    0    0 -0.23732249411E+02 -0.66218210209E+01 -0.72306715670E+01  0.25677826764E+02  0.51100000000E-03 0. -1.
        -11    1    3    3    0    0 -0.14987184408E+02 -0.10330734032E+02 -0.66960484332E+01  0.19395278472E+02  0.51100000000E-03 0.  1.
        -12    1    3    3    0    0 -0.81225243423E+00 -0.10808500018E+00  0.68686123852E+00  0.10692122077E+01  0.00000000000E+00 0.  1.
</event>
<event>
 7    1  0.1563903E-008  0.4614231E+02  0.7816164E-02  0.1320468E+00
        -11   -1    0    0    0    0  0.00000000000E+00  0.00000000000E+00  0.45593999997E+02  0.45594000000E+02  0.51100000000E-03 0. -1.
         11   -1    0    0    0    0 -0.00000000000E+00 -0.00000000000E+00 -0.45593999997E+02  0.45594000000E+02  0.51100000000E-03 0.  1.
    9900012    2    1    2    0    0 -0.52282049451E+01 -0.44723294925E+02  0.12675961064E+01  0.46142311685E+02  0.99999445903E+01 0.  0.
        -12    1    1    2    0    0  0.52282049451E+01  0.44723294925E+02 -0.12675961064E+01  0.45045688315E+02  0.00000000000E+00 0.  1.
         11    1    3    3    0    0 -0.44427562296E-01 -0.13773574806E+02 -0.17648620618E+01  0.13886254899E+02  0.51100000000E-03 0. -1.
        -11    1    3    3    0    0 -0.27738609051E+01 -0.22454243991E+02 -0.77809988374E+00  0.22638304203E+02  0.51100000000E-03 0.  1.
        -12    1    3    3    0    0 -0.24099164777E+01 -0.84954761281E+01  0.38105580519E+01  0.96177525826E+01  0.00000000000E+00 0.  1.
</event>
<event>
 7    1  0.1563903E-008  0.4614232E+02  0.7816164E-02  0.1320468E+00
        -11   -1    0    0    0    0  0.00000000000E+00  0.00000000000E+00  0.45593999997E+02  0.45594000000E+02  0.51100000000E-03 0.  1.
         11   -1    0    0    0    0 -0.00000000000E+00 -0.00000000000E+00 -0.45593999997E+02  0.45594000000E+02  0.51100000000E-03 0. -1.
    9900012    2    1    2    0    0 -0.32077741704E+01 -0.17879036703E+02 -0.41220913029E+02  0.46142318303E+02  0.10000004944E+02 0.  0.
        -12    1    1    2    0    0  0.32077741704E+01  0.17879036703E+02  0.41220913029E+02  0.45045681697E+02  0.00000000000E+00 0.  1.
         11    1    3    3    0    0 -0.44282594218E+00 -0.14218314549E+02 -0.28764552772E+02  0.32089812400E+02  0.51100000000E-03 0. -1.
        -11    1    3    3    0    0 -0.50748649651E+00  0.10673053322E+01 -0.32710314263E+01  0.34779778707E+01  0.51100000000E-03 0.  1.
         12    1    3    3    0    0 -0.22574617317E+01 -0.47280274860E+01 -0.91853288305E+01  0.10574528032E+02  0.00000000000E+00 0. -1.
</event>
<event>
 7    1  0.1563903E-008  0.4614232E+02  0.7816164E-02  0.1320468E+00
        -11   -1    0    0    0    0  0.00000000000E+00  0.00000000000E+00  0.45593999997E+02  0.45594000000E+02  0.51100000000E-03 0. -1.
         11   -1    0    0    0    0 -0.00000000000E+00 -0.00000000000E+00 -0.45593999997E+02  0.45594000000E+02  0.51100000000E-03 0.  1.
    9900012    2    1    2    0    0  0.19027527852E+02 -0.10342734648E+02  0.39498031291E+02  0.46142318165E+02  0.10000003682E+02 0.  0.
        -12    1    1    2    0    0 -0.19027527852E+02  0.10342734648E+02 -0.39498031291E+02  0.45045681835E+02  0.00000000000E+00 0.  1.
         11    1    3    3    0    0  0.14719013990E+02 -0.88814121330E+01  0.28192069138E+02  0.33020018426E+02  0.51100000000E-03 0. -1.
        -11    1    3    3    0    0  0.37187122036E+01 -0.13307325736E+01  0.11734686692E+02  0.12381540359E+02  0.51100000000E-03 0.  1.
        -12    1    3    3    0    0  0.58980165768E+00 -0.13058994154E+00 -0.42872453921E+00  0.74075937980E+00  0.00000000000E+00 0.  1.
</event>
<event>
 7    1  0.1563903E-008  0.4614232E+02  0.7816164E-02  0.1320468E+00
        -11   -1    0    0    0    0  0.00000000000E+00  0.00000000000E+00  0.45593999997E+02  0.45594000000E+02  0.51100000000E-03 0.  1.
         11   -1    0    0    0    0 -0.00000000000E+00 -0.00000000000E+00 -0.45593999997E+02  0.45594000000E+02  0.51100000000E-03 0. -1.
    9900012    2    1    2    0    0  0.71218324300E+01 -0.75181320352E+01 -0.43839144102E+02  0.46142319163E+02  0.10000012787E+02 0.  0.
        -12    1    1    2    0    0 -0.71218324300E+01  0.75181320352E+01  0.43839144102E+02  0.45045680837E+02  0.00000000000E+00 0.  1.
         11    1    3    3    0    0  0.27901627238E+01  0.13582711889E+01 -0.74412468901E+01  0.80623857628E+01  0.51100000000E-03 0. -1.
        -11    1    3    3    0    0 -0.30424821940E-01 -0.74008380509E+00 -0.26558423388E+00  0.78688306295E+00  0.51100000000E-03 0.  1.
         12    1    3    3    0    0  0.43620945281E+01 -0.81363194190E+01 -0.36132312978E+02  0.37293050338E+02  0.00000000000E+00 0. -1.
</event>
<event>
 7    1  0.1563903E-008  0.4614232E+02  0.7816164E-02  0.1320468E+00
        -11   -1    0    0    0    0  0.00000000000E+00  0.00000000000E+00  0.45593999997E+02  0.45594000000E+02  0.51100000000E-03 0. -1.
         11   -1    0    0    0    0 -0.00000000000E+00 -0.00000000000E+00 -0.45593999997E+02  0.45594000000E+02  0.51100000000E-03 0.  1.
    9900012    2    1    2    0    0 -0.15805455237E+02  0.38384602007E+02 -0.17490669009E+02  0.46142316646E+02  0.99999898320E+01 0.  0.
        -12    1    1    2    0    0  0.15805455237E+02 -0.38384602007E+02  0.17490669009E+02  0.45045683354E+02  0.00000000000E+00 0.  1.
         11    1    3    3    0    0 -0.61913398271E+01  0.16004304793E+02 -0.46221419725E+01  0.17771737604E+02  0.51100000000E-03 0.  1.
        -11    1    3    3    0    0 -0.42972880886E+01  0.34411642201E+01 -0.39276172341E+01  0.67627267803E+01  0.51100000000E-03 0. -1.
         12    1    3    3    0    0 -0.53168273209E+01  0.18939132993E+02 -0.89409098024E+01  0.21607852262E+02  0.00000000000E+00 0. -1.
</event>
<event>
 7    1  0.1563903E-008  0.4614232E+02  0.7816164E-02  0.1320468E+00
        -11   -1    0    0    0    0  0.00000000000E+00  0.00000000000E+00  0.45593999997E+02  0.45594000000E+02  0.51100000000E-03 0.  1.
         11   -1    0    0    0    0 -0.00000000000E+00 -0.00000000000E+00 -0.45593999997E+02  0.45594000000E+02  0.51100000000E-03 0. -1.
    9900012    2    1    2    0    0  0.10002774154E+02  0.36329864702E+02 -0.24681951891E+02  0.46142319750E+02  0.10000018138E+02 0.  0.
        -12    1    1    2    0    0 -0.10002774154E+02 -0.36329864702E+02  0.24681951891E+02  0.45045680250E+02  0.00000000000E+00 0.  1.
         11    1    3    3    0    0  0.52303941253E+01  0.13840612649E+02 -0.12173347697E+02  0.19160114186E+02  0.51100000000E-03 0. -1.
        -11    1    3    3    0    0  0.45949996974E+01  0.70007822752E+01 -0.36146654876E+01  0.91208980661E+01  0.51100000000E-03 0.  1.
        -12    1    3    3    0    0  0.17738033086E+00  0.15488469777E+02 -0.88939387065E+01  0.17861307498E+02  0.00000000000E+00 0.  1.
</event>
<event>
 7    1  0.1563903E-008  0.4614232E+02  0.7816164E-02  0.1320468E+00
        -11   -1    0    0    0    0  0.00000000000E+00  0.00000000000E+00  0.45593999997E+02  0.45594000000E+02  0.51100000000E-03 0.  1.
         11   -1    0    0    0    0 -0.00000000000E+00 -0.00000000000E+00 -0.45593999997E+02  0.45594000000E+02  0.51100000000E-03 0. -1.
    9900012    2    1    2    0    0 -0.31418428017E+02  0.18506434083E+02 -0.26448209773E+02  0.46142317391E+02  0.99999966216E+01 0.  0.
        -12    1    1    2    0    0  0.31418428017E+02 -0.18506434083E+02  0.26448209773E+02  0.45045682609E+02  0.00000000000E+00 0.  1.
         11    1    3    3    0    0  0.63521699063E+00  0.62323809669E-01 -0.27576273003E+00  0.69529146898E+00  0.51100000000E-03 0. -1.
        -11    1    3    3    0    0 -0.36206757192E+01  0.18607134368E+01 -0.16132480170E+01  0.43788259366E+01  0.51100000000E-03 0.  1.
         12    1    3    3    0    0 -0.28432969288E+02  0.16583396837E+02 -0.24559199026E+02  0.41068199985E+02  0.00000000000E+00 0. -1.
</event>
<event>
 7    1  0.2330929E-008  0.4614232E+02  0.7816164E-02  0.1320468E+00
        -11   -1    0    0    0    0  0.00000000000E+00  0.00000000000E+00  0.45593999997E+02  0.45594000000E+02  0.51100000000E-03 0. -1.
         11   -1    0    0    0    0 -0.00000000000E+00 -0.00000000000E+00 -0.45593999997E+02  0.45594000000E+02  0.51100000000E-03 0.  1.
    9900012    2    1    2    0    0  0.23202074371E+02  0.35154485111E+02  0.15966821732E+02  0.46142317913E+02  0.10000001381E+02 0.  0.
        -12    1    1    2    0    0 -0.23202074371E+02 -0.35154485111E+02 -0.15966821732E+02  0.45045682087E+02  0.00000000000E+00 0.  1.
         11    1    3    3    0    0  0.11846745346E+02  0.24964401109E+02  0.10765047985E+02  0.29655572097E+02  0.51100000000E-03 0. -1.
        -11    1    3    3    0    0  0.50574405646E+01  0.40679948823E+01  0.39941293614E+01  0.76209813701E+01  0.51100000000E-03 0.  1.
         12    1    3    3    0    0  0.62978884598E+01  0.61220891192E+01  0.12076443858E+01  0.88657644453E+01  0.00000000000E+00 0. -1.
</event>
<event>
 7    1  0.1563903E-008  0.4614231E+02  0.7816164E-02  0.1320468E+00
        -11   -1    0    0    0    0  0.00000000000E+00  0.00000000000E+00  0.45593999997E+02  0.45594000000E+02  0.51100000000E-03 0.  1.
         11   -1    0    0    0    0 -0.00000000000E+00 -0.00000000000E+00 -0.45593999997E+02  0.45594000000E+02  0.51100000000E-03 0. -1.
    9900012    2    1    2    0    0  0.44929197103E+01  0.13246247491E+02 -0.42818972140E+02  0.46142314577E+02  0.99999709652E+01 0.  0.
        -12    1    1    2    0    0 -0.44929197103E+01 -0.13246247491E+02  0.42818972140E+02  0.45045685423E+02  0.00000000000E+00 0.  1.
         11    1    3    3    0    0  0.49883984682E+01  0.26043676091E+01 -0.90185321621E+01  0.10630182150E+02  0.51100000000E-03 0. -1.
        -11    1    3    3    0    0 -0.11810146418E+01  0.58434684568E+01 -0.20799385824E+02  0.21636898348E+02  0.51100000000E-03 0.  1.
         12    1    3    3    0    0  0.68553588383E+00  0.47984114255E+01 -0.13001054154E+02  0.13875234079E+02  0.00000000000E+00 0. -1.
</event>
<event>
 7    1  0.1563903E-008  0.4614232E+02  0.7816164E-02  0.1320468E+00
        -11   -1    0    0    0    0  0.00000000000E+00  0.00000000000E+00  0.45593999997E+02  0.45594000000E+02  0.51100000000E-03 0.  1.
         11   -1    0    0    0    0 -0.00000000000E+00 -0.00000000000E+00 -0.45593999997E+02  0.45594000000E+02  0.51100000000E-03 0. -1.
    9900012    2    1    2    0    0  0.40680675644E+02 -0.11962621565E+02 -0.15201709346E+02  0.46142315938E+02  0.99999833777E+01 0.  0.
        -12    1    1    2    0    0 -0.40680675644E+02  0.11962621565E+02  0.15201709346E+02  0.45045684062E+02  0.00000000000E+00 0.  1.
         11    1    3    3    0    0  0.12332413287E+02 -0.42612250510E+01 -0.17561129942E+01  0.13165499973E+02  0.51100000000E-03 0. -1.
        -11    1    3    3    0    0  0.21032984574E+02 -0.47193317372E+01 -0.12755032060E+02  0.25046943431E+02  0.51100000000E-03 0.  1.
        -12    1    3    3    0    0  0.73152777823E+01 -0.29820647769E+01 -0.69056429227E+00  0.79298725341E+01  0.00000000000E+00 0.  1.
</event>
<event>
 7    1  0.1563903E-008  0.4614232E+02  0.7816164E-02  0.1320468E+00
        -11   -1    0    0    0    0  0.00000000000E+00  0.00000000000E+00  0.45593999997E+02  0.45594000000E+02  0.51100000000E-03 0. -1.
         11   -1    0    0    0    0 -0.00000000000E+00 -0.00000000000E+00 -0.45593999997E+02  0.45594000000E+02  0.51100000000E-03 0.  1.
    9900012    2    1    2    0    0 -0.38515431255E+02  0.19518833966E+02  0.12833164383E+02  0.46142318384E+02  0.10000005682E+02 0.  0.
        -12    1    1    2    0    0  0.38515431255E+02 -0.19518833966E+02 -0.12833164383E+02  0.45045681616E+02  0.00000000000E+00 0.  1.
         11    1    3    3    0    0 -0.14345921612E+01 -0.89852115660E+00  0.51102865167E+00  0.17682040272E+01  0.51100000000E-03 0. -1.
        -11    1    3    3    0    0 -0.85694373626E+01  0.41954173005E+01  0.67740651025E+00  0.95653365272E+01  0.51100000000E-03 0.  1.
         12    1    3    3    0    0 -0.28511401731E+02  0.16221937822E+02  0.11644729221E+02  0.34808777830E+02  0.00000000000E+00 0. -1.
</event>
<event>
 7    1  0.1563903E-008  0.4614232E+02  0.7816164E-02  0.1320468E+00
        -11   -1    0    0    0    0  0.00000000000E+00  0.00000000000E+00  0.45593999997E+02  0.45594000000E+02  0.51100000000E-03 0.  1.
         11   -1    0    0    0    0 -0.00000000000E+00 -0.00000000000E+00 -0.45593999997E+02  0.45594000000E+02  0.51100000000E-03 0. -1.
    9900012    2    1    2    0    0  0.16357350457E+02 -0.35230857403E+02 -0.22810895630E+02  0.46142321109E+02  0.10000030525E+02 0.  0.
        -12    1    1    2    0    0 -0.16357350457E+02  0.35230857403E+02  0.22810895630E+02  0.45045678891E+02  0.00000000000E+00 0.  1.
         11    1    3    3    0    0 -0.26729328955E+00 -0.36663847709E+01 -0.21331596187E+01  0.42501991966E+01  0.51100000000E-03 0. -1.
        -11    1    3    3    0    0  0.11652029504E+01 -0.90089403080E+01 -0.48786690997E+01  0.10311164621E+02  0.51100000000E-03 0.  1.
         12    1    3    3    0    0  0.15459440796E+02 -0.22555532324E+02 -0.15799066912E+02  0.31580957291E+02  0.00000000000E+00 0. -1.
</event>
<event>
 7    1  0.1563903E-008  0.4614233E+02  0.7816164E-02  0.1320468E+00
        -11   -1    0    0    0    0  0.00000000000E+00  0.00000000000E+00  0.45593999997E+02  0.45594000000E+02  0.51100000000E-03 0.  1.
         11   -1    0    0    0    0 -0.00000000000E+00 -0.00000000000E+00 -0.45593999997E+02  0.45594000000E+02  0.51100000000E-03 0. -1.
    9900012    2    1    2    0    0  0.13589438807E+02 -0.31195662971E+02 -0.29517287040E+02  0.46142329071E+02  0.10000103129E+02 0.  0.
        -12    1    1    2    0    0 -0.13589438807E+02  0.31195662971E+02  0.29517287040E+02  0.45045670929E+02  0.00000000000E+00 0.  1.
         11    1    3    3    0    0  0.27282440969E+01 -0.59555895713E+01 -0.20992900587E+01  0.68789084894E+01  0.51100000000E-03 0. -1.
        -11    1    3    3    0    0  0.95339834451E+01 -0.22308066049E+02 -0.21012047162E+02  0.32094435302E+02  0.51100000000E-03 0.  1.
        -12    1    3    3    0    0  0.13272112645E+01 -0.29320073511E+01 -0.64059498188E+01  0.71689852789E+01  0.00000000000E+00 0.  1.
</event>
<event>
 7    1  0.1563903E-008  0.4614232E+02  0.7816164E-02  0.1320468E+00
        -11   -1    0    0    0    0  0.00000000000E+00  0.00000000000E+00  0.45593999997E+02  0.45594000000E+02  0.51100000000E-03 0.  1.
         11   -1    0    0    0    0 -0.00000000000E+00 -0.00000000000E+00 -0.45593999997E+02  0.45594000000E+02  0.51100000000E-03 0. -1.
    9900012    2    1    2    0    0 -0.17960681746E+02 -0.39183561645E+02 -0.13083419513E+02  0.46142318097E+02  0.10000003065E+02 0.  0.
        -12    1    1    2    0    0  0.17960681746E+02  0.39183561645E+02  0.13083419513E+02  0.45045681903E+02  0.00000000000E+00 0.  1.
         11    1    3    3    0    0 -0.11288103578E+01 -0.95724871937E+01 -0.25981546643E+01  0.99828418708E+01  0.51100000000E-03 0. -1.
        -11    1    3    3    0    0 -0.64372800463E+01 -0.13650054402E+02 -0.17115417557E+01  0.15188546179E+02  0.51100000000E-03 0.  1.
         12    1    3    3    0    0 -0.10394591342E+02 -0.15961020049E+02 -0.87737230931E+01  0.20970930048E+02  0.00000000000E+00 0. -1.
</event>
<event>
 7    1  0.1563903E-008  0.4614232E+02  0.7816164E-02  0.1320468E+00
        -11   -1    0    0    0    0  0.00000000000E+00  0.00000000000E+00  0.45593999997E+02  0.45594000000E+02  0.51100000000E-03 0.  1.
         11   -1    0    0    0    0 -0.00000000000E+00 -0.00000000000E+00 -0.45593999997E+02  0.45594000000E+02  0.51100000000E-03 0. -1.
    9900012    2    1    2    0    0  0.36378073836E+01  0.24604064990E+02 -0.37556887466E+02  0.46142318157E+02  0.10000003609E+02 0.  0.
        -12    1    1    2    0    0 -0.36378073836E+01 -0.24604064990E+02  0.37556887466E+02  0.45045681843E+02  0.00000000000E+00 0.  1.
         11    1    3    3    0    0  0.32013008520E+01  0.41981674224E+01 -0.84133989593E+01  0.99326843885E+01  0.51100000000E-03 0. -1.
        -11    1    3    3    0    0  0.10664028245E+01  0.86360616501E+01 -0.17982206962E+02  0.19976950300E+02  0.51100000000E-03 0.  1.
        -12    1    3    3    0    0 -0.62989629288E+00  0.11769835917E+02 -0.11161281544E+02  0.16232683468E+02  0.00000000000E+00 0.  1.
</event>
<event>
 7    1  0.1563903E-008  0.4614232E+02  0.7816164E-02  0.1320468E+00
        -11   -1    0    0    0    0  0.00000000000E+00  0.00000000000E+00  0.45593999997E+02  0.45594000000E+02  0.51100000000E-03 0.  1.
         11   -1    0    0    0    0 -0.00000000000E+00 -0.00000000000E+00 -0.45593999997E+02  0.45594000000E+02  0.51100000000E-03 0. -1.
    9900012    2    1    2    0    0 -0.27681665501E+02 -0.60443008959E+01 -0.35018641999E+02  0.46142318013E+02  0.10000002295E+02 0.  0.
        -12    1    1    2    0    0  0.27681665501E+02  0.60443008959E+01  0.35018641999E+02  0.45045681987E+02  0.00000000000E+00 0.  1.
         11    1    3    3    0    0 -0.47672784156E+01 -0.72824360071E-02 -0.32620383244E+01  0.57764946825E+01  0.51100000000E-03 0. -1.
        -11    1    3    3    0    0 -0.19304861666E+02 -0.62460489321E+01 -0.21840060350E+02  0.29810720347E+02  0.51100000000E-03 0.  1.
        -12    1    3    3    0    0 -0.36095254188E+01  0.20903047212E+00 -0.99165433247E+01  0.10555102984E+02  0.00000000000E+00 0.  1.
</event>
<event>
 7    1  0.1563903E-008  0.4614232E+02  0.7816164E-02  0.1320468E+00
        -11   -1    0    0    0    0  0.00000000000E+00  0.00000000000E+00  0.45593999997E+02  0.45594000000E+02  0.51100000000E-03 0. -1.
         11   -1    0    0    0    0 -0.00000000000E+00 -0.00000000000E+00 -0.45593999997E+02  0.45594000000E+02  0.51100000000E-03 0.  1.
    9900012    2    1    2    0    0 -0.11262264000E+02 -0.69077542867E+01  0.43064578711E+02  0.46142316530E+02  0.99999887776E+01 0.  0.
        -12    1    1    2    0    0  0.11262264000E+02  0.69077542867E+01 -0.43064578711E+02  0.45045683470E+02  0.00000000000E+00 0.  1.
         11    1    3    3    0    0 -0.56170564657E+01 -0.39698250317E+01  0.27613468624E+02  0.28457239568E+02  0.51100000000E-03 0. -1.
        -11    1    3    3    0    0  0.75540665733E+00  0.39044797451E+00  0.44427191322E+01  0.45233662672E+01  0.51100000000E-03 0.  1.
         12    1    3    3    0    0 -0.64006141915E+01 -0.33283772295E+01  0.11008390954E+02  0.13161710695E+02  0.00000000000E+00 0. -1.
</event>
<event>
 7    1  0.1563903E-008  0.4614232E+02  0.7816164E-02  0.1320468E+00
        -11   -1    0    0    0    0  0.00000000000E+00  0.00000000000E+00  0.45593999997E+02  0.45594000000E+02  0.51100000000E-03 0.  1.
         11   -1    0    0    0    0 -0.00000000000E+00 -0.00000000000E+00 -0.45593999997E+02  0.45594000000E+02  0.51100000000E-03 0. -1.
    9900012    2    1    2    0    0 -0.33994769223E+02 -0.25502794682E+02 -0.14935756700E+02  0.46142315419E+02  0.99999786465E+01 0.  0.
        -12    1    1    2    0    0  0.33994769223E+02  0.25502794682E+02  0.14935756700E+02  0.45045684581E+02  0.00000000000E+00 0.  1.
         11    1    3    3    0    0 -0.27118728040E+02 -0.15043914572E+02 -0.10737699383E+02  0.32818332749E+02  0.51100000000E-03 0. -1.
        -11    1    3    3    0    0 -0.42355666998E+01 -0.48116493122E+01 -0.20445530661E+01  0.67284613303E+01  0.51100000000E-03 0.  1.
         12    1    3    3    0    0 -0.26404744833E+01 -0.56472307981E+01 -0.21535042511E+01  0.65955213398E+01  0.00000000000E+00 0. -1.
</event>
<event>
 7    1  0.1563903E-008  0.4614232E+02  0.7816164E-02  0.1320468E+00
        -11   -1    0    0    0    0  0.00000000000E+00  0.00000000000E+00  0.45593999997E+02  0.45594000000E+02  0.51100000000E-03 0. -1.
         11   -1    0    0    0    0 -0.00000000000E+00 -0.00000000000E+00 -0.45593999997E+02  0.45594000000E+02  0.51100000000E-03 0.  1.
    9900012    2    1    2    0    0  0.14045037512E+02  0.39183721659E+02  0.17218781769E+02  0.46142316884E+02  0.99999920015E+01 0.  0.
        -12    1    1    2    0    0 -0.14045037512E+02 -0.39183721659E+02 -0.17218781769E+02  0.45045683116E+02  0.00000000000E+00 0.  1.
         11    1    3    3    0    0  0.86324620710E+00  0.16716306879E+01  0.36346051707E+01  0.40926639465E+01  0.51100000000E-03 0.  1.
        -11    1    3    3    0    0  0.10894156821E+02  0.31773551319E+02  0.10895612229E+02  0.35312258245E+02  0.51100000000E-03 0. -1.
        -12    1    3    3    0    0  0.22876344839E+01  0.57385396526E+01  0.26885643697E+01  0.67373946928E+01  0.00000000000E+00 0.  1.
</event>
<event>
 7    1  0.1563903E-008  0.4614232E+02  0.7816164E-02  0.1320468E+00
        -11   -1    0    0    0    0  0.00000000000E+00  0.00000000000E+00  0.45593999997E+02  0.45594000000E+02  0.51100000000E-03 0. -1.
         11   -1    0    0    0    0 -0.00000000000E+00 -0.00000000000E+00 -0.45593999997E+02  0.45594000000E+02  0.51100000000E-03 0.  1.
    9900012    2    1    2    0    0 -0.28214698781E+02  0.23906824897E+02  0.25719796756E+02  0.46142318197E+02  0.10000003974E+02 0.  0.
        -12    1    1    2    0    0  0.28214698781E+02 -0.23906824897E+02 -0.25719796756E+02  0.45045681803E+02  0.00000000000E+00 0.  1.
         11    1    3    3    0    0 -0.97073108682E+01  0.89706589413E+01  0.12887876927E+02  0.18460822790E+02  0.51100000000E-03 0. -1.
        -11    1    3    3    0    0 -0.64761923788E+01  0.87458508871E+01  0.70560770552E+01  0.12969934431E+02  0.51100000000E-03 0.  1.
         12    1    3    3    0    0 -0.12031195534E+02  0.61903150686E+01  0.57758427739E+01  0.14711560977E+02  0.00000000000E+00 0. -1.
</event>
<event>
 7    1  0.1563903E-008  0.4614232E+02  0.7816164E-02  0.1320468E+00
        -11   -1    0    0    0    0  0.00000000000E+00  0.00000000000E+00  0.45593999997E+02  0.45594000000E+02  0.51100000000E-03 0.  1.
         11   -1    0    0    0    0 -0.00000000000E+00 -0.00000000000E+00 -0.45593999997E+02  0.45594000000E+02  0.51100000000E-03 0. -1.
    9900012    2    1    2    0    0 -0.10250051377E+02  0.71720709000E+01 -0.43273679140E+02  0.46142318070E+02  0.10000002814E+02 0.  0.
        -12    1    1    2    0    0  0.10250051377E+02 -0.71720709000E+01  0.43273679140E+02  0.45045681930E+02  0.00000000000E+00 0.  1.
         11    1    3    3    0    0 -0.86113870908E+01  0.76551836074E+01 -0.23232091854E+02  0.25932371967E+02  0.51100000000E-03 0. -1.
        -11    1    3    3    0    0 -0.77788597560E+00 -0.10114108170E+01 -0.15729256349E+02  0.15780924054E+02  0.51100000000E-03 0.  1.
         12    1    3    3    0    0 -0.86077831037E+00  0.52829810950E+00 -0.43123309370E+01  0.44290220481E+01  0.00000000000E+00 0. -1.
</event>
<event>
 7    1  0.1563903E-008  0.4614232E+02  0.7816164E-02  0.1320468E+00
        -11   -1    0    0    0    0  0.00000000000E+00  0.00000000000E+00  0.45593999997E+02  0.45594000000E+02  0.51100000000E-03 0.  1.
         11   -1    0    0    0    0 -0.00000000000E+00 -0.00000000000E+00 -0.45593999997E+02  0.45594000000E+02  0.51100000000E-03 0. -1.
    9900012    2    1    2    0    0  0.27867436134E+02  0.25393157306E+02 -0.24651714780E+02  0.46142317896E+02  0.10000001230E+02 0.  0.
        -12    1    1    2    0    0 -0.27867436134E+02 -0.25393157306E+02  0.24651714780E+02  0.45045682104E+02  0.00000000000E+00 0.  1.
         11    1    3    3    0    0  0.93398451607E+01  0.53708145516E+01 -0.10937170133E+02  0.15352525765E+02  0.51100000000E-03 0. -1.
        -11    1    3    3    0    0  0.16547447088E+02  0.15737999611E+02 -0.11042565595E+02  0.25366136719E+02  0.51100000000E-03 0.  1.
         12    1    3    3    0    0  0.19801438852E+01  0.42843431433E+01 -0.26719790520E+01  0.54236554121E+01  0.00000000000E+00 0. -1.
</event>
<event>
 7    1  0.1563903E-008  0.4614232E+02  0.7816164E-02  0.1320468E+00
        -11   -1    0    0    0    0  0.00000000000E+00  0.00000000000E+00  0.45593999997E+02  0.45594000000E+02  0.51100000000E-03 0. -1.
         11   -1    0    0    0    0 -0.00000000000E+00 -0.00000000000E+00 -0.45593999997E+02  0.45594000000E+02  0.51100000000E-03 0.  1.
    9900012    2    1    2    0    0  0.14090319916E+02 -0.41935604756E+02 -0.84841947921E+01  0.46142316269E+02  0.99999863910E+01 0.  0.
        -12    1    1    2    0    0 -0.14090319916E+02  0.41935604756E+02  0.84841947921E+01  0.45045683731E+02  0.00000000000E+00 0.  1.
         11    1    3    3    0    0  0.11631738631E+02 -0.19721861462E+02 -0.35862978937E+01  0.23175648771E+02  0.51100000000E-03 0. -1.
        -11    1    3    3    0    0  0.82908832470E+00 -0.13313941105E+02 -0.21579503110E+01  0.13513147857E+02  0.51100000000E-03 0.  1.
         12    1    3    3    0    0  0.16294929610E+01 -0.88998021882E+01 -0.27399465874E+01  0.94535196409E+01  0.00000000000E+00 0. -1.
</event>
<event>
 7    1  0.1563903E-008  0.4614232E+02  0.7816164E-02  0.1320468E+00
        -11   -1    0    0    0    0  0.00000000000E+00  0.00000000000E+00  0.45593999997E+02  0.45594000000E+02  0.51100000000E-03 0.  1.
         11   -1    0    0    0    0 -0.00000000000E+00 -0.00000000000E+00 -0.45593999997E+02  0.45594000000E+02  0.51100000000E-03 0. -1.
    9900012    2    1    2    0    0  0.25340251676E+02  0.24508233045E+02 -0.28041605319E+02  0.46142317955E+02  0.10000001770E+02 0.  0.
        -12    1    1    2    0    0 -0.25340251676E+02 -0.24508233045E+02  0.28041605319E+02  0.45045682045E+02  0.00000000000E+00 0.  1.
         11    1    3    3    0    0  0.10074705212E+02  0.16526858237E+02 -0.14003500453E+02  0.23890055536E+02  0.51100000000E-03 0. -1.
        -11    1    3    3    0    0  0.58225500733E+01  0.35457513980E+01 -0.60087787180E+01  0.90873463825E+01  0.51100000000E-03 0.  1.
         12    1    3    3    0    0  0.94429963909E+01  0.44356234103E+01 -0.80293261479E+01  0.13164916037E+02  0.00000000000E+00 0. -1.
</event>
<event>
 7    1  0.1563903E-008  0.4614232E+02  0.7816164E-02  0.1320468E+00
        -11   -1    0    0    0    0  0.00000000000E+00  0.00000000000E+00  0.45593999997E+02  0.45594000000E+02  0.51100000000E-03 0. -1.
         11   -1    0    0    0    0 -0.00000000000E+00 -0.00000000000E+00 -0.45593999997E+02  0.45594000000E+02  0.51100000000E-03 0.  1.
    9900012    2    1    2    0    0  0.14578012514E+02  0.10769006404E+02  0.41238617538E+02  0.46142317363E+02  0.99999963685E+01 0.  0.
        -12    1    1    2    0    0 -0.14578012514E+02 -0.10769006404E+02 -0.41238617538E+02  0.45045682637E+02  0.00000000000E+00 0.  1.
         11    1    3    3    0    0  0.43123542007E+01 -0.11270950035E+01  0.13571041902E+02  0.14284254284E+02  0.51100000000E-03 0. -1.
        -11    1    3    3    0    0  0.39734667807E+01  0.53003032366E+01  0.10363225834E+02  0.12299516356E+02  0.51100000000E-03 0.  1.
         12    1    3    3    0    0  0.62921915331E+01  0.65957981705E+01  0.17304349803E+02  0.19558546722E+02  0.00000000000E+00 0. -1.
</event>
<event>
 7    1  0.1563903E-008  0.4614232E+02  0.7816164E-02  0.1320468E+00
        -11   -1    0    0    0    0  0.00000000000E+00  0.00000000000E+00  0.45593999997E+02  0.45594000000E+02  0.51100000000E-03 0.  1.
         11   -1    0    0    0    0 -0.00000000000E+00 -0.00000000000E+00 -0.45593999997E+02  0.45594000000E+02  0.51100000000E-03 0. -1.
    9900012    2    1    2    0    0  0.17437469004E+02  0.12499511288E+02 -0.39608211635E+02  0.46142317225E+02  0.99999951158E+01 0.  0.
        -12    1    1    2    0    0 -0.17437469004E+02 -0.12499511288E+02  0.39608211635E+02  0.45045682775E+02  0.00000000000E+00 0.  1.
         11    1    3    3    0    0  0.79477506173E+01  0.26008161215E+00 -0.15567561079E+02  0.17480942210E+02  0.51100000000E-03 0. -1.
        -11    1    3    3    0    0  0.72649148156E+01  0.10007717095E+02 -0.20300724563E+02  0.23770839421E+02  0.51100000000E-03 0.  1.
         12    1    3    3    0    0  0.22248035714E+01  0.22317125811E+01 -0.37399259928E+01  0.48905355951E+01  0.00000000000E+00 0. -1.
</event>
<event>
 7    1  0.1563903E-008  0.4614232E+02  0.7816164E-02  0.1320468E+00
        -11   -1    0    0    0    0  0.00000000000E+00  0.00000000000E+00  0.45593999997E+02  0.45594000000E+02  0.51100000000E-03 0.  1.
         11   -1    0    0    0    0 -0.00000000000E+00 -0.00000000000E+00 -0.45593999997E+02  0.45594000000E+02  0.51100000000E-03 0. -1.
    9900012    2    1    2    0    0 -0.37270495290E+02  0.24704538695E+02 -0.54506484805E+01  0.46142316298E+02  0.99999866565E+01 0.  0.
        -12    1    1    2    0    0  0.37270495290E+02 -0.24704538695E+02  0.54506484805E+01  0.45045683702E+02  0.00000000000E+00 0.  1.
         11    1    3    3    0    0 -0.91974186174E+01  0.60532379392E+01 -0.55433018963E+01  0.12327302825E+02  0.51100000000E-03 0. -1.
        -11    1    3    3    0    0 -0.91339750901E+01  0.46040769548E+01  0.32550757613E+00  0.10233913279E+02  0.51100000000E-03 0.  1.
         12    1    3    3    0    0 -0.18939101583E+02  0.14047223801E+02 -0.23285416038E+00  0.23581100194E+02  0.00000000000E+00 0. -1.
</event>
<event>
 7    1  0.1563903E-008  0.4614232E+02  0.7816164E-02  0.1320468E+00
        -11   -1    0    0    0    0  0.00000000000E+00  0.00000000000E+00  0.45593999997E+02  0.45594000000E+02  0.51100000000E-03 0.  1.
         11   -1    0    0    0    0 -0.00000000000E+00 -0.00000000000E+00 -0.45593999997E+02  0.45594000000E+02  0.51100000000E-03 0. -1.
    9900012    2    1    2    0    0 -0.27507702363E+02  0.29266592252E+02 -0.20393774962E+02  0.46142321311E+02  0.10000032368E+02 0.  0.
        -12    1    1    2    0    0  0.27507702363E+02 -0.29266592252E+02  0.20393774962E+02  0.45045678689E+02  0.00000000000E+00 0.  1.
         11    1    3    3    0    0 -0.25445747960E+02  0.27853495272E+02 -0.17697634937E+02  0.41671447907E+02  0.51100000000E-03 0. -1.
        -11    1    3    3    0    0  0.16181422252E-01  0.47640511737E-01  0.45445141057E+00  0.45722839203E+00  0.51100000000E-03 0.  1.
         12    1    3    3    0    0 -0.20781358259E+01  0.13654564687E+01 -0.31505914363E+01  0.40136450114E+01  0.00000000000E+00 0. -1.
</event>
<event>
 7    1  0.1563903E-008  0.4614231E+02  0.7816164E-02  0.1320468E+00
        -11   -1    0    0    0    0  0.00000000000E+00  0.00000000000E+00  0.45593999997E+02  0.45594000000E+02  0.51100000000E-03 0.  1.
         11   -1    0    0    0    0 -0.00000000000E+00 -0.00000000000E+00 -0.45593999997E+02  0.45594000000E+02  0.51100000000E-03 0. -1.
    9900012    2    1    2    0    0 -0.12438654813E+02  0.30176849954E+02 -0.31044348219E+02  0.46142312492E+02  0.99999519531E+01 0.  0.
        -12    1    1    2    0    0  0.12438654813E+02 -0.30176849954E+02  0.31044348219E+02  0.45045687508E+02  0.00000000000E+00 0.  1.
         11    1    3    3    0    0 -0.10505060760E+02  0.21407438339E+02 -0.18368339805E+02  0.30100342611E+02  0.51100000000E-03 0. -1.
        -11    1    3    3    0    0 -0.16943683142E+01  0.50651056047E+01 -0.10390306124E+02  0.11682664096E+02  0.51100000000E-03 0.  1.
         12    1    3    3    0    0 -0.23922573835E+00  0.37043060103E+01 -0.22857022899E+01  0.43593057853E+01  0.00000000000E+00 0. -1.
</event>
<event>
 7    1  0.1563903E-008  0.4614232E+02  0.7816164E-02  0.1320468E+00
        -11   -1    0    0    0    0  0.00000000000E+00  0.00000000000E+00  0.45593999997E+02  0.45594000000E+02  0.51100000000E-03 0.  1.
         11   -1    0    0    0    0 -0.00000000000E+00 -0.00000000000E+00 -0.45593999997E+02  0.45594000000E+02  0.51100000000E-03 0. -1.
    9900012    2    1    2    0    0 -0.25692930817E+02  0.89562035039E+01 -0.35899488185E+02  0.46142317331E+02  0.99999960752E+01 0.  0.
        -12    1    1    2    0    0  0.25692930817E+02 -0.89562035039E+01  0.35899488185E+02  0.45045682669E+02  0.00000000000E+00 0.  1.
         11    1    3    3    0    0 -0.23526725210E+02  0.78659197883E+01 -0.29639676645E+02  0.38650872242E+02  0.51100000000E-03 0. -1.
        -11    1    3    3    0    0 -0.20429350567E+00 -0.10907612151E+01 -0.23926863028E+01  0.26375071316E+01  0.51100000000E-03 0.  1.
         12    1    3    3    0    0 -0.19619121015E+01  0.21810449307E+01 -0.38671252379E+01  0.48539379569E+01  0.00000000000E+00 0. -1.
</event>
<event>
 7    1  0.1563903E-008  0.4614232E+02  0.7816164E-02  0.1320468E+00
        -11   -1    0    0    0    0  0.00000000000E+00  0.00000000000E+00  0.45593999997E+02  0.45594000000E+02  0.51100000000E-03 0.  1.
         11   -1    0    0    0    0 -0.00000000000E+00 -0.00000000000E+00 -0.45593999997E+02  0.45594000000E+02  0.51100000000E-03 0. -1.
    9900012    2    1    2    0    0  0.27703257157E+02  0.27381571034E+02 -0.22625043363E+02  0.46142317892E+02  0.10000001193E+02 0.  0.
        -12    1    1    2    0    0 -0.27703257157E+02 -0.27381571034E+02  0.22625043363E+02  0.45045682108E+02  0.00000000000E+00 0.  1.
         11    1    3    3    0    0  0.13653310657E+02  0.18409876204E+02 -0.12394364771E+02  0.26056797810E+02  0.51100000000E-03 0. -1.
        -11    1    3    3    0    0  0.47514323988E+01  0.16810140795E+01 -0.52047827639E+01  0.72451143577E+01  0.51100000000E-03 0.  1.
         12    1    3    3    0    0  0.92985141014E+01  0.72906807505E+01 -0.50258958277E+01  0.12840405725E+02  0.00000000000E+00 0. -1.
</event>
<event>
 7    1  0.1563903E-008  0.4614232E+02  0.7816164E-02  0.1320468E+00
        -11   -1    0    0    0    0  0.00000000000E+00  0.00000000000E+00  0.45593999997E+02  0.45594000000E+02  0.51100000000E-03 0.  1.
         11   -1    0    0    0    0 -0.00000000000E+00 -0.00000000000E+00 -0.45593999997E+02  0.45594000000E+02  0.51100000000E-03 0. -1.
    9900012    2    1    2    0    0  0.80071198762E+01  0.37257662729E+02 -0.24018036349E+02  0.46142317956E+02  0.10000001775E+02 0.  0.
        -12    1    1    2    0    0 -0.80071198762E+01 -0.37257662729E+02  0.24018036349E+02  0.45045682044E+02  0.00000000000E+00 0.  1.
         11    1    3    3    0    0  0.66813302129E+01  0.25558559412E+02 -0.15244878636E+02  0.30500597658E+02  0.51100000000E-03 0. -1.
        -11    1    3    3    0    0  0.17071186918E+01  0.64444895729E+01 -0.78399372275E+01  0.10291273783E+02  0.51100000000E-03 0.  1.
        -12    1    3    3    0    0 -0.38132902848E+00  0.52546137445E+01 -0.93322048580E+00  0.53504465148E+01  0.00000000000E+00 0.  1.
</event>
<event>
 7    1  0.1563903E-008  0.4614231E+02  0.7816164E-02  0.1320468E+00
        -11   -1    0    0    0    0  0.00000000000E+00  0.00000000000E+00  0.45593999997E+02  0.45594000000E+02  0.51100000000E-03 0. -1.
         11   -1    0    0    0    0 -0.00000000000E+00 -0.00000000000E+00 -0.45593999997E+02  0.45594000000E+02  0.51100000000E-03 0.  1.
    9900012    2    1    2    0    0 -0.17010126275E+02  0.14717932463E+02  0.39027582587E+02  0.46142310590E+02  0.99999346075E+01 0.  0.
        -12    1    1    2    0    0  0.17010126275E+02 -0.14717932463E+02 -0.39027582587E+02  0.45045689410E+02  0.00000000000E+00 0.  1.
         11    1    3    3    0    0 -0.26012354151E+01  0.53738981229E+01  0.17601512458E+02  0.18586512523E+02  0.51100000000E-03 0.  1.
        -11    1    3    3    0    0 -0.92976520947E+01  0.47074105342E+01  0.13220292700E+02  0.16833959361E+02  0.51100000000E-03 0. -1.
        -12    1    3    3    0    0 -0.51112387651E+01  0.46366238056E+01  0.82057774287E+01  0.10721838706E+02  0.00000000000E+00 0.  1.
</event>
<event>
 7    1  0.1563903E-008  0.4614232E+02  0.7816164E-02  0.1320468E+00
        -11   -1    0    0    0    0  0.00000000000E+00  0.00000000000E+00  0.45593999997E+02  0.45594000000E+02  0.51100000000E-03 0.  1.
         11   -1    0    0    0    0 -0.00000000000E+00 -0.00000000000E+00 -0.45593999997E+02  0.45594000000E+02  0.51100000000E-03 0. -1.
    9900012    2    1    2    0    0  0.44225698437E+02  0.31945440353E+01  0.79369721059E+01  0.46142322737E+02  0.10000045377E+02 0.  0.
        -12    1    1    2    0    0 -0.44225698437E+02 -0.31945440353E+01 -0.79369721059E+01  0.45045677263E+02  0.00000000000E+00 0.  1.
         11    1    3    3    0    0  0.22310023159E+01 -0.14978028750E+01  0.12451384038E+01  0.29616135284E+01  0.51100000000E-03 0. -1.
        -11    1    3    3    0    0  0.35102172023E+02  0.29758335107E+01  0.35260536819E+01  0.35404111635E+02  0.51100000000E-03 0.  1.
        -12    1    3    3    0    0  0.68925240984E+01  0.17165133996E+01  0.31657800202E+01  0.77765975744E+01  0.00000000000E+00 0.  1.
</event>
<event>
 7    1  0.1563903E-008  0.4614232E+02  0.7816164E-02  0.1320468E+00
        -11   -1    0    0    0    0  0.00000000000E+00  0.00000000000E+00  0.45593999997E+02  0.45594000000E+02  0.51100000000E-03 0.  1.
         11   -1    0    0    0    0 -0.00000000000E+00 -0.00000000000E+00 -0.45593999997E+02  0.45594000000E+02  0.51100000000E-03 0. -1.
    9900012    2    1    2    0    0 -0.21718938380E+02  0.61814654340E+01 -0.38976797193E+02  0.46142317424E+02  0.99999969271E+01 0.  0.
        -12    1    1    2    0    0  0.21718938380E+02 -0.61814654340E+01  0.38976797193E+02  0.45045682576E+02  0.00000000000E+00 0.  1.
         11    1    3    3    0    0 -0.11464099600E+02  0.22866581370E-01 -0.24793710121E+02  0.27315822601E+02  0.51100000000E-03 0. -1.
        -11    1    3    3    0    0 -0.82326083130E+01  0.59058734646E+01 -0.10340454511E+02  0.14476884360E+02  0.51100000000E-03 0.  1.
        -12    1    3    3    0    0 -0.20222304670E+01  0.25272538807E+00 -0.38426325611E+01  0.43496104633E+01  0.00000000000E+00 0.  1.
</event>
<event>
 7    1  0.1563903E-008  0.4614232E+02  0.7816164E-02  0.1320468E+00
        -11   -1    0    0    0    0  0.00000000000E+00  0.00000000000E+00  0.45593999997E+02  0.45594000000E+02  0.51100000000E-03 0.  1.
         11   -1    0    0    0    0 -0.00000000000E+00 -0.00000000000E+00 -0.45593999997E+02  0.45594000000E+02  0.51100000000E-03 0. -1.
    9900012    2    1    2    0    0  0.53688694167E+01  0.40196953974E+02 -0.19608509164E+02  0.46142317640E+02  0.99999988996E+01 0.  0.
        -12    1    1    2    0    0 -0.53688694167E+01 -0.40196953974E+02  0.19608509164E+02  0.45045682360E+02  0.00000000000E+00 0.  1.
         11    1    3    3    0    0  0.15751664575E+01  0.48881361064E+01 -0.11355034758E+01  0.52596950832E+01  0.51100000000E-03 0. -1.
        -11    1    3    3    0    0 -0.52456962068E+00  0.19904803642E+00 -0.15897261632E+01  0.16858300457E+01  0.51100000000E-03 0.  1.
        -12    1    3    3    0    0  0.43182725799E+01  0.35109769831E+02 -0.16883279525E+02  0.39196792512E+02  0.00000000000E+00 0.  1.
</event>
<event>
 7    1  0.1563903E-008  0.4614232E+02  0.7816164E-02  0.1320468E+00
        -11   -1    0    0    0    0  0.00000000000E+00  0.00000000000E+00  0.45593999997E+02  0.45594000000E+02  0.51100000000E-03 0.  1.
         11   -1    0    0    0    0 -0.00000000000E+00 -0.00000000000E+00 -0.45593999997E+02  0.45594000000E+02  0.51100000000E-03 0. -1.
    9900012    2    1    2    0    0 -0.10726419538E+02 -0.95661436355E+01 -0.42691289481E+02  0.46142318989E+02  0.10000011199E+02 0.  0.
        -12    1    1    2    0    0  0.10726419538E+02  0.95661436355E+01  0.42691289481E+02  0.45045681011E+02  0.00000000000E+00 0.  1.
         11    1    3    3    0    0 -0.20403110991E+01  0.12887101448E+01 -0.71377039715E+01  0.75346175394E+01  0.51100000000E-03 0. -1.
        -11    1    3    3    0    0 -0.54399126930E+01 -0.23265336099E+01 -0.14605279698E+02  0.15758159920E+02  0.51100000000E-03 0.  1.
         12    1    3    3    0    0 -0.32461957462E+01 -0.85283201703E+01 -0.20948305812E+02  0.22849541530E+02  0.00000000000E+00 0. -1.
</event>
<event>
 7    1  0.1563903E-008  0.4614232E+02  0.7816164E-02  0.1320468E+00
        -11   -1    0    0    0    0  0.00000000000E+00  0.00000000000E+00  0.45593999997E+02  0.45594000000E+02  0.51100000000E-03 0. -1.
         11   -1    0    0    0    0 -0.00000000000E+00 -0.00000000000E+00 -0.45593999997E+02  0.45594000000E+02  0.51100000000E-03 0.  1.
    9900012    2    1    2    0    0  0.39834602767E+02  0.18546636267E+02 -0.99166620290E+01  0.46142317852E+02  0.10000000827E+02 0.  0.
        -12    1    1    2    0    0 -0.39834602767E+02 -0.18546636267E+02  0.99166620290E+01  0.45045682148E+02  0.00000000000E+00 0.  1.
         11    1    3    3    0    0  0.35046851688E+02  0.16659683800E+02 -0.61987949113E+01  0.39296971081E+02  0.51100000000E-03 0. -1.
        -11    1    3    3    0    0  0.58662189841E+00  0.12943234980E+01 -0.14674117637E+01  0.20427178255E+01  0.51100000000E-03 0.  1.
        -12    1    3    3    0    0  0.42011291804E+01  0.59262896953E+00 -0.22504553539E+01  0.48026289453E+01  0.00000000000E+00 0.  1.
</event>
<event>
 7    1  0.1563903E-008  0.4614232E+02  0.7816164E-02  0.1320468E+00
        -11   -1    0    0    0    0  0.00000000000E+00  0.00000000000E+00  0.45593999997E+02  0.45594000000E+02  0.51100000000E-03 0. -1.
         11   -1    0    0    0    0 -0.00000000000E+00 -0.00000000000E+00 -0.45593999997E+02  0.45594000000E+02  0.51100000000E-03 0.  1.
    9900012    2    1    2    0    0  0.32888331819E+01  0.11553041383E+02  0.43414563052E+02  0.46142317922E+02  0.10000001466E+02 0.  0.
        -12    1    1    2    0    0 -0.32888331819E+01 -0.11553041383E+02 -0.43414563052E+02  0.45045682078E+02  0.00000000000E+00 0.  1.
         11    1    3    3    0    0  0.21617190144E+01  0.24305577079E+01  0.13954642649E+02  0.14328736566E+02  0.51100000000E-03 0. -1.
        -11    1    3    3    0    0  0.27426346325E+01  0.24040173889E+01  0.18508433604E+02  0.18864343590E+02  0.51100000000E-03 0.  1.
        -12    1    3    3    0    0 -0.16155204649E+01  0.67184662861E+01  0.10951486799E+02  0.12949237766E+02  0.00000000000E+00 0.  1.
</event>
<event>
 7    1  0.1563903E-008  0.4614232E+02  0.7816164E-02  0.1320468E+00
        -11   -1    0    0    0    0  0.00000000000E+00  0.00000000000E+00  0.45593999997E+02  0.45594000000E+02  0.51100000000E-03 0.  1.
         11   -1    0    0    0    0 -0.00000000000E+00 -0.00000000000E+00 -0.45593999997E+02  0.45594000000E+02  0.51100000000E-03 0. -1.
    9900012    2    1    2    0    0 -0.23833479028E+02  0.34426645278E+02  0.16609783071E+02  0.46142317396E+02  0.99999966679E+01 0.  0.
        -12    1    1    2    0    0  0.23833479028E+02 -0.34426645278E+02 -0.16609783071E+02  0.45045682604E+02  0.00000000000E+00 0.  1.
         11    1    3    3    0    0 -0.12095926287E+02  0.13052606990E+02  0.63722054035E+01  0.18902036503E+02  0.51100000000E-03 0. -1.
        -11    1    3    3    0    0  0.54359759853E+00  0.30840934233E+01  0.20217622597E+01  0.37275532845E+01  0.51100000000E-03 0.  1.
        -12    1    3    3    0    0 -0.12281150339E+02  0.18289944864E+02  0.82158154076E+01  0.23512727608E+02  0.00000000000E+00 0.  1.
</event>
<event>
 7    1  0.1563903E-008  0.4614232E+02  0.7816164E-02  0.1320468E+00
        -11   -1    0    0    0    0  0.00000000000E+00  0.00000000000E+00  0.45593999997E+02  0.45594000000E+02  0.51100000000E-03 0. -1.
         11   -1    0    0    0    0 -0.00000000000E+00 -0.00000000000E+00 -0.45593999997E+02  0.45594000000E+02  0.51100000000E-03 0.  1.
    9900012    2    1    2    0    0 -0.27444001390E+02  0.12392391087E+02  0.33501771068E+02  0.46142320587E+02  0.10000025767E+02 0.  0.
        -12    1    1    2    0    0  0.27444001390E+02 -0.12392391087E+02 -0.33501771068E+02  0.45045679413E+02  0.00000000000E+00 0.  1.
         11    1    3    3    0    0 -0.17950358133E+02  0.11872840350E+02  0.23194955893E+02  0.31641518204E+02  0.51100000000E-03 0. -1.
        -11    1    3    3    0    0 -0.75837369493E+01  0.36623793982E+00  0.10007152937E+02  0.12561461162E+02  0.51100000000E-03 0.  1.
         12    1    3    3    0    0 -0.19099063076E+01  0.15331279713E+00  0.29966223701E+00  0.19393412216E+01  0.00000000000E+00 0. -1.
</event>
<event>
 7    1  0.1563903E-008  0.4614232E+02  0.7816164E-02  0.1320468E+00
        -11   -1    0    0    0    0  0.00000000000E+00  0.00000000000E+00  0.45593999997E+02  0.45594000000E+02  0.51100000000E-03 0.  1.
         11   -1    0    0    0    0 -0.00000000000E+00 -0.00000000000E+00 -0.45593999997E+02  0.45594000000E+02  0.51100000000E-03 0. -1.
    9900012    2    1    2    0    0 -0.32428196029E+02  0.33151323105E+01 -0.31089153446E+02  0.46142318055E+02  0.10000002679E+02 0.  0.
        -12    1    1    2    0    0  0.32428196029E+02 -0.33151323105E+01  0.31089153446E+02  0.45045681945E+02  0.00000000000E+00 0.  1.
         11    1    3    3    0    0 -0.63420104435E+01 -0.86294176584E+00 -0.92546295295E+01  0.11252285677E+02  0.51100000000E-03 0. -1.
        -11    1    3    3    0    0 -0.23863730297E+02  0.18606445658E+01 -0.18422509318E+02  0.30204775644E+02  0.51100000000E-03 0.  1.
        -12    1    3    3    0    0 -0.22224552886E+01  0.23174295105E+01 -0.34120145988E+01  0.46852567346E+01  0.00000000000E+00 0.  1.
</event>
<event>
 7    1  0.1563903E-008  0.4614232E+02  0.7816164E-02  0.1320468E+00
        -11   -1    0    0    0    0  0.00000000000E+00  0.00000000000E+00  0.45593999997E+02  0.45594000000E+02  0.51100000000E-03 0.  1.
         11   -1    0    0    0    0 -0.00000000000E+00 -0.00000000000E+00 -0.45593999997E+02  0.45594000000E+02  0.51100000000E-03 0. -1.
    9900012    2    1    2    0    0  0.30693941423E+02 -0.19758310074E+02 -0.26393268016E+02  0.46142318146E+02  0.10000003514E+02 0.  0.
        -12    1    1    2    0    0 -0.30693941423E+02  0.19758310074E+02  0.26393268016E+02  0.45045681854E+02  0.00000000000E+00 0.  1.
         11    1    3    3    0    0  0.15450466579E+02 -0.15417197185E+02 -0.16981989757E+02  0.27654924750E+02  0.51100000000E-03 0. -1.
        -11    1    3    3    0    0  0.79275354416E+01 -0.16192429839E+01 -0.43815686758E+01  0.92014080629E+01  0.51100000000E-03 0.  1.
         12    1    3    3    0    0  0.73159394029E+01 -0.27218699052E+01 -0.50297095829E+01  0.92859853336E+01  0.00000000000E+00 0. -1.
</event>
<event>
 7    1  0.1563903E-008  0.4614232E+02  0.7816164E-02  0.1320468E+00
        -11   -1    0    0    0    0  0.00000000000E+00  0.00000000000E+00  0.45593999997E+02  0.45594000000E+02  0.51100000000E-03 0.  1.
         11   -1    0    0    0    0 -0.00000000000E+00 -0.00000000000E+00 -0.45593999997E+02  0.45594000000E+02  0.51100000000E-03 0. -1.
    9900012    2    1    2    0    0 -0.37604555933E+02  0.10384312542E+02 -0.22520589462E+02  0.46142317370E+02  0.99999964293E+01 0.  0.
        -12    1    1    2    0    0  0.37604555933E+02 -0.10384312542E+02  0.22520589462E+02  0.45045682630E+02  0.00000000000E+00 0.  1.
         11    1    3    3    0    0 -0.24534882206E+02  0.64828602866E+01 -0.94319649466E+01  0.27073047212E+02  0.51100000000E-03 0. -1.
        -11    1    3    3    0    0 -0.94457876014E+01  0.38202540219E+01 -0.10372069133E+02  0.14539500080E+02  0.51100000000E-03 0.  1.
         12    1    3    3    0    0 -0.36238861261E+01  0.81198233484E-01 -0.27165553828E+01  0.45297700776E+01  0.00000000000E+00 0. -1.
</event>
<event>
 7    1  0.1563903E-008  0.4614232E+02  0.7816164E-02  0.1320468E+00
        -11   -1    0    0    0    0  0.00000000000E+00  0.00000000000E+00  0.45593999997E+02  0.45594000000E+02  0.51100000000E-03 0.  1.
         11   -1    0    0    0    0 -0.00000000000E+00 -0.00000000000E+00 -0.45593999997E+02  0.45594000000E+02  0.51100000000E-03 0. -1.
    9900012    2    1    2    0    0 -0.22584289822E+02 -0.14564635475E+01 -0.38947940591E+02  0.46142317531E+02  0.99999979051E+01 0.  0.
        -12    1    1    2    0    0  0.22584289822E+02  0.14564635475E+01  0.38947940591E+02  0.45045682469E+02  0.00000000000E+00 0.  1.
         11    1    3    3    0    0 -0.45210444274E+01  0.17638038267E+01 -0.57438521863E+01  0.75194870073E+01  0.51100000000E-03 0. -1.
        -11    1    3    3    0    0 -0.87976145609E+01 -0.59377279317E+00 -0.91250503155E+01  0.12689252603E+02  0.51100000000E-03 0.  1.
         12    1    3    3    0    0 -0.92656308332E+01 -0.26264945810E+01 -0.24079038089E+02  0.25933577921E+02  0.00000000000E+00 0. -1.
</event>
<event>
 7    1  0.1563903E-008  0.4614232E+02  0.7816164E-02  0.1320468E+00
        -11   -1    0    0    0    0  0.00000000000E+00  0.00000000000E+00  0.45593999997E+02  0.45594000000E+02  0.51100000000E-03 0.  1.
         11   -1    0    0    0    0 -0.00000000000E+00 -0.00000000000E+00 -0.45593999997E+02  0.45594000000E+02  0.51100000000E-03 0. -1.
    9900012    2    1    2    0    0  0.23763746589E+02  0.37759714484E+02 -0.62130367395E+01  0.46142317461E+02  0.99999972676E+01 0.  0.
        -12    1    1    2    0    0 -0.23763746589E+02 -0.37759714484E+02  0.62130367395E+01  0.45045682539E+02  0.00000000000E+00 0.  1.
         11    1    3    3    0    0  0.88370388301E+01  0.16723837980E+02 -0.59065758576E+01  0.19815843426E+02  0.51100000000E-03 0. -1.
        -11    1    3    3    0    0  0.44586057393E+01  0.80420937639E+01  0.21960601860E+01  0.94539472099E+01  0.51100000000E-03 0.  1.
        -12    1    3    3    0    0  0.10468102019E+02  0.12993782740E+02 -0.25025210679E+01  0.16872526825E+02  0.00000000000E+00 0.  1.
</event>
<event>
 7    1  0.1563903E-008  0.4614231E+02  0.7816164E-02  0.1320468E+00
        -11   -1    0    0    0    0  0.00000000000E+00  0.00000000000E+00  0.45593999997E+02  0.45594000000E+02  0.51100000000E-03 0. -1.
         11   -1    0    0    0    0 -0.00000000000E+00 -0.00000000000E+00 -0.45593999997E+02  0.45594000000E+02  0.51100000000E-03 0.  1.
    9900012    2    1    2    0    0  0.73312581027E+01  0.44436612551E+02 -0.86826905881E+00  0.46142314618E+02  0.99999713369E+01 0.  0.
        -12    1    1    2    0    0 -0.73312581027E+01 -0.44436612551E+02  0.86826905881E+00  0.45045685382E+02  0.00000000000E+00 0.  1.
         11    1    3    3    0    0  0.19207858764E+01  0.19941359384E+02  0.31575585048E+01  0.20280961724E+02  0.51100000000E-03 0. -1.
        -11    1    3    3    0    0  0.34123568462E+01  0.20255082206E+02 -0.48418846847E+01  0.21103468483E+02  0.51100000000E-03 0.  1.
        -12    1    3    3    0    0  0.19981153801E+01  0.42401709607E+01  0.81605712112E+00  0.47578844115E+01  0.00000000000E+00 0.  1.
</event>
<event>
 7    1  0.1563903E-008  0.4614232E+02  0.7816164E-02  0.1320468E+00
        -11   -1    0    0    0    0  0.00000000000E+00  0.00000000000E+00  0.45593999997E+02  0.45594000000E+02  0.51100000000E-03 0.  1.
         11   -1    0    0    0    0 -0.00000000000E+00 -0.00000000000E+00 -0.45593999997E+02  0.45594000000E+02  0.51100000000E-03 0. -1.
    9900012    2    1    2    0    0  0.11688392117E+02  0.26777255984E+02 -0.34285179349E+02  0.46142317951E+02  0.10000001728E+02 0.  0.
        -12    1    1    2    0    0 -0.11688392117E+02 -0.26777255984E+02  0.34285179349E+02  0.45045682049E+02  0.00000000000E+00 0.  1.
         11    1    3    3    0    0  0.11159201773E+02  0.16487554132E+02 -0.24959101980E+02  0.31926853860E+02  0.51100000000E-03 0. -1.
        -11    1    3    3    0    0 -0.56816504237E-01  0.26615640241E+01 -0.43139290274E+01  0.50692341714E+01  0.51100000000E-03 0.  1.
         12    1    3    3    0    0  0.58600684848E+00  0.76281378275E+01 -0.50121483412E+01  0.91462299192E+01  0.00000000000E+00 0. -1.
</event>
<event>
 7    1  0.1563903E-008  0.4614232E+02  0.7816164E-02  0.1320468E+00
        -11   -1    0    0    0    0  0.00000000000E+00  0.00000000000E+00  0.45593999997E+02  0.45594000000E+02  0.51100000000E-03 0.  1.
         11   -1    0    0    0    0 -0.00000000000E+00 -0.00000000000E+00 -0.45593999997E+02  0.45594000000E+02  0.51100000000E-03 0. -1.
    9900012    2    1    2    0    0  0.33567806964E+02 -0.27550370845E+02 -0.11970507983E+02  0.46142315862E+02  0.99999826833E+01 0.  0.
        -12    1    1    2    0    0 -0.33567806964E+02  0.27550370845E+02  0.11970507983E+02  0.45045684138E+02  0.00000000000E+00 0.  1.
         11    1    3    3    0    0  0.26137789494E+02 -0.22550930892E+02 -0.67827009769E+01  0.35181437670E+02  0.51100000000E-03 0. -1.
        -11    1    3    3    0    0  0.41936356053E+01 -0.29415051487E+01 -0.49419861853E+01  0.71177426089E+01  0.51100000000E-03 0.  1.
        -12    1    3    3    0    0  0.32363818650E+01 -0.20579348038E+01 -0.24582082077E+00  0.38431355829E+01  0.00000000000E+00 0.  1.
</event>
<event>
 7    1  0.1563903E-008  0.4614232E+02  0.7816164E-02  0.1320468E+00
        -11   -1    0    0    0    0  0.00000000000E+00  0.00000000000E+00  0.45593999997E+02  0.45594000000E+02  0.51100000000E-03 0.  1.
         11   -1    0    0    0    0 -0.00000000000E+00 -0.00000000000E+00 -0.45593999997E+02  0.45594000000E+02  0.51100000000E-03 0. -1.
    9900012    2    1    2    0    0 -0.35373470642E+02 -0.22261283215E+02  0.16800775184E+02  0.46142320935E+02  0.10000028945E+02 0.  0.
        -12    1    1    2    0    0  0.35373470642E+02  0.22261283215E+02 -0.16800775184E+02  0.45045679065E+02  0.00000000000E+00 0.  1.
         11    1    3    3    0    0 -0.51611169900E+00 -0.15093899185E+01 -0.92881063116E+00  0.18458923754E+01  0.51100000000E-03 0. -1.
        -11    1    3    3    0    0 -0.29554214401E+02 -0.17728225281E+02  0.14494210991E+02  0.37387480699E+02  0.51100000000E-03 0.  1.
         12    1    3    3    0    0 -0.53031445422E+01 -0.30236680150E+01  0.32353748235E+01  0.69089478612E+01  0.00000000000E+00 0. -1.
</event>
<event>
 7    1  0.1563903E-008  0.4614232E+02  0.7816164E-02  0.1320468E+00
        -11   -1    0    0    0    0  0.00000000000E+00  0.00000000000E+00  0.45593999997E+02  0.45594000000E+02  0.51100000000E-03 0.  1.
         11   -1    0    0    0    0 -0.00000000000E+00 -0.00000000000E+00 -0.45593999997E+02  0.45594000000E+02  0.51100000000E-03 0. -1.
    9900012    2    1    2    0    0  0.87892602666E+01  0.34612999079E+02 -0.27455457097E+02  0.46142324006E+02  0.10000056950E+02 0.  0.
        -12    1    1    2    0    0 -0.87892602666E+01 -0.34612999079E+02  0.27455457097E+02  0.45045675994E+02  0.00000000000E+00 0.  1.
         11    1    3    3    0    0  0.36143349340E+01  0.59325176060E+01 -0.60268373166E+01  0.91967902261E+01  0.51100000000E-03 0. -1.
        -11    1    3    3    0    0  0.67585127698E+01  0.21084464098E+02 -0.17648820342E+02  0.28314536564E+02  0.51100000000E-03 0.  1.
        -12    1    3    3    0    0 -0.15835874371E+01  0.75960173756E+01 -0.37797994389E+01  0.86309972159E+01  0.00000000000E+00 0.  1.
</event>
<event>
 7    1  0.1563903E-008  0.4614232E+02  0.7816164E-02  0.1320468E+00
        -11   -1    0    0    0    0  0.00000000000E+00  0.00000000000E+00  0.45593999997E+02  0.45594000000E+02  0.51100000000E-03 0. -1.
         11   -1    0    0    0    0 -0.00000000000E+00 -0.00000000000E+00 -0.45593999997E+02  0.45594000000E+02  0.51100000000E-03 0.  1.
    9900012    2    1    2    0    0 -0.59790225508E+01  0.31210481468E+02  0.31926017539E+02  0.46142318075E+02  0.10000002865E+02 0.  0.
        -12    1    1    2    0    0  0.59790225508E+01 -0.31210481468E+02 -0.31926017539E+02  0.45045681925E+02  0.00000000000E+00 0.  1.
         11    1    3    3    0    0 -0.28338935681E+01  0.11330463179E+02  0.12889136945E+02  0.17393682762E+02  0.51100000000E-03 0. -1.
        -11    1    3    3    0    0 -0.56604920842E+01  0.13506535366E+02  0.13829055739E+02  0.20142255364E+02  0.51100000000E-03 0.  1.
        -12    1    3    3    0    0  0.25153631015E+01  0.63734829233E+01  0.52078248553E+01  0.86063799491E+01  0.00000000000E+00 0.  1.
</event>
<event>
 7    1  0.1563903E-008  0.4614232E+02  0.7816164E-02  0.1320468E+00
        -11   -1    0    0    0    0  0.00000000000E+00  0.00000000000E+00  0.45593999997E+02  0.45594000000E+02  0.51100000000E-03 0.  1.
         11   -1    0    0    0    0 -0.00000000000E+00 -0.00000000000E+00 -0.45593999997E+02  0.45594000000E+02  0.51100000000E-03 0. -1.
    9900012    2    1    2    0    0  0.17224058173E+02  0.41612334061E+02 -0.92681291584E+00  0.46142317541E+02  0.99999979956E+01 0.  0.
        -12    1    1    2    0    0 -0.17224058173E+02 -0.41612334061E+02  0.92681291584E+00  0.45045682459E+02  0.00000000000E+00 0.  1.
         11    1    3    3    0    0  0.88409894171E+01  0.22437793179E+02 -0.54239020759E+01  0.24719149876E+02  0.51100000000E-03 0. -1.
        -11    1    3    3    0    0  0.60342705861E+01  0.14739827268E+02  0.33670296922E+01  0.16279183597E+02  0.51100000000E-03 0.  1.
         12    1    3    3    0    0  0.23487981698E+01  0.44347136151E+01  0.11300594678E+01  0.51439840680E+01  0.00000000000E+00 0. -1.
</event>
<event>
 7    1  0.1563903E-008  0.4614232E+02  0.7816164E-02  0.1320468E+00
        -11   -1    0    0    0    0  0.00000000000E+00  0.00000000000E+00  0.45593999997E+02  0.45594000000E+02  0.51100000000E-03 0.  1.
         11   -1    0    0    0    0 -0.00000000000E+00 -0.00000000000E+00 -0.45593999997E+02  0.45594000000E+02  0.51100000000E-03 0. -1.
    9900012    2    1    2    0    0  0.41241028509E+02  0.14408127586E+02  0.10986219484E+02  0.46142316616E+02  0.99999895572E+01 0.  0.
        -12    1    1    2    0    0 -0.41241028509E+02 -0.14408127586E+02 -0.10986219484E+02  0.45045683384E+02  0.00000000000E+00 0.  1.
         11    1    3    3    0    0  0.34489527593E+02  0.98031431044E+01  0.10079858043E+02  0.37245572445E+02  0.51100000000E-03 0. -1.
        -11    1    3    3    0    0  0.79082380357E+00 -0.41177915080E+00 -0.43366112530E+00  0.99147697403E+00  0.51100000000E-03 0.  1.
         12    1    3    3    0    0  0.59606771124E+01  0.50167636327E+01  0.13400225662E+01  0.79052671974E+01  0.00000000000E+00 0. -1.
</event>
<event>
 7    1  0.1563903E-008  0.4614232E+02  0.7816164E-02  0.1320468E+00
        -11   -1    0    0    0    0  0.00000000000E+00  0.00000000000E+00  0.45593999997E+02  0.45594000000E+02  0.51100000000E-03 0.  1.
         11   -1    0    0    0    0 -0.00000000000E+00 -0.00000000000E+00 -0.45593999997E+02  0.45594000000E+02  0.51100000000E-03 0. -1.
    9900012    2    1    2    0    0 -0.40389094889E+02 -0.51272945885E+01 -0.19275507455E+02  0.46142319593E+02  0.10000016701E+02 0.  0.
        -12    1    1    2    0    0  0.40389094889E+02  0.51272945885E+01  0.19275507455E+02  0.45045680407E+02  0.00000000000E+00 0.  1.
         11    1    3    3    0    0 -0.18930333268E+02 -0.37088127866E+01 -0.11385221488E+02  0.22399466031E+02  0.51100000000E-03 0. -1.
        -11    1    3    3    0    0 -0.16708260228E+02  0.15390234603E+01 -0.54950691187E+01  0.17655886779E+02  0.51100000000E-03 0.  1.
        -12    1    3    3    0    0 -0.47505013928E+01 -0.29575052622E+01 -0.23952168484E+01  0.60869667824E+01  0.00000000000E+00 0.  1.
</event>
<event>
 7    1  0.1563903E-008  0.4614232E+02  0.7816164E-02  0.1320468E+00
        -11   -1    0    0    0    0  0.00000000000E+00  0.00000000000E+00  0.45593999997E+02  0.45594000000E+02  0.51100000000E-03 0. -1.
         11   -1    0    0    0    0 -0.00000000000E+00 -0.00000000000E+00 -0.45593999997E+02  0.45594000000E+02  0.51100000000E-03 0.  1.
    9900012    2    1    2    0    0 -0.36194688294E+02 -0.23546480569E+02  0.12830487603E+02  0.46142316300E+02  0.99999866736E+01 0.  0.
        -12    1    1    2    0    0  0.36194688294E+02  0.23546480569E+02 -0.12830487603E+02  0.45045683700E+02  0.00000000000E+00 0.  1.
         11    1    3    3    0    0 -0.12012472371E+02 -0.78298415959E+01  0.72395176165E+01  0.16062892873E+02  0.51100000000E-03 0. -1.
        -11    1    3    3    0    0 -0.34696960414E+01 -0.50348627582E+01  0.23490423098E+01  0.65503155380E+01  0.51100000000E-03 0.  1.
         12    1    3    3    0    0 -0.20712519882E+02 -0.10681776215E+02  0.32419276764E+01  0.23529107888E+02  0.00000000000E+00 0. -1.
</event>
<event>
 7    1  0.1563903E-008  0.4614232E+02  0.7816164E-02  0.1320468E+00
        -11   -1    0    0    0    0  0.00000000000E+00  0.00000000000E+00  0.45593999997E+02  0.45594000000E+02  0.51100000000E-03 0.  1.
         11   -1    0    0    0    0 -0.00000000000E+00 -0.00000000000E+00 -0.45593999997E+02  0.45594000000E+02  0.51100000000E-03 0. -1.
    9900012    2    1    2    0    0  0.29853429280E+02 -0.32546272175E+02  0.88671553532E+01  0.46142317450E+02  0.99999971668E+01 0.  0.
        -12    1    1    2    0    0 -0.29853429280E+02  0.32546272175E+02 -0.88671553532E+01  0.45045682550E+02  0.00000000000E+00 0.  1.
         11    1    3    3    0    0  0.12149365885E+02 -0.15077897044E+02  0.51459718145E+01  0.20035745478E+02  0.51100000000E-03 0. -1.
        -11    1    3    3    0    0  0.14420304909E+02 -0.96887598681E+01  0.30180531585E+01  0.17633091237E+02  0.51100000000E-03 0.  1.
        -12    1    3    3    0    0  0.32837584861E+01 -0.77796152636E+01  0.70313038017E+00  0.84734807356E+01  0.00000000000E+00 0.  1.
</event>
<event>
 7    1  0.1563903E-008  0.4614232E+02  0.7816164E-02  0.1320468E+00
        -11   -1    0    0    0    0  0.00000000000E+00  0.00000000000E+00  0.45593999997E+02  0.45594000000E+02  0.51100000000E-03 0. -1.
         11   -1    0    0    0    0 -0.00000000000E+00 -0.00000000000E+00 -0.45593999997E+02  0.45594000000E+02  0.51100000000E-03 0.  1.
    9900012    2    1    2    0    0 -0.32142304175E+02 -0.31480805326E+02 -0.22236995799E+01  0.46142315839E+02  0.99999824769E+01 0.  0.
        -12    1    1    2    0    0  0.32142304175E+02  0.31480805326E+02  0.22236995799E+01  0.45045684161E+02  0.00000000000E+00 0.  1.
         11    1    3    3    0    0 -0.11736303480E+02 -0.14526843288E+02 -0.18159603771E+01  0.18763467367E+02  0.51100000000E-03 0. -1.
        -11    1    3    3    0    0  0.40861884520E+00 -0.11127558775E+00 -0.42980516721E+00  0.60339403374E+00  0.51100000000E-03 0.  1.
        -12    1    3    3    0    0 -0.20814619541E+02 -0.16842686450E+02  0.22065964478E-01  0.26775454439E+02  0.00000000000E+00 0.  1.
</event>
<event>
 7    1  0.1563903E-008  0.4614232E+02  0.7816164E-02  0.1320468E+00
        -11   -1    0    0    0    0  0.00000000000E+00  0.00000000000E+00  0.45593999997E+02  0.45594000000E+02  0.51100000000E-03 0. -1.
         11   -1    0    0    0    0 -0.00000000000E+00 -0.00000000000E+00 -0.45593999997E+02  0.45594000000E+02  0.51100000000E-03 0.  1.
    9900012    2    1    2    0    0 -0.21157004845E+02 -0.37515234395E+02  0.13194763912E+02  0.46142318071E+02  0.10000002830E+02 0.  0.
        -12    1    1    2    0    0  0.21157004845E+02  0.37515234395E+02 -0.13194763912E+02  0.45045681929E+02  0.00000000000E+00 0.  1.
         11    1    3    3    0    0 -0.54952854905E+01 -0.99125802355E+01  0.50889283470E+01  0.12423952734E+02  0.51100000000E-03 0. -1.
        -11    1    3    3    0    0 -0.99234099192E+00 -0.43950358853E+01 -0.13120934822E+01  0.46928318364E+01  0.51100000000E-03 0.  1.
        -12    1    3    3    0    0 -0.14669378362E+02 -0.23207618274E+02  0.94179290469E+01  0.29025533501E+02  0.00000000000E+00 0.  1.
</event>
<event>
 7    1  0.1563903E-008  0.4614232E+02  0.7816164E-02  0.1320468E+00
        -11   -1    0    0    0    0  0.00000000000E+00  0.00000000000E+00  0.45593999997E+02  0.45594000000E+02  0.51100000000E-03 0. -1.
         11   -1    0    0    0    0 -0.00000000000E+00 -0.00000000000E+00 -0.45593999997E+02  0.45594000000E+02  0.51100000000E-03 0.  1.
    9900012    2    1    2    0    0 -0.21529099061E+02  0.38295981314E+02  0.99513318573E+01  0.46142319886E+02  0.10000019380E+02 0.  0.
        -12    1    1    2    0    0  0.21529099061E+02 -0.38295981314E+02 -0.99513318573E+01  0.45045680114E+02  0.00000000000E+00 0.  1.
         11    1    3    3    0    0 -0.15582938488E+01  0.13624020847E+01  0.23729097636E+00  0.20834410066E+01  0.51100000000E-03 0. -1.
        -11    1    3    3    0    0 -0.18402606574E+02  0.36604658748E+02  0.80590354328E+01  0.41755299342E+02  0.51100000000E-03 0.  1.
        -12    1    3    3    0    0 -0.15681986384E+01  0.32892048069E+00  0.16550054481E+01  0.23035795374E+01  0.00000000000E+00 0.  1.
</event>
<event>
 7    1  0.1563903E-008  0.4614232E+02  0.7816164E-02  0.1320468E+00
        -11   -1    0    0    0    0  0.00000000000E+00  0.00000000000E+00  0.45593999997E+02  0.45594000000E+02  0.51100000000E-03 0.  1.
         11   -1    0    0    0    0 -0.00000000000E+00 -0.00000000000E+00 -0.45593999997E+02  0.45594000000E+02  0.51100000000E-03 0. -1.
    9900012    2    1    2    0    0 -0.18078024606E+02 -0.31859126237E+02 -0.26216304657E+02  0.46142317320E+02  0.99999959756E+01 0.  0.
        -12    1    1    2    0    0  0.18078024606E+02  0.31859126237E+02  0.26216304657E+02  0.45045682680E+02  0.00000000000E+00 0.  1.
         11    1    3    3    0    0 -0.61673406658E+01 -0.73804167338E+01 -0.80020242385E+01  0.12511556027E+02  0.51100000000E-03 0. -1.
        -11    1    3    3    0    0 -0.70201781369E+01 -0.20370369052E+02 -0.11743442171E+02  0.24538607757E+02  0.51100000000E-03 0.  1.
        -12    1    3    3    0    0 -0.48905058031E+01 -0.41083404517E+01 -0.64708382480E+01  0.90921535353E+01  0.00000000000E+00 0.  1.
</event>
<event>
 7    1  0.1563903E-008  0.4614232E+02  0.7816164E-02  0.1320468E+00
        -11   -1    0    0    0    0  0.00000000000E+00  0.00000000000E+00  0.45593999997E+02  0.45594000000E+02  0.51100000000E-03 0.  1.
         11   -1    0    0    0    0 -0.00000000000E+00 -0.00000000000E+00 -0.45593999997E+02  0.45594000000E+02  0.51100000000E-03 0. -1.
    9900012    2    1    2    0    0  0.20092375924E+02 -0.63876488975E+01 -0.39807134177E+02  0.46142316964E+02  0.99999927359E+01 0.  0.
        -12    1    1    2    0    0 -0.20092375924E+02  0.63876488975E+01  0.39807134177E+02  0.45045683036E+02  0.00000000000E+00 0.  1.
         11    1    3    3    0    0  0.18658023676E+02 -0.69905997806E+01 -0.39342768580E+02  0.44100382908E+02  0.51100000000E-03 0. -1.
        -11    1    3    3    0    0  0.32667332828E+00  0.67038756172E-01  0.41288191428E+00  0.53073665268E+00  0.51100000000E-03 0.  1.
         12    1    3    3    0    0  0.11076789201E+01  0.53591212695E+00 -0.87724751113E+00  0.15111974039E+01  0.00000000000E+00 0. -1.
</event>
<event>
 7    1  0.1563903E-008  0.4614232E+02  0.7816164E-02  0.1320468E+00
        -11   -1    0    0    0    0  0.00000000000E+00  0.00000000000E+00  0.45593999997E+02  0.45594000000E+02  0.51100000000E-03 0. -1.
         11   -1    0    0    0    0 -0.00000000000E+00 -0.00000000000E+00 -0.45593999997E+02  0.45594000000E+02  0.51100000000E-03 0.  1.
    9900012    2    1    2    0    0  0.61392422369E+01 -0.42851529441E+02  0.12456711783E+02  0.46142317197E+02  0.99999948600E+01 0.  0.
        -12    1    1    2    0    0 -0.61392422369E+01  0.42851529441E+02 -0.12456711783E+02  0.45045682803E+02  0.00000000000E+00 0.  1.
         11    1    3    3    0    0  0.13490054463E+01 -0.29734060179E+02  0.12164883517E+02  0.32154603740E+02  0.51100000000E-03 0. -1.
        -11    1    3    3    0    0  0.24666807899E+01 -0.61070632447E+01  0.43655037042E+00  0.66008569202E+01  0.51100000000E-03 0.  1.
         12    1    3    3    0    0  0.23235560006E+01 -0.70104060173E+01 -0.14472210378E+00  0.73868565373E+01  0.00000000000E+00 0. -1.
</event>
<event>
 7    1  0.1563903E-008  0.4614232E+02  0.7816164E-02  0.1320468E+00
        -11   -1    0    0    0    0  0.00000000000E+00  0.00000000000E+00  0.45593999997E+02  0.45594000000E+02  0.51100000000E-03 0.  1.
         11   -1    0    0    0    0 -0.00000000000E+00 -0.00000000000E+00 -0.45593999997E+02  0.45594000000E+02  0.51100000000E-03 0. -1.
    9900012    2    1    2    0    0  0.13824733028E+02 -0.15172430352E+02 -0.40097226070E+02  0.46142318469E+02  0.10000006453E+02 0.  0.
        -12    1    1    2    0    0 -0.13824733028E+02  0.15172430352E+02  0.40097226070E+02  0.45045681531E+02  0.00000000000E+00 0.  1.
         11    1    3    3    0    0  0.13322765722E+02 -0.14678159380E+02 -0.31646884791E+02  0.37342599890E+02  0.51100000000E-03 0. -1.
        -11    1    3    3    0    0  0.24364147206E+00  0.71397017900E+00 -0.10272465555E+01  0.12745000315E+01  0.51100000000E-03 0.  1.
         12    1    3    3    0    0  0.25832583428E+00 -0.12082411510E+01 -0.74230947233E+01  0.75252185474E+01  0.00000000000E+00 0. -1.
</event>
<event>
 7    1  0.1563903E-008  0.4614232E+02  0.7816164E-02  0.1320468E+00
        -11   -1    0    0    0    0  0.00000000000E+00  0.00000000000E+00  0.45593999997E+02  0.45594000000E+02  0.51100000000E-03 0.  1.
         11   -1    0    0    0    0 -0.00000000000E+00 -0.00000000000E+00 -0.45593999997E+02  0.45594000000E+02  0.51100000000E-03 0. -1.
    9900012    2    1    2    0    0 -0.44477356414E+02 -0.44778061798E+01 -0.55522519344E+01  0.46142317818E+02  0.10000000516E+02 0.  0.
        -12    1    1    2    0    0  0.44477356414E+02  0.44778061798E+01  0.55522519344E+01  0.45045682182E+02  0.00000000000E+00 0.  1.
         11    1    3    3    0    0 -0.15079354104E+02 -0.30992452625E+01 -0.47361518906E+01  0.16106625233E+02  0.51100000000E-03 0. -1.
        -11    1    3    3    0    0 -0.40995062029E+01 -0.20401625227E+01 -0.11694526084E+01  0.47260801825E+01  0.51100000000E-03 0.  1.
         12    1    3    3    0    0 -0.25298496106E+02  0.66160160540E+00  0.35335256449E+00  0.25309612403E+02  0.00000000000E+00 0. -1.
</event>
<event>
 7    1  0.1563903E-008  0.4614232E+02  0.7816164E-02  0.1320468E+00
        -11   -1    0    0    0    0  0.00000000000E+00  0.00000000000E+00  0.45593999997E+02  0.45594000000E+02  0.51100000000E-03 0. -1.
         11   -1    0    0    0    0 -0.00000000000E+00 -0.00000000000E+00 -0.45593999997E+02  0.45594000000E+02  0.51100000000E-03 0.  1.
    9900012    2    1    2    0    0 -0.21093835159E+02 -0.39789789770E+02 -0.96760449293E+00  0.46142317520E+02  0.99999977984E+01 0.  0.
        -12    1    1    2    0    0  0.21093835159E+02  0.39789789770E+02  0.96760449293E+00  0.45045682480E+02  0.00000000000E+00 0.  1.
         11    1    3    3    0    0 -0.70937817962E+01 -0.23053471849E+02  0.10258340635E+01  0.24142009863E+02  0.51100000000E-03 0. -1.
        -11    1    3    3    0    0 -0.52354769330E+01 -0.60152741652E+01 -0.16770457249E+01  0.81490014494E+01  0.51100000000E-03 0.  1.
         12    1    3    3    0    0 -0.87645764295E+01 -0.10721043756E+02 -0.31639283162E+00  0.13851306207E+02  0.00000000000E+00 0. -1.
</event>
<event>
 7    1  0.1563903E-008  0.4614232E+02  0.7816164E-02  0.1320468E+00
        -11   -1    0    0    0    0  0.00000000000E+00  0.00000000000E+00  0.45593999997E+02  0.45594000000E+02  0.51100000000E-03 0.  1.
         11   -1    0    0    0    0 -0.00000000000E+00 -0.00000000000E+00 -0.45593999997E+02  0.45594000000E+02  0.51100000000E-03 0. -1.
    9900012    2    1    2    0    0 -0.96963215228E+01  0.43022815524E+02 -0.91723603192E+01  0.46142317626E+02  0.99999987670E+01 0.  0.
        -12    1    1    2    0    0  0.96963215228E+01 -0.43022815524E+02  0.91723603192E+01  0.45045682374E+02  0.00000000000E+00 0.  1.
         11    1    3    3    0    0 -0.51189879802E+01  0.14383273372E+02 -0.62838993044E+01  0.16509693564E+02  0.51100000000E-03 0. -1.
        -11    1    3    3    0    0 -0.51613688408E+01  0.15481341903E+02 -0.14602331693E+01  0.16384259415E+02  0.51100000000E-03 0.  1.
         12    1    3    3    0    0  0.58403529812E+00  0.13158200249E+02 -0.14282278455E+01  0.13248364647E+02  0.00000000000E+00 0. -1.
</event>
<event>
 7    1  0.1563903E-008  0.4614232E+02  0.7816164E-02  0.1320468E+00
        -11   -1    0    0    0    0  0.00000000000E+00  0.00000000000E+00  0.45593999997E+02  0.45594000000E+02  0.51100000000E-03 0.  1.
         11   -1    0    0    0    0 -0.00000000000E+00 -0.00000000000E+00 -0.45593999997E+02  0.45594000000E+02  0.51100000000E-03 0. -1.
    9900012    2    1    2    0    0 -0.99500321481E+01  0.43065167662E+02 -0.86891732126E+01  0.46142317225E+02  0.99999951129E+01 0.  0.
        -12    1    1    2    0    0  0.99500321481E+01 -0.43065167662E+02  0.86891732126E+01  0.45045682775E+02  0.00000000000E+00 0.  1.
         11    1    3    3    0    0 -0.73663183886E+01  0.25919776303E+02 -0.20857270666E+01  0.27026796108E+02  0.51100000000E-03 0. -1.
        -11    1    3    3    0    0 -0.18759757188E+01  0.14902781293E+02 -0.38724207553E+01  0.15511538219E+02  0.51100000000E-03 0.  1.
         12    1    3    3    0    0 -0.70773804069E+00  0.22426100665E+01 -0.27310253907E+01  0.36039828981E+01  0.00000000000E+00 0. -1.
</event>
<event>
 7    1  0.1563903E-008  0.4614232E+02  0.7816164E-02  0.1320468E+00
        -11   -1    0    0    0    0  0.00000000000E+00  0.00000000000E+00  0.45593999997E+02  0.45594000000E+02  0.51100000000E-03 0. -1.
         11   -1    0    0    0    0 -0.00000000000E+00 -0.00000000000E+00 -0.45593999997E+02  0.45594000000E+02  0.51100000000E-03 0.  1.
    9900012    2    1    2    0    0 -0.22064268403E+02 -0.26027723415E+02  0.29408147739E+02  0.46142317857E+02  0.10000000873E+02 0.  0.
        -12    1    1    2    0    0  0.22064268403E+02  0.26027723415E+02 -0.29408147739E+02  0.45045682143E+02  0.00000000000E+00 0.  1.
         11    1    3    3    0    0 -0.98302735316E+01 -0.55739395168E+01  0.11289522407E+02  0.15973615617E+02  0.51100000000E-03 0. -1.
        -11    1    3    3    0    0 -0.11628109827E+02 -0.20380206331E+02  0.17322996601E+02  0.29165938348E+02  0.51100000000E-03 0.  1.
        -12    1    3    3    0    0 -0.60588504398E+00 -0.73577567574E-01  0.79562873028E+00  0.10027638912E+01  0.00000000000E+00 0.  1.
</event>
<event>
 7    1  0.1563903E-008  0.4614232E+02  0.7816164E-02  0.1320468E+00
        -11   -1    0    0    0    0  0.00000000000E+00  0.00000000000E+00  0.45593999997E+02  0.45594000000E+02  0.51100000000E-03 0.  1.
         11   -1    0    0    0    0 -0.00000000000E+00 -0.00000000000E+00 -0.45593999997E+02  0.45594000000E+02  0.51100000000E-03 0. -1.
    9900012    2    1    2    0    0  0.20065365925E+02 -0.19536147831E+02 -0.35282197803E+02  0.46142318036E+02  0.10000002505E+02 0.  0.
        -12    1    1    2    0    0 -0.20065365925E+02  0.19536147831E+02  0.35282197803E+02  0.45045681964E+02  0.00000000000E+00 0.  1.
         11    1    3    3    0    0  0.26453009351E+01 -0.92546861255E+00 -0.69314649421E+01  0.74765844939E+01  0.51100000000E-03 0. -1.
        -11    1    3    3    0    0  0.90324508755E+01 -0.50815801672E+01 -0.10656643133E+02  0.14865115840E+02  0.51100000000E-03 0.  1.
        -12    1    3    3    0    0  0.83876141146E+01 -0.13529099052E+02 -0.17694089728E+02  0.23800617702E+02  0.00000000000E+00 0.  1.
</event>
<event>
 7    1  0.1563903E-008  0.4614232E+02  0.7816164E-02  0.1320468E+00
        -11   -1    0    0    0    0  0.00000000000E+00  0.00000000000E+00  0.45593999997E+02  0.45594000000E+02  0.51100000000E-03 0.  1.
         11   -1    0    0    0    0 -0.00000000000E+00 -0.00000000000E+00 -0.45593999997E+02  0.45594000000E+02  0.51100000000E-03 0. -1.
    9900012    2    1    2    0    0  0.39371765935E+02 -0.13389147836E+02 -0.17312068413E+02  0.46142323788E+02  0.10000054959E+02 0.  0.
        -12    1    1    2    0    0 -0.39371765935E+02  0.13389147836E+02  0.17312068413E+02  0.45045676212E+02  0.00000000000E+00 0.  1.
         11    1    3    3    0    0  0.24411393933E+02 -0.12563081140E+02 -0.11996097935E+02  0.29960866599E+02  0.51100000000E-03 0. -1.
        -11    1    3    3    0    0  0.90045127222E+01 -0.83171327378E+00 -0.47069822300E+01  0.10194541594E+02  0.51100000000E-03 0.  1.
         12    1    3    3    0    0  0.59558592805E+01  0.56465771842E-02 -0.60898824786E+00  0.59869155947E+01  0.00000000000E+00 0. -1.
</event>
<event>
 7    1  0.1563903E-008  0.4614232E+02  0.7816164E-02  0.1320468E+00
        -11   -1    0    0    0    0  0.00000000000E+00  0.00000000000E+00  0.45593999997E+02  0.45594000000E+02  0.51100000000E-03 0.  1.
         11   -1    0    0    0    0 -0.00000000000E+00 -0.00000000000E+00 -0.45593999997E+02  0.45594000000E+02  0.51100000000E-03 0. -1.
    9900012    2    1    2    0    0  0.18718815771E+02 -0.40289515309E+02 -0.74481142608E+01  0.46142317480E+02  0.99999974321E+01 0.  0.
        -12    1    1    2    0    0 -0.18718815771E+02  0.40289515309E+02  0.74481142608E+01  0.45045682520E+02  0.00000000000E+00 0.  1.
         11    1    3    3    0    0  0.51089577935E+01 -0.81651586015E+01 -0.42873415989E+01  0.10542891585E+02  0.51100000000E-03 0. -1.
        -11    1    3    3    0    0  0.12741493103E+02 -0.32154192698E+02 -0.31579967880E+01  0.34730544172E+02  0.51100000000E-03 0.  1.
        -12    1    3    3    0    0  0.86836487479E+00  0.29835990243E-01 -0.27758739058E-02  0.86888172242E+00  0.00000000000E+00 0.  1.
</event>
<event>
 7    1  0.1563903E-008  0.4614232E+02  0.7816164E-02  0.1320468E+00
        -11   -1    0    0    0    0  0.00000000000E+00  0.00000000000E+00  0.45593999997E+02  0.45594000000E+02  0.51100000000E-03 0. -1.
         11   -1    0    0    0    0 -0.00000000000E+00 -0.00000000000E+00 -0.45593999997E+02  0.45594000000E+02  0.51100000000E-03 0.  1.
    9900012    2    1    2    0    0  0.95351730146E+01  0.54345076381E+00  0.44021569029E+02  0.46142318710E+02  0.10000008649E+02 0.  0.
        -12    1    1    2    0    0 -0.95351730146E+01 -0.54345076381E+00 -0.44021569029E+02  0.45045681290E+02  0.00000000000E+00 0.  1.
         11    1    3    3    0    0  0.51808003703E+00  0.23469430220E+01  0.41522970843E+01  0.47977202723E+01  0.51100000000E-03 0. -1.
        -11    1    3    3    0    0  0.35802069040E-01 -0.19156104695E+01  0.86021800394E+01  0.88129647083E+01  0.51100000000E-03 0.  1.
         12    1    3    3    0    0  0.89812909086E+01  0.11211821126E+00  0.31267091905E+02  0.32531633729E+02  0.00000000000E+00 0. -1.
</event>
<event>
 7    1  0.1563903E-008  0.4614232E+02  0.7816164E-02  0.1320468E+00
        -11   -1    0    0    0    0  0.00000000000E+00  0.00000000000E+00  0.45593999997E+02  0.45594000000E+02  0.51100000000E-03 0. -1.
         11   -1    0    0    0    0 -0.00000000000E+00 -0.00000000000E+00 -0.45593999997E+02  0.45594000000E+02  0.51100000000E-03 0.  1.
    9900012    2    1    2    0    0 -0.19440106850E+02 -0.11705087764E+02  0.38912551073E+02  0.46142318022E+02  0.10000002378E+02 0.  0.
        -12    1    1    2    0    0  0.19440106850E+02  0.11705087764E+02 -0.38912551073E+02  0.45045681978E+02  0.00000000000E+00 0.  1.
         11    1    3    3    0    0 -0.49893705949E+00 -0.15754410268E+01  0.80989810250E+00  0.18403499167E+01  0.51100000000E-03 0. -1.
        -11    1    3    3    0    0 -0.22965280640E+01 -0.22078914841E+01  0.11526584358E+02  0.11958719546E+02  0.51100000000E-03 0.  1.
         12    1    3    3    0    0 -0.16644641726E+02 -0.79217552534E+01  0.26576068612E+02  0.32343248559E+02  0.00000000000E+00 0. -1.
</event>
<event>
 7    1  0.1563903E-008  0.4614232E+02  0.7816164E-02  0.1320468E+00
        -11   -1    0    0    0    0  0.00000000000E+00  0.00000000000E+00  0.45593999997E+02  0.45594000000E+02  0.51100000000E-03 0.  1.
         11   -1    0    0    0    0 -0.00000000000E+00 -0.00000000000E+00 -0.45593999997E+02  0.45594000000E+02  0.51100000000E-03 0. -1.
    9900012    2    1    2    0    0  0.12153560060E+02 -0.31625243538E+02 -0.29685828900E+02  0.46142317760E+02  0.99999999902E+01 0.  0.
        -12    1    1    2    0    0 -0.12153560060E+02  0.31625243538E+02  0.29685828900E+02  0.45045682240E+02  0.00000000000E+00 0.  1.
         11    1    3    3    0    0  0.12777630131E+01 -0.13576379550E+02 -0.15249700359E+02  0.20457373275E+02  0.51100000000E-03 0. -1.
        -11    1    3    3    0    0  0.56193830182E+01 -0.69712495465E+01 -0.67540108826E+01  0.11215723294E+02  0.51100000000E-03 0.  1.
         12    1    3    3    0    0  0.52564140285E+01 -0.11077614442E+02 -0.76821176582E+01  0.14469221191E+02  0.00000000000E+00 0. -1.
</event>
<event>
 7    1  0.1563903E-008  0.4614232E+02  0.7816164E-02  0.1320468E+00
        -11   -1    0    0    0    0  0.00000000000E+00  0.00000000000E+00  0.45593999997E+02  0.45594000000E+02  0.51100000000E-03 0.  1.
         11   -1    0    0    0    0 -0.00000000000E+00 -0.00000000000E+00 -0.45593999997E+02  0.45594000000E+02  0.51100000000E-03 0. -1.
    9900012    2    1    2    0    0 -0.44280514001E+02 -0.62472290778E+01 -0.54149268247E+01  0.46142320697E+02  0.10000026769E+02 0.  0.
        -12    1    1    2    0    0  0.44280514001E+02  0.62472290778E+01  0.54149268247E+01  0.45045679303E+02  0.00000000000E+00 0.  1.
         11    1    3    3    0    0 -0.70972542900E+01 -0.21502427326E+01 -0.10601338469E+01  0.74912246195E+01  0.51100000000E-03 0. -1.
        -11    1    3    3    0    0 -0.12401444105E+02  0.26879692987E+01 -0.82890005701E+00  0.12716448813E+02  0.51100000000E-03 0.  1.
        -12    1    3    3    0    0 -0.24781815606E+02 -0.67849556440E+01 -0.35258929209E+01  0.25934647265E+02  0.00000000000E+00 0.  1.
</event>
<event>
 7    1  0.1563903E-008  0.4614232E+02  0.7816164E-02  0.1320468E+00
        -11   -1    0    0    0    0  0.00000000000E+00  0.00000000000E+00  0.45593999997E+02  0.45594000000E+02  0.51100000000E-03 0.  1.
         11   -1    0    0    0    0 -0.00000000000E+00 -0.00000000000E+00 -0.45593999997E+02  0.45594000000E+02  0.51100000000E-03 0. -1.
    9900012    2    1    2    0    0 -0.39255375384E+02 -0.61988053385E+01 -0.21206221484E+02  0.46142317479E+02  0.99999974291E+01 0.  0.
        -12    1    1    2    0    0  0.39255375384E+02  0.61988053385E+01  0.21206221484E+02  0.45045682521E+02  0.00000000000E+00 0.  1.
         11    1    3    3    0    0 -0.18441899747E+02 -0.11260119777E+01 -0.92942047980E+01  0.20682210045E+02  0.51100000000E-03 0. -1.
        -11    1    3    3    0    0 -0.95984519472E+01 -0.58760387092E+01 -0.61857169020E+01  0.12842165104E+02  0.51100000000E-03 0.  1.
        -12    1    3    3    0    0 -0.11215023689E+02  0.80324534836E+00 -0.57262997839E+01  0.12617942330E+02  0.00000000000E+00 0.  1.
</event>
<event>
 7    1  0.1563903E-008  0.4614232E+02  0.7816164E-02  0.1320468E+00
        -11   -1    0    0    0    0  0.00000000000E+00  0.00000000000E+00  0.45593999997E+02  0.45594000000E+02  0.51100000000E-03 0.  1.
         11   -1    0    0    0    0 -0.00000000000E+00 -0.00000000000E+00 -0.45593999997E+02  0.45594000000E+02  0.51100000000E-03 0. -1.
    9900012    2    1    2    0    0 -0.44171966817E+02 -0.87798495142E+01  0.93011786346E+00  0.46142317308E+02  0.99999958669E+01 0.  0.
        -12    1    1    2    0    0  0.44171966817E+02  0.87798495142E+01 -0.93011786346E+00  0.45045682692E+02  0.00000000000E+00 0.  1.
         11    1    3    3    0    0 -0.15843065966E+02 -0.11981902939E+01 -0.16707398804E+00  0.15889188562E+02  0.51100000000E-03 0. -1.
        -11    1    3    3    0    0 -0.25500147278E+02 -0.49702686664E+01  0.26227191095E+01  0.26112061152E+02  0.51100000000E-03 0.  1.
        -12    1    3    3    0    0 -0.28287535726E+01 -0.26113905538E+01 -0.15255272580E+01  0.41410675935E+01  0.00000000000E+00 0.  1.
</event>
<event>
 7    1  0.1563903E-008  0.4614232E+02  0.7816164E-02  0.1320468E+00
        -11   -1    0    0    0    0  0.00000000000E+00  0.00000000000E+00  0.45593999997E+02  0.45594000000E+02  0.51100000000E-03 0.  1.
         11   -1    0    0    0    0 -0.00000000000E+00 -0.00000000000E+00 -0.45593999997E+02  0.45594000000E+02  0.51100000000E-03 0. -1.
    9900012    2    1    2    0    0  0.40474778687E+02 -0.16881873606E+02 -0.10291159457E+02  0.46142319528E+02  0.10000016111E+02 0.  0.
        -12    1    1    2    0    0 -0.40474778687E+02  0.16881873606E+02  0.10291159457E+02  0.45045680472E+02  0.00000000000E+00 0.  1.
         11    1    3    3    0    0  0.13876880435E+02 -0.53522855602E+01 -0.48611276927E+01  0.15647534440E+02  0.51100000000E-03 0. -1.
        -11    1    3    3    0    0  0.11441707679E+02 -0.82978095448E+01 -0.18748377268E+00  0.14135114725E+02  0.51100000000E-03 0.  1.
        -12    1    3    3    0    0  0.15156190573E+02 -0.32317785013E+01 -0.52425479919E+01  0.16359670364E+02  0.00000000000E+00 0.  1.
</event>
<event>
 7    1  0.1563903E-008  0.4614232E+02  0.7816164E-02  0.1320468E+00
        -11   -1    0    0    0    0  0.00000000000E+00  0.00000000000E+00  0.45593999997E+02  0.45594000000E+02  0.51100000000E-03 0. -1.
         11   -1    0    0    0    0 -0.00000000000E+00 -0.00000000000E+00 -0.45593999997E+02  0.45594000000E+02  0.51100000000E-03 0.  1.
    9900012    2    1    2    0    0 -0.35911002259E+02 -0.27128164449E+02  0.18910635664E+01  0.46142317510E+02  0.99999977059E+01 0.  0.
        -12    1    1    2    0    0  0.35911002259E+02  0.27128164449E+02 -0.18910635664E+01  0.45045682490E+02  0.00000000000E+00 0.  1.
         11    1    3    3    0    0 -0.25803498566E+02 -0.15917484664E+02  0.32338030358E+01  0.30490069508E+02  0.51100000000E-03 0. -1.
        -11    1    3    3    0    0 -0.34246874161E+01 -0.66203494571E+01 -0.13194517401E+00  0.74548588600E+01  0.51100000000E-03 0.  1.
         12    1    3    3    0    0 -0.66828162767E+01 -0.45903303279E+01 -0.12107942953E+01  0.81973891412E+01  0.00000000000E+00 0. -1.
</event>
<event>
 7    1  0.1563903E-008  0.4614232E+02  0.7816164E-02  0.1320468E+00
        -11   -1    0    0    0    0  0.00000000000E+00  0.00000000000E+00  0.45593999997E+02  0.45594000000E+02  0.51100000000E-03 0.  1.
         11   -1    0    0    0    0 -0.00000000000E+00 -0.00000000000E+00 -0.45593999997E+02  0.45594000000E+02  0.51100000000E-03 0. -1.
    9900012    2    1    2    0    0  0.44895876884E+02 -0.42910408413E+00 -0.36455225618E+01  0.46142315120E+02  0.99999759200E+01 0.  0.
        -12    1    1    2    0    0 -0.44895876884E+02  0.42910408413E+00  0.36455225618E+01  0.45045684880E+02  0.00000000000E+00 0.  1.
         11    1    3    3    0    0  0.23960627805E+02  0.65852741071E+00 -0.62655534626E+01  0.24775037913E+02  0.51100000000E-03 0. -1.
        -11    1    3    3    0    0  0.72508622030E+01 -0.18296466650E+01  0.14054924070E+01  0.76090747646E+01  0.51100000000E-03 0.  1.
         12    1    3    3    0    0  0.13684386877E+02  0.74201517017E+00  0.12145384938E+01  0.13758202443E+02  0.00000000000E+00 0. -1.
</event>
<event>
 7    1  0.1563903E-008  0.4614232E+02  0.7816164E-02  0.1320468E+00
        -11   -1    0    0    0    0  0.00000000000E+00  0.00000000000E+00  0.45593999997E+02  0.45594000000E+02  0.51100000000E-03 0.  1.
         11   -1    0    0    0    0 -0.00000000000E+00 -0.00000000000E+00 -0.45593999997E+02  0.45594000000E+02  0.51100000000E-03 0. -1.
    9900012    2    1    2    0    0 -0.37511328926E+02 -0.13395712661E+02 -0.21037314938E+02  0.46142317240E+02  0.99999952492E+01 0.  0.
        -12    1    1    2    0    0  0.37511328926E+02  0.13395712661E+02  0.21037314938E+02  0.45045682760E+02  0.00000000000E+00 0.  1.
         11    1    3    3    0    0 -0.19511277766E+02 -0.78151185969E+01 -0.61611529425E+01  0.21902644694E+02  0.51100000000E-03 0. -1.
        -11    1    3    3    0    0 -0.12455284095E+02 -0.24482856466E+01 -0.88683516744E+01  0.15484697807E+02  0.51100000000E-03 0.  1.
         12    1    3    3    0    0 -0.55447670653E+01 -0.31323084174E+01 -0.60078103212E+01  0.87549747393E+01  0.00000000000E+00 0. -1.
</event>
<event>
 7    1  0.1563903E-008  0.4614232E+02  0.7816164E-02  0.1320468E+00
        -11   -1    0    0    0    0  0.00000000000E+00  0.00000000000E+00  0.45593999997E+02  0.45594000000E+02  0.51100000000E-03 0.  1.
         11   -1    0    0    0    0 -0.00000000000E+00 -0.00000000000E+00 -0.45593999997E+02  0.45594000000E+02  0.51100000000E-03 0. -1.
    9900012    2    1    2    0    0  0.29425640526E+02 -0.27192606598E+02 -0.20586581624E+02  0.46142317444E+02  0.99999971109E+01 0.  0.
        -12    1    1    2    0    0 -0.29425640526E+02  0.27192606598E+02  0.20586581624E+02  0.45045682556E+02  0.00000000000E+00 0.  1.
         11    1    3    3    0    0  0.63383280353E+01 -0.77181519450E+01 -0.71509631504E+01  0.12283344250E+02  0.51100000000E-03 0. -1.
        -11    1    3    3    0    0  0.19260401381E+02 -0.15492814955E+02 -0.13826716928E+02  0.28322578941E+02  0.51100000000E-03 0.  1.
        -12    1    3    3    0    0  0.38269111093E+01 -0.39816396983E+01  0.39109845475E+00  0.55363942532E+01  0.00000000000E+00 0.  1.
</event>
<event>
 7    1  0.1563903E-008  0.4614232E+02  0.7816164E-02  0.1320468E+00
        -11   -1    0    0    0    0  0.00000000000E+00  0.00000000000E+00  0.45593999997E+02  0.45594000000E+02  0.51100000000E-03 0.  1.
         11   -1    0    0    0    0 -0.00000000000E+00 -0.00000000000E+00 -0.45593999997E+02  0.45594000000E+02  0.51100000000E-03 0. -1.
    9900012    2    1    2    0    0 -0.17599198125E+02 -0.21610549101E+02 -0.35388781837E+02  0.46142317776E+02  0.10000000139E+02 0.  0.
        -12    1    1    2    0    0  0.17599198125E+02  0.21610549101E+02  0.35388781837E+02  0.45045682224E+02  0.00000000000E+00 0.  1.
         11    1    3    3    0    0 -0.14552132680E+02 -0.21816343387E+02 -0.32709886908E+02  0.41924385578E+02  0.51100000000E-03 0. -1.
        -11    1    3    3    0    0 -0.21955370076E+01  0.19529037989E-03 -0.24938566339E+01  0.33226049963E+01  0.51100000000E-03 0.  1.
         12    1    3    3    0    0 -0.85152843799E+00  0.20559899569E+00 -0.18503829494E+00  0.89532720182E+00  0.00000000000E+00 0. -1.
</event>
<event>
 7    1  0.1563903E-008  0.4614232E+02  0.7816164E-02  0.1320468E+00
        -11   -1    0    0    0    0  0.00000000000E+00  0.00000000000E+00  0.45593999997E+02  0.45594000000E+02  0.51100000000E-03 0. -1.
         11   -1    0    0    0    0 -0.00000000000E+00 -0.00000000000E+00 -0.45593999997E+02  0.45594000000E+02  0.51100000000E-03 0.  1.
    9900012    2    1    2    0    0  0.28664912778E+02  0.34468121419E+02  0.44027896073E+01  0.46142321238E+02  0.10000031710E+02 0.  0.
        -12    1    1    2    0    0 -0.28664912778E+02 -0.34468121419E+02 -0.44027896073E+01  0.45045678762E+02  0.00000000000E+00 0.  1.
         11    1    3    3    0    0  0.75826607767E+01  0.66668167608E+01  0.12264896708E+01  0.10170912808E+02  0.51100000000E-03 0. -1.
        -11    1    3    3    0    0  0.16461330467E+02  0.18729083482E+02  0.54862039131E+01  0.25531400323E+02  0.51100000000E-03 0.  1.
        -12    1    3    3    0    0  0.46209215351E+01  0.90722211759E+01 -0.23099039766E+01  0.10440008107E+02  0.00000000000E+00 0.  1.
</event>
<event>
 7    1  0.1563903E-008  0.4614232E+02  0.7816164E-02  0.1320468E+00
        -11   -1    0    0    0    0  0.00000000000E+00  0.00000000000E+00  0.45593999997E+02  0.45594000000E+02  0.51100000000E-03 0.  1.
         11   -1    0    0    0    0 -0.00000000000E+00 -0.00000000000E+00 -0.45593999997E+02  0.45594000000E+02  0.51100000000E-03 0. -1.
    9900012    2    1    2    0    0 -0.77309702068E+01 -0.19429994299E+02 -0.39897630395E+02  0.46142317744E+02  0.99999998429E+01 0.  0.
        -12    1    1    2    0    0  0.77309702068E+01  0.19429994299E+02  0.39897630395E+02  0.45045682256E+02  0.00000000000E+00 0.  1.
         11    1    3    3    0    0 -0.58333824033E+00 -0.90395948175E+01 -0.13388566151E+02  0.16165032069E+02  0.51100000000E-03 0. -1.
        -11    1    3    3    0    0 -0.65775308157E+01 -0.93202483144E+01 -0.17517906301E+02  0.20904735868E+02  0.51100000000E-03 0.  1.
        -12    1    3    3    0    0 -0.57010115077E+00 -0.10701511675E+01 -0.89911579423E+01  0.90725498062E+01  0.00000000000E+00 0.  1.
</event>
<event>
 7    1  0.1563903E-008  0.4614232E+02  0.7816164E-02  0.1320468E+00
        -11   -1    0    0    0    0  0.00000000000E+00  0.00000000000E+00  0.45593999997E+02  0.45594000000E+02  0.51100000000E-03 0.  1.
         11   -1    0    0    0    0 -0.00000000000E+00 -0.00000000000E+00 -0.45593999997E+02  0.45594000000E+02  0.51100000000E-03 0. -1.
    9900012    2    1    2    0    0  0.29027307311E+02 -0.16579912644E+01 -0.34406099293E+02  0.46142321258E+02  0.10000031891E+02 0.  0.
        -12    1    1    2    0    0 -0.29027307311E+02  0.16579912644E+01  0.34406099293E+02  0.45045678742E+02  0.00000000000E+00 0.  1.
         11    1    3    3    0    0  0.60979257725E+01  0.12325451019E+01 -0.10140865573E+02  0.11897101369E+02  0.51100000000E-03 0. -1.
        -11    1    3    3    0    0  0.22436549167E+02 -0.41454700719E+01 -0.22881127380E+02  0.32312995081E+02  0.51100000000E-03 0.  1.
        -12    1    3    3    0    0  0.49283237134E+00  0.12549337056E+01 -0.13841063399E+01  0.19322248088E+01  0.00000000000E+00 0.  1.
</event>
<event>
 7    1  0.1563903E-008  0.4614231E+02  0.7816164E-02  0.1320468E+00
        -11   -1    0    0    0    0  0.00000000000E+00  0.00000000000E+00  0.45593999997E+02  0.45594000000E+02  0.51100000000E-03 0.  1.
         11   -1    0    0    0    0 -0.00000000000E+00 -0.00000000000E+00 -0.45593999997E+02  0.45594000000E+02  0.51100000000E-03 0. -1.
    9900012    2    1    2    0    0  0.35214538958E+02  0.25599663985E+02 -0.11563192629E+02  0.46142312371E+02  0.99999508498E+01 0.  0.
        -12    1    1    2    0    0 -0.35214538958E+02 -0.25599663985E+02  0.11563192629E+02  0.45045687629E+02  0.00000000000E+00 0.  1.
         11    1    3    3    0    0  0.41717914707E+01  0.37557115263E+00 -0.26106036909E+01  0.49356002328E+01  0.51100000000E-03 0. -1.
        -11    1    3    3    0    0  0.24694176394E+01  0.21389849088E+01 -0.19710803275E+01  0.38155521011E+01  0.51100000000E-03 0.  1.
         12    1    3    3    0    0  0.28573329848E+02  0.23085107924E+02 -0.69815086108E+01  0.37391160037E+02  0.00000000000E+00 0. -1.
</event>
<event>
 7    1  0.1563903E-008  0.4614232E+02  0.7816164E-02  0.1320468E+00
        -11   -1    0    0    0    0  0.00000000000E+00  0.00000000000E+00  0.45593999997E+02  0.45594000000E+02  0.51100000000E-03 0.  1.
         11   -1    0    0    0    0 -0.00000000000E+00 -0.00000000000E+00 -0.45593999997E+02  0.45594000000E+02  0.51100000000E-03 0. -1.
    9900012    2    1    2    0    0  0.44550452994E+02  0.42456876066E+01  0.51327136890E+01  0.46142317909E+02  0.10000001351E+02 0.  0.
        -12    1    1    2    0    0 -0.44550452994E+02 -0.42456876066E+01 -0.51327136890E+01  0.45045682091E+02  0.00000000000E+00 0.  1.
         11    1    3    3    0    0  0.15070596275E+02  0.45378229739E+01  0.34156784365E+01  0.16105327344E+02  0.51100000000E-03 0.  1.
        -11    1    3    3    0    0  0.24564093517E+02 -0.15869955230E+01  0.29909638155E+01  0.24796352755E+02  0.51100000000E-03 0. -1.
         12    1    3    3    0    0  0.49157632013E+01  0.12948601557E+01 -0.12739285630E+01  0.52406378101E+01  0.00000000000E+00 0. -1.
</event>
<event>
 7    1  0.1563903E-008  0.4614232E+02  0.7816164E-02  0.1320468E+00
        -11   -1    0    0    0    0  0.00000000000E+00  0.00000000000E+00  0.45593999997E+02  0.45594000000E+02  0.51100000000E-03 0.  1.
         11   -1    0    0    0    0 -0.00000000000E+00 -0.00000000000E+00 -0.45593999997E+02  0.45594000000E+02  0.51100000000E-03 0. -1.
    9900012    2    1    2    0    0  0.14706215702E+02  0.71232078340E+01 -0.41977381984E+02  0.46142317983E+02  0.10000002024E+02 0.  0.
        -12    1    1    2    0    0 -0.14706215702E+02 -0.71232078340E+01  0.41977381984E+02  0.45045682017E+02  0.00000000000E+00 0.  1.
         11    1    3    3    0    0  0.49392625469E+01  0.76866212300E+01 -0.18838894114E+02  0.20937631006E+02  0.51100000000E-03 0. -1.
        -11    1    3    3    0    0  0.17906480685E+01 -0.14098399769E+00 -0.25329114981E+01  0.31051470031E+01  0.51100000000E-03 0.  1.
         12    1    3    3    0    0  0.79763050867E+01 -0.42242939834E+00 -0.20605576372E+02  0.22099539974E+02  0.00000000000E+00 0. -1.
</event>
<event>
 7    1  0.1563903E-008  0.4614231E+02  0.7816164E-02  0.1320468E+00
        -11   -1    0    0    0    0  0.00000000000E+00  0.00000000000E+00  0.45593999997E+02  0.45594000000E+02  0.51100000000E-03 0.  1.
         11   -1    0    0    0    0 -0.00000000000E+00 -0.00000000000E+00 -0.45593999997E+02  0.45594000000E+02  0.51100000000E-03 0. -1.
    9900012    2    1    2    0    0 -0.36475487537E+02  0.15584548233E+02 -0.21348880681E+02  0.46142311627E+02  0.99999440665E+01 0.  0.
        -12    1    1    2    0    0  0.36475487537E+02 -0.15584548233E+02  0.21348880681E+02  0.45045688373E+02  0.00000000000E+00 0.  1.
         11    1    3    3    0    0 -0.17158157716E+02  0.70528523430E+01 -0.11396480144E+02  0.21772112032E+02  0.51100000000E-03 0. -1.
        -11    1    3    3    0    0 -0.30022094072E+01  0.38125436906E+00 -0.43352981221E+01  0.52870999884E+01  0.51100000000E-03 0.  1.
        -12    1    3    3    0    0 -0.16315120413E+02  0.81504415210E+01 -0.56171024145E+01  0.19083099607E+02  0.00000000000E+00 0.  1.
</event>
<event>
 7    1  0.1563903E-008  0.4614232E+02  0.7816164E-02  0.1320468E+00
        -11   -1    0    0    0    0  0.00000000000E+00  0.00000000000E+00  0.45593999997E+02  0.45594000000E+02  0.51100000000E-03 0. -1.
         11   -1    0    0    0    0 -0.00000000000E+00 -0.00000000000E+00 -0.45593999997E+02  0.45594000000E+02  0.51100000000E-03 0.  1.
    9900012    2    1    2    0    0  0.10049824543E+01 -0.16261041056E+01  0.45005098131E+02  0.46142322493E+02  0.10000043149E+02 0.  0.
        -12    1    1    2    0    0 -0.10049824543E+01  0.16261041056E+01 -0.45005098131E+02  0.45045677507E+02  0.00000000000E+00 0.  1.
         11    1    3    3    0    0  0.73085372646E+00 -0.33472612062E+01  0.30669107146E+02  0.30859883962E+02  0.51100000000E-03 0. -1.
        -11    1    3    3    0    0  0.20545843972E+01  0.80896957343E+00  0.27587115428E+01  0.35335871935E+01  0.51100000000E-03 0.  1.
         12    1    3    3    0    0 -0.17804556694E+01  0.91218752719E+00  0.11577279442E+02  0.11748851338E+02  0.00000000000E+00 0. -1.
</event>
<event>
 7    1  0.1563903E-008  0.4614232E+02  0.7816164E-02  0.1320468E+00
        -11   -1    0    0    0    0  0.00000000000E+00  0.00000000000E+00  0.45593999997E+02  0.45594000000E+02  0.51100000000E-03 0.  1.
         11   -1    0    0    0    0 -0.00000000000E+00 -0.00000000000E+00 -0.45593999997E+02  0.45594000000E+02  0.51100000000E-03 0. -1.
    9900012    2    1    2    0    0 -0.15045715836E+02 -0.65348361385E+00 -0.42453655639E+02  0.46142317821E+02  0.10000000549E+02 0.  0.
        -12    1    1    2    0    0  0.15045715836E+02  0.65348361385E+00  0.42453655639E+02  0.45045682179E+02  0.00000000000E+00 0.  1.
         11    1    3    3    0    0 -0.80854057992E+01  0.34395990120E+01 -0.21258653611E+02  0.23002934203E+02  0.51100000000E-03 0. -1.
        -11    1    3    3    0    0 -0.66382323800E+01 -0.17397882349E+01 -0.14676712061E+02  0.16201816855E+02  0.51100000000E-03 0.  1.
        -12    1    3    3    0    0 -0.32207765663E+00 -0.23532943910E+01 -0.65182899665E+01  0.69375667633E+01  0.00000000000E+00 0.  1.
</event>
<event>
 7    1  0.1563903E-008  0.4614232E+02  0.7816164E-02  0.1320468E+00
        -11   -1    0    0    0    0  0.00000000000E+00  0.00000000000E+00  0.45593999997E+02  0.45594000000E+02  0.51100000000E-03 0.  1.
         11   -1    0    0    0    0 -0.00000000000E+00 -0.00000000000E+00 -0.45593999997E+02  0.45594000000E+02  0.51100000000E-03 0. -1.
    9900012    2    1    2    0    0  0.30811170437E+02  0.13560154472E+02 -0.29931711906E+02  0.46142318846E+02  0.10000009894E+02 0.  0.
        -12    1    1    2    0    0 -0.30811170437E+02 -0.13560154472E+02  0.29931711906E+02  0.45045681154E+02  0.00000000000E+00 0.  1.
         11    1    3    3    0    0  0.12143903525E+02  0.40771450664E+01 -0.85028686131E+01  0.15375183889E+02  0.51100000000E-03 0. -1.
        -11    1    3    3    0    0  0.17451696353E+02  0.10426647106E+02 -0.20857083669E+02  0.29125497677E+02  0.51100000000E-03 0.  1.
        -12    1    3    3    0    0  0.12155705585E+01 -0.94363770054E+00 -0.57175962442E+00  0.16416372805E+01  0.00000000000E+00 0.  1.
</event>
<event>
 7    1  0.1563903E-008  0.4614232E+02  0.7816164E-02  0.1320468E+00
        -11   -1    0    0    0    0  0.00000000000E+00  0.00000000000E+00  0.45593999997E+02  0.45594000000E+02  0.51100000000E-03 0.  1.
         11   -1    0    0    0    0 -0.00000000000E+00 -0.00000000000E+00 -0.45593999997E+02  0.45594000000E+02  0.51100000000E-03 0. -1.
    9900012    2    1    2    0    0 -0.24477366147E+02 -0.87435037965E+01 -0.36790260045E+02  0.46142317118E+02  0.99999941320E+01 0.  0.
        -12    1    1    2    0    0  0.24477366147E+02  0.87435037965E+01  0.36790260045E+02  0.45045682882E+02  0.00000000000E+00 0.  1.
         11    1    3    3    0    0 -0.38963113030E+01  0.19607960840E+01 -0.60436287148E+01  0.74532819184E+01  0.51100000000E-03 0.  1.
        -11    1    3    3    0    0 -0.10670510069E+02 -0.74293858639E+01 -0.15872692531E+02  0.20518234035E+02  0.51100000000E-03 0. -1.
         12    1    3    3    0    0 -0.99105447751E+01 -0.32749140166E+01 -0.14873938799E+02  0.18170801165E+02  0.00000000000E+00 0. -1.
</event>
<event>
 7    1  0.1563903E-008  0.4614232E+02  0.7816164E-02  0.1320468E+00
        -11   -1    0    0    0    0  0.00000000000E+00  0.00000000000E+00  0.45593999997E+02  0.45594000000E+02  0.51100000000E-03 0.  1.
         11   -1    0    0    0    0 -0.00000000000E+00 -0.00000000000E+00 -0.45593999997E+02  0.45594000000E+02  0.51100000000E-03 0. -1.
    9900012    2    1    2    0    0  0.30584391789E+02  0.32348962671E+02  0.68740904267E+01  0.46142317341E+02  0.99999961672E+01 0.  0.
        -12    1    1    2    0    0 -0.30584391789E+02 -0.32348962671E+02 -0.68740904267E+01  0.45045682659E+02  0.00000000000E+00 0.  1.
         11    1    3    3    0    0  0.14249567159E+02  0.97096280463E+01  0.47115923152E+01  0.17875294219E+02  0.51100000000E-03 0. -1.
        -11    1    3    3    0    0 -0.17529212603E-01  0.12728669075E+01  0.21237472852E+00  0.12905815449E+01  0.51100000000E-03 0.  1.
         12    1    3    3    0    0  0.16352353843E+02  0.21366467717E+02  0.19501233830E+01  0.26976441576E+02  0.00000000000E+00 0. -1.
</event>
<event>
 7    1  0.1563903E-008  0.4614232E+02  0.7816164E-02  0.1320468E+00
        -11   -1    0    0    0    0  0.00000000000E+00  0.00000000000E+00  0.45593999997E+02  0.45594000000E+02  0.51100000000E-03 0. -1.
         11   -1    0    0    0    0 -0.00000000000E+00 -0.00000000000E+00 -0.45593999997E+02  0.45594000000E+02  0.51100000000E-03 0.  1.
    9900012    2    1    2    0    0 -0.26583421186E+02 -0.32349165513E+02 -0.16612245558E+02  0.46142317701E+02  0.99999994474E+01 0.  0.
        -12    1    1    2    0    0  0.26583421186E+02  0.32349165513E+02  0.16612245558E+02  0.45045682299E+02  0.00000000000E+00 0.  1.
         11    1    3    3    0    0 -0.20335058172E+02 -0.27266535810E+02 -0.15066140767E+02  0.37201709151E+02  0.51100000000E-03 0. -1.
        -11    1    3    3    0    0 -0.58613574672E+01 -0.44233427133E+01 -0.14505196545E+00  0.73445566546E+01  0.51100000000E-03 0.  1.
        -12    1    3    3    0    0 -0.38700554737E+00 -0.65928698927E+00 -0.14010528262E+01  0.15960518945E+01  0.00000000000E+00 0.  1.
</event>
<event>
 7    1  0.1563903E-008  0.4614232E+02  0.7816164E-02  0.1320468E+00
        -11   -1    0    0    0    0  0.00000000000E+00  0.00000000000E+00  0.45593999997E+02  0.45594000000E+02  0.51100000000E-03 0.  1.
         11   -1    0    0    0    0 -0.00000000000E+00 -0.00000000000E+00 -0.45593999997E+02  0.45594000000E+02  0.51100000000E-03 0. -1.
    9900012    2    1    2    0    0 -0.16687813721E+02 -0.37870593782E+01 -0.41668797637E+02  0.46142316055E+02  0.99999844433E+01 0.  0.
        -12    1    1    2    0    0  0.16687813721E+02  0.37870593782E+01  0.41668797637E+02  0.45045683945E+02  0.00000000000E+00 0.  1.
         11    1    3    3    0    0 -0.77936994023E+01 -0.42830815519E+01 -0.14235926109E+02  0.16785354641E+02  0.51100000000E-03 0. -1.
        -11    1    3    3    0    0 -0.76725541466E+01  0.23305313304E+01 -0.18630844898E+02  0.20283191201E+02  0.51100000000E-03 0.  1.
         12    1    3    3    0    0 -0.12215601724E+01 -0.18345091567E+01 -0.88020266296E+01  0.90737702136E+01  0.00000000000E+00 0. -1.
</event>
<event>
 7    1  0.1563903E-008  0.4614232E+02  0.7816164E-02  0.1320468E+00
        -11   -1    0    0    0    0  0.00000000000E+00  0.00000000000E+00  0.45593999997E+02  0.45594000000E+02  0.51100000000E-03 0.  1.
         11   -1    0    0    0    0 -0.00000000000E+00 -0.00000000000E+00 -0.45593999997E+02  0.45594000000E+02  0.51100000000E-03 0. -1.
    9900012    2    1    2    0    0 -0.22159713395E+02  0.21053516148E+02 -0.33087915835E+02  0.46142316364E+02  0.99999872618E+01 0.  0.
        -12    1    1    2    0    0  0.22159713395E+02 -0.21053516148E+02  0.33087915835E+02  0.45045683636E+02  0.00000000000E+00 0.  1.
         11    1    3    3    0    0 -0.42995756519E+01  0.60391924607E+01 -0.32326477325E+01  0.80875341105E+01  0.51100000000E-03 0. -1.
        -11    1    3    3    0    0 -0.73115110796E+01  0.41509626643E+01 -0.11830939750E+02  0.14514124877E+02  0.51100000000E-03 0.  1.
         12    1    3    3    0    0 -0.10548626664E+02  0.10863361023E+02 -0.18024328352E+02  0.23540657377E+02  0.00000000000E+00 0. -1.
</event>
<event>
 7    1  0.1563903E-008  0.4614232E+02  0.7816164E-02  0.1320468E+00
        -11   -1    0    0    0    0  0.00000000000E+00  0.00000000000E+00  0.45593999997E+02  0.45594000000E+02  0.51100000000E-03 0.  1.
         11   -1    0    0    0    0 -0.00000000000E+00 -0.00000000000E+00 -0.45593999997E+02  0.45594000000E+02  0.51100000000E-03 0. -1.
    9900012    2    1    2    0    0  0.23232506319E+02 -0.24681475021E+02 -0.29667978046E+02  0.46142317850E+02  0.10000000807E+02 0.  0.
        -12    1    1    2    0    0 -0.23232506319E+02  0.24681475021E+02  0.29667978046E+02  0.45045682150E+02  0.00000000000E+00 0.  1.
         11    1    3    3    0    0  0.85587006601E+01 -0.54150649811E+01 -0.60482984847E+01  0.11796448642E+02  0.51100000000E-03 0. -1.
        -11    1    3    3    0    0  0.26340785655E+01 -0.38737723920E+01 -0.17087270533E+01  0.49864046003E+01  0.51100000000E-03 0.  1.
         12    1    3    3    0    0  0.12039727093E+02 -0.15392637648E+02 -0.21910952508E+02  0.29359464607E+02  0.00000000000E+00 0. -1.
</event>
<event>
 7    1  0.1563903E-008  0.4614232E+02  0.7816164E-02  0.1320468E+00
        -11   -1    0    0    0    0  0.00000000000E+00  0.00000000000E+00  0.45593999997E+02  0.45594000000E+02  0.51100000000E-03 0.  1.
         11   -1    0    0    0    0 -0.00000000000E+00 -0.00000000000E+00 -0.45593999997E+02  0.45594000000E+02  0.51100000000E-03 0. -1.
    9900012    2    1    2    0    0  0.22979255479E+02  0.16277485590E+02 -0.35158366634E+02  0.46142318033E+02  0.10000002477E+02 0.  0.
        -12    1    1    2    0    0 -0.22979255479E+02 -0.16277485590E+02  0.35158366634E+02  0.45045681967E+02  0.00000000000E+00 0.  1.
         11    1    3    3    0    0  0.10674394037E+02  0.50173840709E+01 -0.96201224011E+01  0.15220498883E+02  0.51100000000E-03 0. -1.
        -11    1    3    3    0    0  0.55504376086E+01  0.67868717207E+01 -0.93381876524E+01  0.12809009887E+02  0.51100000000E-03 0.  1.
         12    1    3    3    0    0  0.67544238327E+01  0.44732297987E+01 -0.16200056581E+02  0.18112809262E+02  0.00000000000E+00 0. -1.
</event>
<event>
 7    1  0.1563903E-008  0.4614232E+02  0.7816164E-02  0.1320468E+00
        -11   -1    0    0    0    0  0.00000000000E+00  0.00000000000E+00  0.45593999997E+02  0.45594000000E+02  0.51100000000E-03 0.  1.
         11   -1    0    0    0    0 -0.00000000000E+00 -0.00000000000E+00 -0.45593999997E+02  0.45594000000E+02  0.51100000000E-03 0. -1.
    9900012    2    1    2    0    0 -0.41636111744E+02  0.59891113670E+01 -0.16114535819E+02  0.46142317401E+02  0.99999967152E+01 0.  0.
        -12    1    1    2    0    0  0.41636111744E+02 -0.59891113670E+01  0.16114535819E+02  0.45045682599E+02  0.00000000000E+00 0.  1.
         11    1    3    3    0    0 -0.55600432966E+01  0.34365101110E+01 -0.38403066476E+01  0.75810051188E+01  0.51100000000E-03 0. -1.
        -11    1    3    3    0    0 -0.15159840094E+02  0.21807257486E+00 -0.25384854503E+01  0.15372449902E+02  0.51100000000E-03 0.  1.
         12    1    3    3    0    0 -0.20916228353E+02  0.23345286812E+01 -0.97357437213E+01  0.23188862381E+02  0.00000000000E+00 0. -1.
</event>
<event>
 7    1  0.1563903E-008  0.4614232E+02  0.7816164E-02  0.1320468E+00
        -11   -1    0    0    0    0  0.00000000000E+00  0.00000000000E+00  0.45593999997E+02  0.45594000000E+02  0.51100000000E-03 0.  1.
         11   -1    0    0    0    0 -0.00000000000E+00 -0.00000000000E+00 -0.45593999997E+02  0.45594000000E+02  0.51100000000E-03 0. -1.
    9900012    2    1    2    0    0  0.81378403510E+01  0.42781026455E+02 -0.11518371589E+02  0.46142317030E+02  0.99999933373E+01 0.  0.
        -12    1    1    2    0    0 -0.81378403510E+01 -0.42781026455E+02  0.11518371589E+02  0.45045682970E+02  0.00000000000E+00 0.  1.
         11    1    3    3    0    0  0.15715035213E+01  0.22442315793E+02 -0.39822231434E+01  0.22846996803E+02  0.51100000000E-03 0. -1.
        -11    1    3    3    0    0  0.60668177463E+01  0.20133020006E+02 -0.63070747761E+01  0.21952766674E+02  0.51100000000E-03 0.  1.
        -12    1    3    3    0    0  0.49951908330E+00  0.20569065531E+00 -0.12290736690E+01  0.13425535535E+01  0.00000000000E+00 0.  1.
</event>
<event>
 7    1  0.1563903E-008  0.4614231E+02  0.7816164E-02  0.1320468E+00
        -11   -1    0    0    0    0  0.00000000000E+00  0.00000000000E+00  0.45593999997E+02  0.45594000000E+02  0.51100000000E-03 0. -1.
         11   -1    0    0    0    0 -0.00000000000E+00 -0.00000000000E+00 -0.45593999997E+02  0.45594000000E+02  0.51100000000E-03 0.  1.
    9900012    2    1    2    0    0 -0.41547289434E+02 -0.14587113205E+02  0.94948731422E+01  0.46142314891E+02  0.99999738256E+01 0.  0.
        -12    1    1    2    0    0  0.41547289434E+02  0.14587113205E+02 -0.94948731422E+01  0.45045685109E+02  0.00000000000E+00 0.  1.
         11    1    3    3    0    0 -0.30134773610E+01 -0.36630989520E+01  0.24462547119E-02  0.47433475503E+01  0.51100000000E-03 0. -1.
        -11    1    3    3    0    0 -0.32970555545E+02 -0.90296832869E+01  0.64743907303E+01  0.34792390674E+02  0.51100000000E-03 0.  1.
         12    1    3    3    0    0 -0.55632565280E+01 -0.18943309658E+01  0.30180361572E+01  0.66065766665E+01  0.00000000000E+00 0. -1.
</event>
<event>
 7    1  0.1563903E-008  0.4614232E+02  0.7816164E-02  0.1320468E+00
        -11   -1    0    0    0    0  0.00000000000E+00  0.00000000000E+00  0.45593999997E+02  0.45594000000E+02  0.51100000000E-03 0.  1.
         11   -1    0    0    0    0 -0.00000000000E+00 -0.00000000000E+00 -0.45593999997E+02  0.45594000000E+02  0.51100000000E-03 0. -1.
    9900012    2    1    2    0    0 -0.20073746024E+02 -0.20634299174E+02 -0.34646556435E+02  0.46142318135E+02  0.10000003412E+02 0.  0.
        -12    1    1    2    0    0  0.20073746024E+02  0.20634299174E+02  0.34646556435E+02  0.45045681865E+02  0.00000000000E+00 0.  1.
         11    1    3    3    0    0 -0.10341659234E+02 -0.12012821115E+02 -0.12749644587E+02  0.20342350509E+02  0.51100000000E-03 0. -1.
        -11    1    3    3    0    0 -0.49608985382E+01 -0.30043126696E+01 -0.13082200432E+02  0.14310149451E+02  0.51100000000E-03 0.  1.
        -12    1    3    3    0    0 -0.47711882510E+01 -0.56171653892E+01 -0.88147114169E+01  0.11489818175E+02  0.00000000000E+00 0.  1.
</event>
<event>
 7    1  0.1563903E-008  0.4614232E+02  0.7816164E-02  0.1320468E+00
        -11   -1    0    0    0    0  0.00000000000E+00  0.00000000000E+00  0.45593999997E+02  0.45594000000E+02  0.51100000000E-03 0.  1.
         11   -1    0    0    0    0 -0.00000000000E+00 -0.00000000000E+00 -0.45593999997E+02  0.45594000000E+02  0.51100000000E-03 0. -1.
    9900012    2    1    2    0    0  0.23714437475E+01 -0.27370840595E+02 -0.35697714696E+02  0.46142317690E+02  0.99999993483E+01 0.  0.
        -12    1    1    2    0    0 -0.23714437475E+01  0.27370840595E+02  0.35697714696E+02  0.45045682310E+02  0.00000000000E+00 0.  1.
         11    1    3    3    0    0  0.17798429450E+01 -0.21946019442E+02 -0.33678795611E+02  0.40237505941E+02  0.51100000000E-03 0. -1.
        -11    1    3    3    0    0  0.52864354139E+00 -0.54136463110E+01 -0.18856030820E+01  0.57569548911E+01  0.51100000000E-03 0.  1.
         12    1    3    3    0    0  0.62957261182E-01 -0.11174841614E-01 -0.13331600253E+00  0.14785685764E+00  0.00000000000E+00 0. -1.
</event>
<event>
 7    1  0.1563903E-008  0.4614232E+02  0.7816164E-02  0.1320468E+00
        -11   -1    0    0    0    0  0.00000000000E+00  0.00000000000E+00  0.45593999997E+02  0.45594000000E+02  0.51100000000E-03 0.  1.
         11   -1    0    0    0    0 -0.00000000000E+00 -0.00000000000E+00 -0.45593999997E+02  0.45594000000E+02  0.51100000000E-03 0. -1.
    9900012    2    1    2    0    0 -0.21211593347E+02  0.31445942736E+02 -0.24296799517E+02  0.46142317924E+02  0.10000001486E+02 0.  0.
        -12    1    1    2    0    0  0.21211593347E+02 -0.31445942736E+02  0.24296799517E+02  0.45045682076E+02  0.00000000000E+00 0.  1.
         11    1    3    3    0    0 -0.17871700759E+02  0.22819762413E+02 -0.18299613130E+02  0.34278493047E+02  0.51100000000E-03 0. -1.
        -11    1    3    3    0    0 -0.27127309604E+01  0.71452743121E+01 -0.66472727908E+01  0.10129170256E+02  0.51100000000E-03 0.  1.
        -12    1    3    3    0    0 -0.62716162843E+00  0.14809060112E+01  0.65008640392E+00  0.17346546212E+01  0.00000000000E+00 0.  1.
</event>
<event>
 7    1  0.1563903E-008  0.4614232E+02  0.7816164E-02  0.1320468E+00
        -11   -1    0    0    0    0  0.00000000000E+00  0.00000000000E+00  0.45593999997E+02  0.45594000000E+02  0.51100000000E-03 0.  1.
         11   -1    0    0    0    0 -0.00000000000E+00 -0.00000000000E+00 -0.45593999997E+02  0.45594000000E+02  0.51100000000E-03 0. -1.
    9900012    2    1    2    0    0  0.29994380509E+02 -0.24908105585E+02 -0.22561845235E+02  0.46142318227E+02  0.10000004251E+02 0.  0.
        -12    1    1    2    0    0 -0.29994380509E+02  0.24908105585E+02  0.22561845235E+02  0.45045681773E+02  0.00000000000E+00 0.  1.
         11    1    3    3    0    0  0.10708971621E+02 -0.54884283838E+01 -0.75444045141E+01  0.14202920793E+02  0.51100000000E-03 0. -1.
        -11    1    3    3    0    0  0.64411477664E+01 -0.11258505882E+02 -0.68663713601E+01  0.14676150556E+02  0.51100000000E-03 0.  1.
        -12    1    3    3    0    0  0.12844261121E+02 -0.81611713199E+01 -0.81510693611E+01  0.17263246879E+02  0.00000000000E+00 0.  1.
</event>
<event>
 7    1  0.1563903E-008  0.4614232E+02  0.7816164E-02  0.1320468E+00
        -11   -1    0    0    0    0  0.00000000000E+00  0.00000000000E+00  0.45593999997E+02  0.45594000000E+02  0.51100000000E-03 0. -1.
         11   -1    0    0    0    0 -0.00000000000E+00 -0.00000000000E+00 -0.45593999997E+02  0.45594000000E+02  0.51100000000E-03 0.  1.
    9900012    2    1    2    0    0  0.40552300498E+02  0.13748754941E+02  0.13985569048E+02  0.46142317857E+02  0.10000000877E+02 0.  0.
        -12    1    1    2    0    0 -0.40552300498E+02 -0.13748754941E+02 -0.13985569048E+02  0.45045682143E+02  0.00000000000E+00 0.  1.
         11    1    3    3    0    0  0.21630439060E+02  0.80055711681E+01  0.48259560082E+01  0.23563847634E+02  0.51100000000E-03 0. -1.
        -11    1    3    3    0    0  0.15755197160E+02  0.30812832738E+01  0.90741664071E+01  0.18440744031E+02  0.51100000000E-03 0.  1.
        -12    1    3    3    0    0  0.31666642779E+01  0.26619004992E+01  0.85446632393E-01  0.41377261924E+01  0.00000000000E+00 0.  1.
</event>
<event>
 7    1  0.1563903E-008  0.4614232E+02  0.7816164E-02  0.1320468E+00
        -11   -1    0    0    0    0  0.00000000000E+00  0.00000000000E+00  0.45593999997E+02  0.45594000000E+02  0.51100000000E-03 0.  1.
         11   -1    0    0    0    0 -0.00000000000E+00 -0.00000000000E+00 -0.45593999997E+02  0.45594000000E+02  0.51100000000E-03 0. -1.
    9900012    2    1    2    0    0  0.18353453540E+02 -0.95003346842E+00 -0.41126167509E+02  0.46142317916E+02  0.10000001410E+02 0.  0.
        -12    1    1    2    0    0 -0.18353453540E+02  0.95003346842E+00  0.41126167509E+02  0.45045682084E+02  0.00000000000E+00 0.  1.
         11    1    3    3    0    0  0.60342136891E+01 -0.26867713447E+00 -0.18904504395E+02  0.19846012419E+02  0.51100000000E-03 0. -1.
        -11    1    3    3    0    0  0.18783828597E+01 -0.90277360237E+00 -0.42493086282E+00  0.21269435451E+01  0.51100000000E-03 0.  1.
        -12    1    3    3    0    0  0.10440856991E+02  0.22141726843E+00 -0.21796732252E+02  0.24169361952E+02  0.00000000000E+00 0.  1.
</event>
<event>
 7    1  0.1563903E-008  0.4614232E+02  0.7816164E-02  0.1320468E+00
        -11   -1    0    0    0    0  0.00000000000E+00  0.00000000000E+00  0.45593999997E+02  0.45594000000E+02  0.51100000000E-03 0. -1.
         11   -1    0    0    0    0 -0.00000000000E+00 -0.00000000000E+00 -0.45593999997E+02  0.45594000000E+02  0.51100000000E-03 0.  1.
    9900012    2    1    2    0    0  0.25022444435E+02 -0.36563162451E+02  0.81317815121E+01  0.46142318248E+02  0.10000004438E+02 0.  0.
        -12    1    1    2    0    0 -0.25022444435E+02  0.36563162451E+02 -0.81317815121E+01  0.45045681752E+02  0.00000000000E+00 0.  1.
         11    1    3    3    0    0  0.61546647396E+01 -0.10421679526E+02  0.10825048560E+01  0.12151671458E+02  0.51100000000E-03 0.  1.
        -11    1    3    3    0    0  0.62016964553E+01 -0.10799927464E+02 -0.10771190376E+01  0.12500386308E+02  0.51100000000E-03 0. -1.
        -12    1    3    3    0    0  0.12666083240E+02 -0.15341555461E+02  0.81263956938E+01  0.21490260482E+02  0.00000000000E+00 0.  1.
</event>
<event>
 7    1  0.1563903E-008  0.4614232E+02  0.7816164E-02  0.1320468E+00
        -11   -1    0    0    0    0  0.00000000000E+00  0.00000000000E+00  0.45593999997E+02  0.45594000000E+02  0.51100000000E-03 0. -1.
         11   -1    0    0    0    0 -0.00000000000E+00 -0.00000000000E+00 -0.45593999997E+02  0.45594000000E+02  0.51100000000E-03 0.  1.
    9900012    2    1    2    0    0 -0.42693465288E+02 -0.73921253393E+01  0.12318197864E+02  0.46142317700E+02  0.99999994390E+01 0.  0.
        -12    1    1    2    0    0  0.42693465288E+02  0.73921253393E+01 -0.12318197864E+02  0.45045682300E+02  0.00000000000E+00 0.  1.
         11    1    3    3    0    0 -0.14566101189E+02 -0.64597434183E+01  0.52451836797E+01  0.16775325361E+02  0.51100000000E-03 0. -1.
        -11    1    3    3    0    0 -0.23479144676E+02 -0.56404114400E+00  0.75749049696E+01  0.24677268137E+02  0.51100000000E-03 0.  1.
        -12    1    3    3    0    0 -0.46482194227E+01 -0.36834077701E+00 -0.50189078524E+00  0.46897242019E+01  0.00000000000E+00 0.  1.
</event>
<event>
 7    1  0.1563903E-008  0.4614232E+02  0.7816164E-02  0.1320468E+00
        -11   -1    0    0    0    0  0.00000000000E+00  0.00000000000E+00  0.45593999997E+02  0.45594000000E+02  0.51100000000E-03 0.  1.
         11   -1    0    0    0    0 -0.00000000000E+00 -0.00000000000E+00 -0.45593999997E+02  0.45594000000E+02  0.51100000000E-03 0. -1.
    9900012    2    1    2    0    0  0.44799458635E+02 -0.26197125107E+01 -0.39062752414E+01  0.46142319032E+02  0.10000011587E+02 0.  0.
        -12    1    1    2    0    0 -0.44799458635E+02  0.26197125107E+01  0.39062752414E+01  0.45045680968E+02  0.00000000000E+00 0.  1.
         11    1    3    3    0    0  0.23830510161E+02 -0.37838270351E+01 -0.34015237638E+01  0.24367620437E+02  0.51100000000E-03 0. -1.
        -11    1    3    3    0    0  0.51620997706E+01  0.26968467189E+01 -0.87456094209E+00  0.58894068776E+01  0.51100000000E-03 0.  1.
        -12    1    3    3    0    0  0.15806848703E+02 -0.15327321944E+01  0.36980946443E+00  0.15885291717E+02  0.00000000000E+00 0.  1.
</event>
<event>
 7    1  0.1563903E-008  0.4614232E+02  0.7816164E-02  0.1320468E+00
        -11   -1    0    0    0    0  0.00000000000E+00  0.00000000000E+00  0.45593999997E+02  0.45594000000E+02  0.51100000000E-03 0.  1.
         11   -1    0    0    0    0 -0.00000000000E+00 -0.00000000000E+00 -0.45593999997E+02  0.45594000000E+02  0.51100000000E-03 0. -1.
    9900012    2    1    2    0    0 -0.36777646203E+02 -0.17342610201E+02 -0.19384325593E+02  0.46142317992E+02  0.10000002107E+02 0.  0.
        -12    1    1    2    0    0  0.36777646203E+02  0.17342610201E+02  0.19384325593E+02  0.45045682008E+02  0.00000000000E+00 0.  1.
         11    1    3    3    0    0 -0.24968901051E+02 -0.95430698777E+01 -0.13769924340E+02  0.30068704977E+02  0.51100000000E-03 0. -1.
        -11    1    3    3    0    0 -0.71556668275E+01 -0.71633645181E+01 -0.24706877709E+01  0.10422171429E+02  0.51100000000E-03 0.  1.
        -12    1    3    3    0    0 -0.46530783248E+01 -0.63617580538E+00 -0.31437134818E+01  0.56514415867E+01  0.00000000000E+00 0.  1.
</event>
<event>
 7    1  0.1563903E-008  0.4614232E+02  0.7816164E-02  0.1320468E+00
        -11   -1    0    0    0    0  0.00000000000E+00  0.00000000000E+00  0.45593999997E+02  0.45594000000E+02  0.51100000000E-03 0.  1.
         11   -1    0    0    0    0 -0.00000000000E+00 -0.00000000000E+00 -0.45593999997E+02  0.45594000000E+02  0.51100000000E-03 0. -1.
    9900012    2    1    2    0    0  0.31675214871E+02  0.31423702185E+02  0.61923484207E+01  0.46142317908E+02  0.10000001340E+02 0.  0.
        -12    1    1    2    0    0 -0.31675214871E+02 -0.31423702185E+02 -0.61923484207E+01  0.45045682092E+02  0.00000000000E+00 0.  1.
         11    1    3    3    0    0  0.68211683283E+01  0.92431408451E+01  0.20346314675E+01  0.11666349708E+02  0.51100000000E-03 0. -1.
        -11    1    3    3    0    0  0.47132774039E+01  0.10943785404E+01  0.20032884170E+01  0.52369660128E+01  0.51100000000E-03 0.  1.
        -12    1    3    3    0    0  0.20140769139E+02  0.21086182800E+02  0.21544285362E+01  0.29239002187E+02  0.00000000000E+00 0.  1.
</event>
<event>
 7    1  0.1563903E-008  0.4614232E+02  0.7816164E-02  0.1320468E+00
        -11   -1    0    0    0    0  0.00000000000E+00  0.00000000000E+00  0.45593999997E+02  0.45594000000E+02  0.51100000000E-03 0. -1.
         11   -1    0    0    0    0 -0.00000000000E+00 -0.00000000000E+00 -0.45593999997E+02  0.45594000000E+02  0.51100000000E-03 0.  1.
    9900012    2    1    2    0    0  0.44072769511E+00 -0.43684733516E+02  0.10980130940E+02  0.46142318090E+02  0.10000002996E+02 0.  0.
        -12    1    1    2    0    0 -0.44072769511E+00  0.43684733516E+02 -0.10980130940E+02  0.45045681910E+02  0.00000000000E+00 0.  1.
         11    1    3    3    0    0 -0.25487812495E+01 -0.14921204579E+02  0.32249153150E+01  0.15477038186E+02  0.51100000000E-03 0. -1.
        -11    1    3    3    0    0  0.13126955377E+01 -0.11118455289E+01 -0.44069175119E+00  0.17758320685E+01  0.51100000000E-03 0.  1.
         12    1    3    3    0    0  0.16768134069E+01 -0.27651683409E+02  0.81959073762E+01  0.28889447836E+02  0.00000000000E+00 0. -1.
</event>
<event>
 7    1  0.1563903E-008  0.4614231E+02  0.7816164E-02  0.1320468E+00
        -11   -1    0    0    0    0  0.00000000000E+00  0.00000000000E+00  0.45593999997E+02  0.45594000000E+02  0.51100000000E-03 0.  1.
         11   -1    0    0    0    0 -0.00000000000E+00 -0.00000000000E+00 -0.45593999997E+02  0.45594000000E+02  0.51100000000E-03 0. -1.
    9900012    2    1    2    0    0  0.94732081530E+01  0.43840723070E+02 -0.41669385158E+01  0.46142311543E+02  0.99999432976E+01 0.  0.
        -12    1    1    2    0    0 -0.94732081530E+01 -0.43840723070E+02  0.41669385158E+01  0.45045688457E+02  0.00000000000E+00 0.  1.
         11    1    3    3    0    0  0.71162455351E+01  0.21891332321E+02 -0.14827553049E+01  0.23066641387E+02  0.51100000000E-03 0. -1.
        -11    1    3    3    0    0 -0.25875929617E+00  0.14067717522E+02 -0.40914254869E+01  0.14652897168E+02  0.51100000000E-03 0.  1.
         12    1    3    3    0    0  0.26157219140E+01  0.78816732270E+01  0.14072422759E+01  0.84227729882E+01  0.00000000000E+00 0. -1.
</event>
<event>
 7    1  0.1563903E-008  0.4614232E+02  0.7816164E-02  0.1320468E+00
        -11   -1    0    0    0    0  0.00000000000E+00  0.00000000000E+00  0.45593999997E+02  0.45594000000E+02  0.51100000000E-03 0. -1.
         11   -1    0    0    0    0 -0.00000000000E+00 -0.00000000000E+00 -0.45593999997E+02  0.45594000000E+02  0.51100000000E-03 0.  1.
    9900012    2    1    2    0    0  0.19874543333E+01 -0.40990333780E+02  0.18572992424E+02  0.46142317791E+02  0.10000000270E+02 0.  0.
        -12    1    1    2    0    0 -0.19874543333E+01  0.40990333780E+02 -0.18572992424E+02  0.45045682209E+02  0.00000000000E+00 0.  1.
         11    1    3    3    0    0  0.13764694239E+01 -0.76203841406E+01  0.33504983148E+01  0.84374618070E+01  0.51100000000E-03 0. -1.
        -11    1    3    3    0    0 -0.29558852392E+01 -0.25549988004E+02  0.97006919159E+01  0.27488953572E+02  0.51100000000E-03 0.  1.
        -12    1    3    3    0    0  0.35668701485E+01 -0.78199616352E+01  0.55218021930E+01  0.10215902412E+02  0.00000000000E+00 0.  1.
</event>
<event>
 7    1  0.1563903E-008  0.4614232E+02  0.7816164E-02  0.1320468E+00
        -11   -1    0    0    0    0  0.00000000000E+00  0.00000000000E+00  0.45593999997E+02  0.45594000000E+02  0.51100000000E-03 0.  1.
         11   -1    0    0    0    0 -0.00000000000E+00 -0.00000000000E+00 -0.45593999997E+02  0.45594000000E+02  0.51100000000E-03 0. -1.
    9900012    2    1    2    0    0  0.22607689073E+02 -0.23690317473E+02 -0.30931775339E+02  0.46142317934E+02  0.10000001580E+02 0.  0.
        -12    1    1    2    0    0 -0.22607689073E+02  0.23690317473E+02  0.30931775339E+02  0.45045682066E+02  0.00000000000E+00 0.  1.
         11    1    3    3    0    0  0.11074575672E+01 -0.24647415445E+01 -0.27577090483E+01  0.38608771802E+01  0.51100000000E-03 0. -1.
        -11    1    3    3    0    0  0.65608309568E+01 -0.83323474874E+01 -0.15663880023E+02  0.18916385890E+02  0.51100000000E-03 0.  1.
        -12    1    3    3    0    0  0.14939400549E+02 -0.12893228441E+02 -0.12510186267E+02  0.23365054865E+02  0.00000000000E+00 0.  1.
</event>
<event>
 7    1  0.1563903E-008  0.4614232E+02  0.7816164E-02  0.1320468E+00
        -11   -1    0    0    0    0  0.00000000000E+00  0.00000000000E+00  0.45593999997E+02  0.45594000000E+02  0.51100000000E-03 0.  1.
         11   -1    0    0    0    0 -0.00000000000E+00 -0.00000000000E+00 -0.45593999997E+02  0.45594000000E+02  0.51100000000E-03 0. -1.
    9900012    2    1    2    0    0  0.13128946483E+02 -0.11891906956E+02 -0.41416502605E+02  0.46142319022E+02  0.10000011496E+02 0.  0.
        -12    1    1    2    0    0 -0.13128946483E+02  0.11891906956E+02  0.41416502605E+02  0.45045680978E+02  0.00000000000E+00 0.  1.
         11    1    3    3    0    0  0.83486073786E+01 -0.90464149912E+01 -0.27124889918E+02  0.29787522936E+02  0.51100000000E-03 0. -1.
        -11    1    3    3    0    0  0.47954223140E+01 -0.29805157672E+01 -0.66993862837E+01  0.87613541332E+01  0.51100000000E-03 0.  1.
         12    1    3    3    0    0 -0.15083209339E-01  0.13502380273E+00 -0.75922264029E+01  0.75934419523E+01  0.00000000000E+00 0. -1.
</event>
<event>
 7    1  0.1563903E-008  0.4614232E+02  0.7816164E-02  0.1320468E+00
        -11   -1    0    0    0    0  0.00000000000E+00  0.00000000000E+00  0.45593999997E+02  0.45594000000E+02  0.51100000000E-03 0. -1.
         11   -1    0    0    0    0 -0.00000000000E+00 -0.00000000000E+00 -0.45593999997E+02  0.45594000000E+02  0.51100000000E-03 0.  1.
    9900012    2    1    2    0    0  0.11334062479E+02  0.41427916091E+02 -0.13578668598E+02  0.46142318245E+02  0.10000004414E+02 0.  0.
        -12    1    1    2    0    0 -0.11334062479E+02 -0.41427916091E+02  0.13578668598E+02  0.45045681755E+02  0.00000000000E+00 0.  1.
         11    1    3    3    0    0  0.52675538957E+01  0.95953009030E+01 -0.92731309317E+00  0.10985300783E+02  0.51100000000E-03 0. -1.
        -11    1    3    3    0    0  0.21250543790E+01  0.22503152553E+02 -0.97929063874E+01  0.24633488318E+02  0.51100000000E-03 0.  1.
        -12    1    3    3    0    0  0.39414542039E+01  0.93294626342E+01 -0.28584491170E+01  0.10523529144E+02  0.00000000000E+00 0.  1.
</event>
<event>
 7    1  0.1563903E-008  0.4614232E+02  0.7816164E-02  0.1320468E+00
        -11   -1    0    0    0    0  0.00000000000E+00  0.00000000000E+00  0.45593999997E+02  0.45594000000E+02  0.51100000000E-03 0. -1.
         11   -1    0    0    0    0 -0.00000000000E+00 -0.00000000000E+00 -0.45593999997E+02  0.45594000000E+02  0.51100000000E-03 0.  1.
    9900012    2    1    2    0    0 -0.41127573180E+02  0.79434733582E+01 -0.16569173686E+02  0.46142316952E+02  0.99999926218E+01 0.  0.
        -12    1    1    2    0    0  0.41127573180E+02 -0.79434733582E+01  0.16569173686E+02  0.45045683048E+02  0.00000000000E+00 0.  1.
         11    1    3    3    0    0 -0.66647232161E+01  0.71386330174E+00 -0.37630890319E+01  0.76869353896E+01  0.51100000000E-03 0. -1.
        -11    1    3    3    0    0 -0.20344707412E+02  0.60771454628E+01 -0.35328992264E+01  0.21524873840E+02  0.51100000000E-03 0.  1.
        -12    1    3    3    0    0 -0.14118142552E+02  0.11524645937E+01 -0.92731854272E+01  0.16930507722E+02  0.00000000000E+00 0.  1.
</event>
<event>
 7    1  0.1563903E-008  0.4614232E+02  0.7816164E-02  0.1320468E+00
        -11   -1    0    0    0    0  0.00000000000E+00  0.00000000000E+00  0.45593999997E+02  0.45594000000E+02  0.51100000000E-03 0.  1.
         11   -1    0    0    0    0 -0.00000000000E+00 -0.00000000000E+00 -0.45593999997E+02  0.45594000000E+02  0.51100000000E-03 0. -1.
    9900012    2    1    2    0    0  0.38094659392E+01  0.41237073528E+02 -0.17723007193E+02  0.46142320431E+02  0.10000024349E+02 0.  0.
        -12    1    1    2    0    0 -0.38094659392E+01 -0.41237073528E+02  0.17723007193E+02  0.45045679569E+02  0.00000000000E+00 0.  1.
         11    1    3    3    0    0  0.41695444970E+01  0.27615299351E+02 -0.91721347139E+01  0.29395882620E+02  0.51100000000E-03 0. -1.
        -11    1    3    3    0    0 -0.68732816949E+00  0.10878844136E+02 -0.43883711492E+01  0.11750722163E+02  0.51100000000E-03 0.  1.
        -12    1    3    3    0    0  0.32724961166E+00  0.27429300405E+01 -0.41625013296E+01  0.49957156479E+01  0.00000000000E+00 0.  1.
</event>
<event>
 7    1  0.1563903E-008  0.4614232E+02  0.7816164E-02  0.1320468E+00
        -11   -1    0    0    0    0  0.00000000000E+00  0.00000000000E+00  0.45593999997E+02  0.45594000000E+02  0.51100000000E-03 0. -1.
         11   -1    0    0    0    0 -0.00000000000E+00 -0.00000000000E+00 -0.45593999997E+02  0.45594000000E+02  0.51100000000E-03 0.  1.
    9900012    2    1    2    0    0  0.38498686047E+02  0.12483302218E+02 -0.19777046857E+02  0.46142320474E+02  0.10000024737E+02 0.  0.
        -12    1    1    2    0    0 -0.38498686047E+02 -0.12483302218E+02  0.19777046857E+02  0.45045679526E+02  0.00000000000E+00 0.  1.
         11    1    3    3    0    0  0.19774809690E+02  0.67259670311E+01 -0.10909958038E+02  0.23564993431E+02  0.51100000000E-03 0. -1.
        -11    1    3    3    0    0  0.12220244794E+02  0.40513355418E+01 -0.21120085634E+01  0.13046389651E+02  0.51100000000E-03 0.  1.
        -12    1    3    3    0    0  0.65036315628E+01  0.17059996446E+01 -0.67550802558E+01  0.95309373911E+01  0.00000000000E+00 0.  1.
</event>
<event>
 7    1  0.1563903E-008  0.4614232E+02  0.7816164E-02  0.1320468E+00
        -11   -1    0    0    0    0  0.00000000000E+00  0.00000000000E+00  0.45593999997E+02  0.45594000000E+02  0.51100000000E-03 0. -1.
         11   -1    0    0    0    0 -0.00000000000E+00 -0.00000000000E+00 -0.45593999997E+02  0.45594000000E+02  0.51100000000E-03 0.  1.
    9900012    2    1    2    0    0 -0.42445021237E+02 -0.96690530087E+01 -0.11577698479E+02  0.46142317455E+02  0.99999972041E+01 0.  0.
        -12    1    1    2    0    0  0.42445021237E+02  0.96690530087E+01  0.11577698479E+02  0.45045682545E+02  0.00000000000E+00 0.  1.
         11    1    3    3    0    0 -0.21244656937E+02 -0.19853419215E+01 -0.51438971398E+01  0.21948501292E+02  0.51100000000E-03 0. -1.
        -11    1    3    3    0    0 -0.65264693672E+01 -0.42451821886E+01 -0.45168296880E+01  0.90010068830E+01  0.51100000000E-03 0.  1.
         12    1    3    3    0    0 -0.14673894933E+02 -0.34385288986E+01 -0.19169716508E+01  0.15192809279E+02  0.00000000000E+00 0. -1.
</event>
<event>
 7    1  0.1563903E-008  0.4614232E+02  0.7816164E-02  0.1320468E+00
        -11   -1    0    0    0    0  0.00000000000E+00  0.00000000000E+00  0.45593999997E+02  0.45594000000E+02  0.51100000000E-03 0. -1.
         11   -1    0    0    0    0 -0.00000000000E+00 -0.00000000000E+00 -0.45593999997E+02  0.45594000000E+02  0.51100000000E-03 0.  1.
    9900012    2    1    2    0    0 -0.38416804202E+00 -0.43710815999E+02  0.10877982466E+02  0.46142317377E+02  0.99999965014E+01 0.  0.
        -12    1    1    2    0    0  0.38416804202E+00  0.43710815999E+02 -0.10877982466E+02  0.45045682623E+02  0.00000000000E+00 0.  1.
         11    1    3    3    0    0 -0.25989629087E+01 -0.13733160670E+02  0.19155832432E+00  0.13978233259E+02  0.51100000000E-03 0.  1.
        -11    1    3    3    0    0  0.19748085648E+01 -0.19997412589E+02  0.51314810006E+01  0.20739538969E+02  0.51100000000E-03 0. -1.
         12    1    3    3    0    0  0.23998630191E+00 -0.99802427410E+01  0.55549431406E+01  0.11424545150E+02  0.00000000000E+00 0. -1.
</event>
<event>
 7    1  0.1563903E-008  0.4614232E+02  0.7816164E-02  0.1320468E+00
        -11   -1    0    0    0    0  0.00000000000E+00  0.00000000000E+00  0.45593999997E+02  0.45594000000E+02  0.51100000000E-03 0. -1.
         11   -1    0    0    0    0 -0.00000000000E+00 -0.00000000000E+00 -0.45593999997E+02  0.45594000000E+02  0.51100000000E-03 0.  1.
    9900012    2    1    2    0    0  0.27619783241E+01 -0.33393286983E+02  0.30106036315E+02  0.46142316940E+02  0.99999925103E+01 0.  0.
        -12    1    1    2    0    0 -0.27619783241E+01  0.33393286983E+02 -0.30106036315E+02  0.45045683060E+02  0.00000000000E+00 0.  1.
         11    1    3    3    0    0  0.42658715989E+01 -0.14910059456E+02  0.93394583702E+01  0.18103397924E+02  0.51100000000E-03 0. -1.
        -11    1    3    3    0    0 -0.13182336473E+01 -0.10982390485E+02  0.99709720720E+01  0.14891975190E+02  0.51100000000E-03 0.  1.
         12    1    3    3    0    0 -0.18565962748E+00 -0.75008370414E+01  0.10795605873E+02  0.13146943827E+02  0.00000000000E+00 0. -1.
</event>
<event>
 7    1  0.1563903E-008  0.4614232E+02  0.7816164E-02  0.1320468E+00
        -11   -1    0    0    0    0  0.00000000000E+00  0.00000000000E+00  0.45593999997E+02  0.45594000000E+02  0.51100000000E-03 0.  1.
         11   -1    0    0    0    0 -0.00000000000E+00 -0.00000000000E+00 -0.45593999997E+02  0.45594000000E+02  0.51100000000E-03 0. -1.
    9900012    2    1    2    0    0  0.20826661679E+02  0.35205313603E+02 -0.18866625131E+02  0.46142317783E+02  0.10000000203E+02 0.  0.
        -12    1    1    2    0    0 -0.20826661679E+02 -0.35205313603E+02  0.18866625131E+02  0.45045682217E+02  0.00000000000E+00 0.  1.
         11    1    3    3    0    0  0.20874684616E+01  0.98677277353E+01 -0.32849907112E+01  0.10607579341E+02  0.51100000000E-03 0. -1.
        -11    1    3    3    0    0  0.12601782948E+02  0.16078590875E+02 -0.12715163603E+02  0.24062448000E+02  0.51100000000E-03 0.  1.
        -12    1    3    3    0    0  0.61374102685E+01  0.92589949921E+01 -0.28664708165E+01  0.11472290443E+02  0.00000000000E+00 0.  1.
</event>
<event>
 7    1  0.1563903E-008  0.4614232E+02  0.7816164E-02  0.1320468E+00
        -11   -1    0    0    0    0  0.00000000000E+00  0.00000000000E+00  0.45593999997E+02  0.45594000000E+02  0.51100000000E-03 0.  1.
         11   -1    0    0    0    0 -0.00000000000E+00 -0.00000000000E+00 -0.45593999997E+02  0.45594000000E+02  0.51100000000E-03 0. -1.
    9900012    2    1    2    0    0  0.42853790839E+02  0.13057235429E+02  0.47089953779E+01  0.46142318478E+02  0.10000006535E+02 0.  0.
        -12    1    1    2    0    0 -0.42853790839E+02 -0.13057235429E+02 -0.47089953779E+01  0.45045681522E+02  0.00000000000E+00 0.  1.
         11    1    3    3    0    0  0.93624257176E+01  0.28599817401E+01 -0.14127530028E+01  0.98909242328E+01  0.51100000000E-03 0. -1.
        -11    1    3    3    0    0  0.27904702524E+02  0.93024317190E+01  0.24711845336E+01  0.29518035370E+02  0.51100000000E-03 0.  1.
        -12    1    3    3    0    0  0.55866625973E+01  0.89482196981E+00  0.36505638472E+01  0.67333588747E+01  0.00000000000E+00 0.  1.
</event>
<event>
 7    1  0.1563903E-008  0.4614232E+02  0.7816164E-02  0.1320468E+00
        -11   -1    0    0    0    0  0.00000000000E+00  0.00000000000E+00  0.45593999997E+02  0.45594000000E+02  0.51100000000E-03 0. -1.
         11   -1    0    0    0    0 -0.00000000000E+00 -0.00000000000E+00 -0.45593999997E+02  0.45594000000E+02  0.51100000000E-03 0.  1.
    9900012    2    1    2    0    0 -0.17776302280E+02 -0.23514323355E+02  0.34061607870E+02  0.46142318118E+02  0.10000003252E+02 0.  0.
        -12    1    1    2    0    0  0.17776302280E+02  0.23514323355E+02 -0.34061607870E+02  0.45045681882E+02  0.00000000000E+00 0.  1.
         11    1    3    3    0    0 -0.48647520050E+01 -0.21519701537E+01  0.53781447949E+01  0.75644715155E+01  0.51100000000E-03 0. -1.
        -11    1    3    3    0    0 -0.10044280696E+01 -0.60912923100E+00 -0.63557086489E-01  0.11764157137E+01  0.51100000000E-03 0.  1.
         12    1    3    3    0    0 -0.11907122205E+02 -0.20753223970E+02  0.28747020161E+02  0.37401430889E+02  0.00000000000E+00 0. -1.
</event>
<event>
 7    1  0.1563903E-008  0.4614232E+02  0.7816164E-02  0.1320468E+00
        -11   -1    0    0    0    0  0.00000000000E+00  0.00000000000E+00  0.45593999997E+02  0.45594000000E+02  0.51100000000E-03 0.  1.
         11   -1    0    0    0    0 -0.00000000000E+00 -0.00000000000E+00 -0.45593999997E+02  0.45594000000E+02  0.51100000000E-03 0. -1.
    9900012    2    1    2    0    0  0.42857103892E+01 -0.29825832223E+02 -0.33483815344E+02  0.46142317950E+02  0.10000001725E+02 0.  0.
        -12    1    1    2    0    0 -0.42857103892E+01  0.29825832223E+02  0.33483815344E+02  0.45045682050E+02  0.00000000000E+00 0.  1.
         11    1    3    3    0    0  0.38064569989E+00 -0.14347324109E+02 -0.21284928326E+02  0.25671750512E+02  0.51100000000E-03 0. -1.
        -11    1    3    3    0    0  0.40391514790E+01 -0.93921421323E+01 -0.88512912522E+01  0.13523033520E+02  0.51100000000E-03 0.  1.
         12    1    3    3    0    0 -0.13408678976E+00 -0.60863659816E+01 -0.33475957657E+01  0.69475339178E+01  0.00000000000E+00 0. -1.
</event>
<event>
 7    1  0.1563903E-008  0.4614232E+02  0.7816164E-02  0.1320468E+00
        -11   -1    0    0    0    0  0.00000000000E+00  0.00000000000E+00  0.45593999997E+02  0.45594000000E+02  0.51100000000E-03 0.  1.
         11   -1    0    0    0    0 -0.00000000000E+00 -0.00000000000E+00 -0.45593999997E+02  0.45594000000E+02  0.51100000000E-03 0. -1.
    9900012    2    1    2    0    0  0.23670740044E+02 -0.13172354919E+01 -0.38302405883E+02  0.46142319408E+02  0.10000015014E+02 0.  0.
        -12    1    1    2    0    0 -0.23670740044E+02  0.13172354919E+01  0.38302405883E+02  0.45045680592E+02  0.00000000000E+00 0.  1.
         11    1    3    3    0    0  0.17163768770E+02 -0.15712843949E+01 -0.21165006235E+02  0.27295079817E+02  0.51100000000E-03 0. -1.
        -11    1    3    3    0    0  0.54102378525E+01 -0.16389044457E+01 -0.12595499211E+02  0.13805914748E+02  0.51100000000E-03 0.  1.
         12    1    3    3    0    0  0.10967334215E+01  0.18929533487E+01 -0.45419004384E+01  0.50413248428E+01  0.00000000000E+00 0. -1.
</event>
<event>
 7    1  0.1563903E-008  0.4614232E+02  0.7816164E-02  0.1320468E+00
        -11   -1    0    0    0    0  0.00000000000E+00  0.00000000000E+00  0.45593999997E+02  0.45594000000E+02  0.51100000000E-03 0.  1.
         11   -1    0    0    0    0 -0.00000000000E+00 -0.00000000000E+00 -0.45593999997E+02  0.45594000000E+02  0.51100000000E-03 0. -1.
    9900012    2    1    2    0    0 -0.43997934405E+02  0.93845297250E+00 -0.96132503735E+01  0.46142317536E+02  0.99999979463E+01 0.  0.
        -12    1    1    2    0    0  0.43997934405E+02 -0.93845297250E+00  0.96132503735E+01  0.45045682464E+02  0.00000000000E+00 0.  1.
         11    1    3    3    0    0 -0.15906691364E+02  0.95777676441E+00 -0.43786636896E+01  0.16526126662E+02  0.51100000000E-03 0. -1.
        -11    1    3    3    0    0 -0.17107188400E+02  0.36288779542E+01 -0.42726485872E+01  0.18002226984E+02  0.51100000000E-03 0.  1.
        -12    1    3    3    0    0 -0.10984054641E+02 -0.36482017461E+01 -0.96193809665E+00  0.11613963890E+02  0.00000000000E+00 0.  1.
</event>
<event>
 7    1  0.1563903E-008  0.4614232E+02  0.7816164E-02  0.1320468E+00
        -11   -1    0    0    0    0  0.00000000000E+00  0.00000000000E+00  0.45593999997E+02  0.45594000000E+02  0.51100000000E-03 0. -1.
         11   -1    0    0    0    0 -0.00000000000E+00 -0.00000000000E+00 -0.45593999997E+02  0.45594000000E+02  0.51100000000E-03 0.  1.
    9900012    2    1    2    0    0 -0.41298595809E+02 -0.39408196712E+00  0.17982885453E+02  0.46142317792E+02  0.10000000283E+02 0.  0.
        -12    1    1    2    0    0  0.41298595809E+02  0.39408196712E+00 -0.17982885453E+02  0.45045682208E+02  0.00000000000E+00 0.  1.
         11    1    3    3    0    0 -0.33563062977E+01 -0.73206181196E+00 -0.45418940544E+00  0.34651110715E+01  0.51100000000E-03 0. -1.
        -11    1    3    3    0    0 -0.31306309582E+02  0.13589057314E+01  0.12577280599E+02  0.33765657582E+02  0.51100000000E-03 0.  1.
        -12    1    3    3    0    0 -0.66359799287E+01 -0.10209258866E+01  0.58597942595E+01  0.89115491383E+01  0.00000000000E+00 0.  1.
</event>
<event>
 7    1  0.1563903E-008  0.4614232E+02  0.7816164E-02  0.1320468E+00
        -11   -1    0    0    0    0  0.00000000000E+00  0.00000000000E+00  0.45593999997E+02  0.45594000000E+02  0.51100000000E-03 0.  1.
         11   -1    0    0    0    0 -0.00000000000E+00 -0.00000000000E+00 -0.45593999997E+02  0.45594000000E+02  0.51100000000E-03 0. -1.
    9900012    2    1    2    0    0  0.20364843239E+02 -0.40179421492E+02 -0.27223978168E-01  0.46142317713E+02  0.99999995570E+01 0.  0.
        -12    1    1    2    0    0 -0.20364843239E+02  0.40179421492E+02  0.27223978168E-01  0.45045682287E+02  0.00000000000E+00 0.  1.
         11    1    3    3    0    0  0.11047901579E+02 -0.26370179441E+02  0.13775339485E+01  0.28624117333E+02  0.51100000000E-03 0. -1.
        -11    1    3    3    0    0  0.63610276932E+00 -0.44939815149E+01 -0.15140984793E+01  0.47846620629E+01  0.51100000000E-03 0.  1.
         12    1    3    3    0    0  0.86808388907E+01 -0.93152605359E+01  0.10934055270E+00  0.12733538316E+02  0.00000000000E+00 0. -1.
</event>
<event>
 7    1  0.1563903E-008  0.4614232E+02  0.7816164E-02  0.1320468E+00
        -11   -1    0    0    0    0  0.00000000000E+00  0.00000000000E+00  0.45593999997E+02  0.45594000000E+02  0.51100000000E-03 0. -1.
         11   -1    0    0    0    0 -0.00000000000E+00 -0.00000000000E+00 -0.45593999997E+02  0.45594000000E+02  0.51100000000E-03 0.  1.
    9900012    2    1    2    0    0 -0.32956102207E+02 -0.78696296615E+01  0.29682953306E+02  0.46142318069E+02  0.10000002807E+02 0.  0.
        -12    1    1    2    0    0  0.32956102207E+02  0.78696296615E+01 -0.29682953306E+02  0.45045681931E+02  0.00000000000E+00 0.  1.
         11    1    3    3    0    0 -0.12456488585E+02 -0.47073097527E+01  0.14390510355E+02  0.19606367882E+02  0.51100000000E-03 0. -1.
        -11    1    3    3    0    0 -0.65092068956E+00  0.11961446554E+01  0.85546989762E+00  0.16081942630E+01  0.51100000000E-03 0.  1.
        -12    1    3    3    0    0 -0.19848692932E+02 -0.43584645642E+01  0.14436973053E+02  0.24927755924E+02  0.00000000000E+00 0.  1.
</event>
<event>
 7    1  0.1563903E-008  0.4614232E+02  0.7816164E-02  0.1320468E+00
        -11   -1    0    0    0    0  0.00000000000E+00  0.00000000000E+00  0.45593999997E+02  0.45594000000E+02  0.51100000000E-03 0.  1.
         11   -1    0    0    0    0 -0.00000000000E+00 -0.00000000000E+00 -0.45593999997E+02  0.45594000000E+02  0.51100000000E-03 0. -1.
    9900012    2    1    2    0    0  0.55751860986E+01 -0.15852507004E+01 -0.44671219791E+02  0.46142316550E+02  0.99999889572E+01 0.  0.
        -12    1    1    2    0    0 -0.55751860986E+01  0.15852507004E+01  0.44671219791E+02  0.45045683450E+02  0.00000000000E+00 0.  1.
         11    1    3    3    0    0  0.23236425115E+01 -0.34161655023E+01 -0.35947658296E+02  0.36184300995E+02  0.51100000000E-03 0. -1.
        -11    1    3    3    0    0  0.22575797626E+01  0.25080931172E+01 -0.48984658195E+01  0.59482909407E+01  0.51100000000E-03 0.  1.
        -12    1    3    3    0    0  0.99396382453E+00 -0.67717831529E+00 -0.38250956757E+01  0.40097246144E+01  0.00000000000E+00 0.  1.
</event>
<event>
 7    1  0.1563903E-008  0.4614232E+02  0.7816164E-02  0.1320468E+00
        -11   -1    0    0    0    0  0.00000000000E+00  0.00000000000E+00  0.45593999997E+02  0.45594000000E+02  0.51100000000E-03 0.  1.
         11   -1    0    0    0    0 -0.00000000000E+00 -0.00000000000E+00 -0.45593999997E+02  0.45594000000E+02  0.51100000000E-03 0. -1.
    9900012    2    1    2    0    0  0.30566166638E+02 -0.31569525787E+02 -0.99089897244E+01  0.46142316759E+02  0.99999908585E+01 0.  0.
        -12    1    1    2    0    0 -0.30566166638E+02  0.31569525787E+02  0.99089897244E+01  0.45045683241E+02  0.00000000000E+00 0.  1.
         11    1    3    3    0    0  0.48629170931E+01 -0.50594678643E+01 -0.35438923685E+00  0.70265048009E+01  0.51100000000E-03 0. -1.
        -11    1    3    3    0    0  0.18203848852E+02 -0.20327345738E+02 -0.31322543855E+01  0.27466199511E+02  0.51100000000E-03 0.  1.
        -12    1    3    3    0    0  0.74994006923E+01 -0.61827121842E+01 -0.64223461021E+01  0.11649612446E+02  0.00000000000E+00 0.  1.
</event>
<event>
 7    1  0.1563903E-008  0.4614232E+02  0.7816164E-02  0.1320468E+00
        -11   -1    0    0    0    0  0.00000000000E+00  0.00000000000E+00  0.45593999997E+02  0.45594000000E+02  0.51100000000E-03 0.  1.
         11   -1    0    0    0    0 -0.00000000000E+00 -0.00000000000E+00 -0.45593999997E+02  0.45594000000E+02  0.51100000000E-03 0. -1.
    9900012    2    1    2    0    0 -0.63782096815E+01 -0.15467665520E+01 -0.44565002347E+02  0.46142317857E+02  0.10000000878E+02 0.  0.
        -12    1    1    2    0    0  0.63782096815E+01  0.15467665520E+01  0.44565002347E+02  0.45045682143E+02  0.00000000000E+00 0.  1.
         11    1    3    3    0    0 -0.92678827277E+00 -0.31563456334E+01 -0.97435709508E+01  0.10283901468E+02  0.51100000000E-03 0. -1.
        -11    1    3    3    0    0  0.96356405381E+00  0.10939869557E+01 -0.24293119994E+01  0.28331643434E+01  0.51100000000E-03 0.  1.
         12    1    3    3    0    0 -0.64149854625E+01  0.51559212575E+00 -0.32392119397E+02  0.33025252046E+02  0.00000000000E+00 0. -1.
</event>
<event>
 7    1  0.1563903E-008  0.4614232E+02  0.7816164E-02  0.1320468E+00
        -11   -1    0    0    0    0  0.00000000000E+00  0.00000000000E+00  0.45593999997E+02  0.45594000000E+02  0.51100000000E-03 0. -1.
         11   -1    0    0    0    0 -0.00000000000E+00 -0.00000000000E+00 -0.45593999997E+02  0.45594000000E+02  0.51100000000E-03 0.  1.
    9900012    2    1    2    0    0  0.27361207210E+02 -0.34258307276E+02  0.10336640297E+02  0.46142318631E+02  0.10000007928E+02 0.  0.
        -12    1    1    2    0    0 -0.27361207210E+02  0.34258307276E+02 -0.10336640297E+02  0.45045681369E+02  0.00000000000E+00 0.  1.
         11    1    3    3    0    0  0.24198401953E+02 -0.25103627692E+02  0.94835539714E+01  0.36134368357E+02  0.51100000000E-03 0. -1.
        -11    1    3    3    0    0  0.35126990614E+01 -0.87581505169E+01  0.72695376437E+00  0.94642864079E+01  0.51100000000E-03 0.  1.
         12    1    3    3    0    0 -0.34989380464E+00 -0.39652906717E+00  0.12613256120E+00  0.54366386548E+00  0.00000000000E+00 0. -1.
</event>
<event>
 7    1  0.1563903E-008  0.4614232E+02  0.7816164E-02  0.1320468E+00
        -11   -1    0    0    0    0  0.00000000000E+00  0.00000000000E+00  0.45593999997E+02  0.45594000000E+02  0.51100000000E-03 0.  1.
         11   -1    0    0    0    0 -0.00000000000E+00 -0.00000000000E+00 -0.45593999997E+02  0.45594000000E+02  0.51100000000E-03 0. -1.
    9900012    2    1    2    0    0 -0.25696027976E+02 -0.36995516631E+02  0.39941328100E+00  0.46142316128E+02  0.99999851088E+01 0.  0.
        -12    1    1    2    0    0  0.25696027976E+02  0.36995516631E+02 -0.39941328100E+00  0.45045683872E+02  0.00000000000E+00 0.  1.
         11    1    3    3    0    0 -0.16405724888E+02 -0.25057615958E+02 -0.37723919750E+01  0.30187130836E+02  0.51100000000E-03 0. -1.
        -11    1    3    3    0    0 -0.74389597213E+00 -0.13727170484E+01 -0.41030605610E+00  0.16143372117E+01  0.51100000000E-03 0.  1.
         12    1    3    3    0    0 -0.85464071151E+01 -0.10565183624E+02  0.45821113121E+01  0.14340848081E+02  0.00000000000E+00 0. -1.
</event>
<event>
 7    1  0.1563903E-008  0.4614232E+02  0.7816164E-02  0.1320468E+00
        -11   -1    0    0    0    0  0.00000000000E+00  0.00000000000E+00  0.45593999997E+02  0.45594000000E+02  0.51100000000E-03 0.  1.
         11   -1    0    0    0    0 -0.00000000000E+00 -0.00000000000E+00 -0.45593999997E+02  0.45594000000E+02  0.51100000000E-03 0. -1.
    9900012    2    1    2    0    0 -0.23763969555E+02 -0.32146118676E+02 -0.20760883031E+02  0.46142318085E+02  0.10000002956E+02 0.  0.
        -12    1    1    2    0    0  0.23763969555E+02  0.32146118676E+02  0.20760883031E+02  0.45045681915E+02  0.00000000000E+00 0.  1.
         11    1    3    3    0    0 -0.26282307582E+01 -0.79554364574E+01 -0.77460713271E+01  0.11410442034E+02  0.51100000000E-03 0. -1.
        -11    1    3    3    0    0 -0.15560939957E+02 -0.19222078250E+02 -0.98165937378E+01  0.26608206581E+02  0.51100000000E-03 0.  1.
         12    1    3    3    0    0 -0.55747988400E+01 -0.49686039684E+01 -0.31982179665E+01  0.81236694703E+01  0.00000000000E+00 0. -1.
</event>
<event>
 7    1  0.1563903E-008  0.4614232E+02  0.7816164E-02  0.1320468E+00
        -11   -1    0    0    0    0  0.00000000000E+00  0.00000000000E+00  0.45593999997E+02  0.45594000000E+02  0.51100000000E-03 0. -1.
         11   -1    0    0    0    0 -0.00000000000E+00 -0.00000000000E+00 -0.45593999997E+02  0.45594000000E+02  0.51100000000E-03 0.  1.
    9900012    2    1    2    0    0  0.55847251504E+01  0.44594188118E+02 -0.30467488457E+01  0.46142318216E+02  0.10000004144E+02 0.  0.
        -12    1    1    2    0    0 -0.55847251504E+01 -0.44594188118E+02  0.30467488457E+01  0.45045681784E+02  0.00000000000E+00 0.  1.
         11    1    3    3    0    0  0.47855101963E+01  0.28084348665E+02 -0.38795217943E+01  0.28752085792E+02  0.51100000000E-03 0. -1.
        -11    1    3    3    0    0 -0.93832243929E-01  0.97405577218E+00 -0.13595816736E+01  0.16751273759E+01  0.51100000000E-03 0.  1.
         12    1    3    3    0    0  0.89304719796E+00  0.15535783681E+02  0.21923546222E+01  0.15715105048E+02  0.00000000000E+00 0. -1.
</event>
<event>
 7    1  0.1563903E-008  0.4614232E+02  0.7816164E-02  0.1320468E+00
        -11   -1    0    0    0    0  0.00000000000E+00  0.00000000000E+00  0.45593999997E+02  0.45594000000E+02  0.51100000000E-03 0.  1.
         11   -1    0    0    0    0 -0.00000000000E+00 -0.00000000000E+00 -0.45593999997E+02  0.45594000000E+02  0.51100000000E-03 0. -1.
    9900012    2    1    2    0    0  0.44955378249E+02  0.26444725362E+01  0.10649973347E+01  0.46142317767E+02  0.10000000051E+02 0.  0.
        -12    1    1    2    0    0 -0.44955378249E+02 -0.26444725362E+01 -0.10649973347E+01  0.45045682233E+02  0.00000000000E+00 0.  1.
         11    1    3    3    0    0  0.31340447225E+02  0.24426660410E+01 -0.12288778344E+01  0.31459503979E+02  0.51100000000E-03 0.  1.
        -11    1    3    3    0    0  0.11872505023E+02 -0.16188459062E+01  0.18773931816E+01  0.12128546616E+02  0.51100000000E-03 0. -1.
        -12    1    3    3    0    0  0.17424260015E+01  0.18206524014E+01  0.41648198745E+00  0.25542671715E+01  0.00000000000E+00 0.  1.
</event>
<event>
 7    1  0.1563903E-008  0.4614232E+02  0.7816164E-02  0.1320468E+00
        -11   -1    0    0    0    0  0.00000000000E+00  0.00000000000E+00  0.45593999997E+02  0.45594000000E+02  0.51100000000E-03 0. -1.
         11   -1    0    0    0    0 -0.00000000000E+00 -0.00000000000E+00 -0.45593999997E+02  0.45594000000E+02  0.51100000000E-03 0.  1.
    9900012    2    1    2    0    0 -0.32016819715E+02  0.29620350819E+02 -0.11254851081E+02  0.46142316521E+02  0.99999886889E+01 0.  0.
        -12    1    1    2    0    0  0.32016819715E+02 -0.29620350819E+02  0.11254851081E+02  0.45045683479E+02  0.00000000000E+00 0.  1.
         11    1    3    3    0    0 -0.18891323793E+02  0.15258502870E+02 -0.61183759458E+01  0.25042734455E+02  0.51100000000E-03 0. -1.
        -11    1    3    3    0    0  0.82718350124E-01  0.23929621566E-01 -0.12107453229E+01  0.12138037116E+01  0.51100000000E-03 0.  1.
         12    1    3    3    0    0 -0.13208214271E+02  0.14337918327E+02 -0.39257298121E+01  0.19885778354E+02  0.00000000000E+00 0. -1.
</event>
<event>
 7    1  0.1563903E-008  0.4614232E+02  0.7816164E-02  0.1320468E+00
        -11   -1    0    0    0    0  0.00000000000E+00  0.00000000000E+00  0.45593999997E+02  0.45594000000E+02  0.51100000000E-03 0.  1.
         11   -1    0    0    0    0 -0.00000000000E+00 -0.00000000000E+00 -0.45593999997E+02  0.45594000000E+02  0.51100000000E-03 0. -1.
    9900012    2    1    2    0    0  0.71864980345E+01  0.89214506320E+01 -0.43564611934E+02  0.46142318205E+02  0.10000004049E+02 0.  0.
        -12    1    1    2    0    0 -0.71864980345E+01 -0.89214506320E+01  0.43564611934E+02  0.45045681795E+02  0.00000000000E+00 0.  1.
         11    1    3    3    0    0 -0.11464904947E+01  0.98420653624E+00 -0.81815545386E+01  0.83199121323E+01  0.51100000000E-03 0. -1.
        -11    1    3    3    0    0  0.58551806465E+01  0.84348360808E+01 -0.23057304650E+02  0.25240223812E+02  0.51100000000E-03 0.  1.
        -12    1    3    3    0    0  0.24778078828E+01 -0.49759198501E+00 -0.12325752746E+02  0.12582182260E+02  0.00000000000E+00 0.  1.
</event>
<event>
 7    1  0.1563903E-008  0.4614232E+02  0.7816164E-02  0.1320468E+00
        -11   -1    0    0    0    0  0.00000000000E+00  0.00000000000E+00  0.45593999997E+02  0.45594000000E+02  0.51100000000E-03 0.  1.
         11   -1    0    0    0    0 -0.00000000000E+00 -0.00000000000E+00 -0.45593999997E+02  0.45594000000E+02  0.51100000000E-03 0. -1.
    9900012    2    1    2    0    0 -0.36219534731E+02 -0.23742489244E+02 -0.12391650825E+02  0.46142317611E+02  0.99999986356E+01 0.  0.
        -12    1    1    2    0    0  0.36219534731E+02  0.23742489244E+02  0.12391650825E+02  0.45045682389E+02  0.00000000000E+00 0.  1.
         11    1    3    3    0    0 -0.67189659824E+01 -0.29698360910E+01  0.10635325187E+01  0.74226364561E+01  0.51100000000E-03 0. -1.
        -11    1    3    3    0    0 -0.10544312826E+02 -0.88476318572E+01 -0.68244710466E+01  0.15363480327E+02  0.51100000000E-03 0.  1.
         12    1    3    3    0    0 -0.18956255923E+02 -0.11925021296E+02 -0.66307122975E+01  0.23356200828E+02  0.00000000000E+00 0. -1.
</event>
<event>
 7    1  0.1563903E-008  0.4614232E+02  0.7816164E-02  0.1320468E+00
        -11   -1    0    0    0    0  0.00000000000E+00  0.00000000000E+00  0.45593999997E+02  0.45594000000E+02  0.51100000000E-03 0.  1.
         11   -1    0    0    0    0 -0.00000000000E+00 -0.00000000000E+00 -0.45593999997E+02  0.45594000000E+02  0.51100000000E-03 0. -1.
    9900012    2    1    2    0    0 -0.26686454155E+02 -0.36000141674E+02  0.45756300771E+01  0.46142318448E+02  0.10000006261E+02 0.  0.
        -12    1    1    2    0    0  0.26686454155E+02  0.36000141674E+02 -0.45756300771E+01  0.45045681552E+02  0.00000000000E+00 0.  1.
         11    1    3    3    0    0 -0.11258417143E+02 -0.14964363579E+02  0.36583792541E+01  0.19080562699E+02  0.51100000000E-03 0. -1.
        -11    1    3    3    0    0 -0.74926492664E+00 -0.17786087174E+01  0.20577173883E+01  0.28211784791E+01  0.51100000000E-03 0.  1.
         12    1    3    3    0    0 -0.14678772085E+02 -0.19257169377E+02 -0.11404665653E+01  0.24240577269E+02  0.00000000000E+00 0. -1.
</event>
<event>
 7    1  0.1563903E-008  0.4614232E+02  0.7816164E-02  0.1320468E+00
        -11   -1    0    0    0    0  0.00000000000E+00  0.00000000000E+00  0.45593999997E+02  0.45594000000E+02  0.51100000000E-03 0. -1.
         11   -1    0    0    0    0 -0.00000000000E+00 -0.00000000000E+00 -0.45593999997E+02  0.45594000000E+02  0.51100000000E-03 0.  1.
    9900012    2    1    2    0    0 -0.31099057469E+02 -0.30427747685E+02  0.11666800529E+02  0.46142318307E+02  0.10000004975E+02 0.  0.
        -12    1    1    2    0    0  0.31099057469E+02  0.30427747685E+02 -0.11666800529E+02  0.45045681693E+02  0.00000000000E+00 0.  1.
         11    1    3    3    0    0 -0.24699794782E+02 -0.19625390043E+02  0.51708102148E+01  0.31968313611E+02  0.51100000000E-03 0. -1.
        -11    1    3    3    0    0 -0.47856676093E+01 -0.78738151165E+01  0.42571529591E+01  0.10150021209E+02  0.51100000000E-03 0.  1.
        -12    1    3    3    0    0 -0.16135950771E+01 -0.29285425257E+01  0.22388373555E+01  0.40239834869E+01  0.00000000000E+00 0.  1.
</event>
<event>
 7    1  0.1563903E-008  0.4614231E+02  0.7816164E-02  0.1320468E+00
        -11   -1    0    0    0    0  0.00000000000E+00  0.00000000000E+00  0.45593999997E+02  0.45594000000E+02  0.51100000000E-03 0.  1.
         11   -1    0    0    0    0 -0.00000000000E+00 -0.00000000000E+00 -0.45593999997E+02  0.45594000000E+02  0.51100000000E-03 0. -1.
    9900012    2    1    2    0    0  0.95050329824E+01 -0.42141091799E+02 -0.12763121883E+02  0.46142305975E+02  0.99998925208E+01 0.  0.
        -12    1    1    2    0    0 -0.95050329824E+01  0.42141091799E+02  0.12763121883E+02  0.45045694025E+02  0.00000000000E+00 0.  1.
         11    1    3    3    0    0  0.40557219528E+01 -0.11298148479E+02 -0.55169364167E+01  0.13211117564E+02  0.51100000000E-03 0. -1.
        -11    1    3    3    0    0  0.60308279108E+01 -0.15269521344E+02 -0.22808683167E+01  0.16575027237E+02  0.51100000000E-03 0.  1.
         12    1    3    3    0    0 -0.58151688122E+00 -0.15573421976E+02 -0.49653171492E+01  0.16356161173E+02  0.00000000000E+00 0. -1.
</event>
<event>
 7    1  0.1563903E-008  0.4614232E+02  0.7816164E-02  0.1320468E+00
        -11   -1    0    0    0    0  0.00000000000E+00  0.00000000000E+00  0.45593999997E+02  0.45594000000E+02  0.51100000000E-03 0.  1.
         11   -1    0    0    0    0 -0.00000000000E+00 -0.00000000000E+00 -0.45593999997E+02  0.45594000000E+02  0.51100000000E-03 0. -1.
    9900012    2    1    2    0    0 -0.22816745842E+02 -0.92522516455E+01 -0.37721417911E+02  0.46142318513E+02  0.10000006860E+02 0.  0.
        -12    1    1    2    0    0  0.22816745842E+02  0.92522516455E+01  0.37721417911E+02  0.45045681487E+02  0.00000000000E+00 0.  1.
         11    1    3    3    0    0 -0.80168325914E+01 -0.38812495656E+01 -0.15769008027E+02  0.18110640999E+02  0.51100000000E-03 0. -1.
        -11    1    3    3    0    0 -0.15017491951E+02 -0.62260201375E+01 -0.21699695888E+02  0.27113929873E+02  0.51100000000E-03 0.  1.
        -12    1    3    3    0    0  0.21757870016E+00  0.85501805751E+00 -0.25271399666E+00  0.91774764154E+00  0.00000000000E+00 0.  1.
</event>
<event>
 7    1  0.1563903E-008  0.4614232E+02  0.7816164E-02  0.1320468E+00
        -11   -1    0    0    0    0  0.00000000000E+00  0.00000000000E+00  0.45593999997E+02  0.45594000000E+02  0.51100000000E-03 0.  1.
         11   -1    0    0    0    0 -0.00000000000E+00 -0.00000000000E+00 -0.45593999997E+02  0.45594000000E+02  0.51100000000E-03 0. -1.
    9900012    2    1    2    0    0  0.28612598731E+02 -0.21530405578E+02 -0.27329001181E+02  0.46142317898E+02  0.10000001248E+02 0.  0.
        -12    1    1    2    0    0 -0.28612598731E+02  0.21530405578E+02  0.27329001181E+02  0.45045682102E+02  0.00000000000E+00 0.  1.
         11    1    3    3    0    0  0.26161942465E+01 -0.33042801510E+01 -0.43235995122E+01  0.60379013452E+01  0.51100000000E-03 0. -1.
        -11    1    3    3    0    0  0.23054718960E+02 -0.15507992963E+02 -0.23046029336E+02  0.36098994176E+02  0.51100000000E-03 0.  1.
        -12    1    3    3    0    0  0.29416855243E+01 -0.27181324634E+01  0.40627666957E-01  0.40054223772E+01  0.00000000000E+00 0.  1.
</event>
<event>
 7    1  0.1563903E-008  0.4614232E+02  0.7816164E-02  0.1320468E+00
        -11   -1    0    0    0    0  0.00000000000E+00  0.00000000000E+00  0.45593999997E+02  0.45594000000E+02  0.51100000000E-03 0. -1.
         11   -1    0    0    0    0 -0.00000000000E+00 -0.00000000000E+00 -0.45593999997E+02  0.45594000000E+02  0.51100000000E-03 0.  1.
    9900012    2    1    2    0    0 -0.36044949525E+02 -0.23806987572E+02 -0.12771157295E+02  0.46142317608E+02  0.99999986018E+01 0.  0.
        -12    1    1    2    0    0  0.36044949525E+02  0.23806987572E+02  0.12771157295E+02  0.45045682392E+02  0.00000000000E+00 0.  1.
         11    1    3    3    0    0 -0.16344170545E+02 -0.64133179136E+01 -0.81137128098E+01  0.19341532858E+02  0.51100000000E-03 0. -1.
        -11    1    3    3    0    0 -0.11946808651E+02 -0.12045692048E+02 -0.33144270885E+01  0.17286132044E+02  0.51100000000E-03 0.  1.
         12    1    3    3    0    0 -0.77539703292E+01 -0.53479776108E+01 -0.13430173969E+01  0.95146527062E+01  0.00000000000E+00 0. -1.
</event>
<event>
 7    1  0.1563903E-008  0.4614232E+02  0.7816164E-02  0.1320468E+00
        -11   -1    0    0    0    0  0.00000000000E+00  0.00000000000E+00  0.45593999997E+02  0.45594000000E+02  0.51100000000E-03 0.  1.
         11   -1    0    0    0    0 -0.00000000000E+00 -0.00000000000E+00 -0.45593999997E+02  0.45594000000E+02  0.51100000000E-03 0. -1.
    9900012    2    1    2    0    0  0.33565442631E+02  0.29827872621E+02 -0.35738698180E+01  0.46142317969E+02  0.10000001896E+02 0.  0.
        -12    1    1    2    0    0 -0.33565442631E+02 -0.29827872621E+02  0.35738698180E+01  0.45045682031E+02  0.00000000000E+00 0.  1.
         11    1    3    3    0    0  0.24178461646E+01  0.38731168180E+01 -0.13978521700E+01  0.47750397812E+01  0.51100000000E-03 0. -1.
        -11    1    3    3    0    0  0.35749066308E+01  0.97017765592E+00 -0.18878149942E+01  0.41575290518E+01  0.51100000000E-03 0.  1.
        -12    1    3    3    0    0  0.27572689836E+02  0.24984578148E+02 -0.28820265386E+00  0.37209749136E+02  0.00000000000E+00 0.  1.
</event>
<event>
 7    1  0.1563903E-008  0.4614231E+02  0.7816164E-02  0.1320468E+00
        -11   -1    0    0    0    0  0.00000000000E+00  0.00000000000E+00  0.45593999997E+02  0.45594000000E+02  0.51100000000E-03 0.  1.
         11   -1    0    0    0    0 -0.00000000000E+00 -0.00000000000E+00 -0.45593999997E+02  0.45594000000E+02  0.51100000000E-03 0. -1.
    9900012    2    1    2    0    0  0.43516203527E+02  0.11382702319E+02 -0.24265218305E+01  0.46142313306E+02  0.99999593780E+01 0.  0.
        -12    1    1    2    0    0 -0.43516203527E+02 -0.11382702319E+02  0.24265218305E+01  0.45045686694E+02  0.00000000000E+00 0.  1.
         11    1    3    3    0    0  0.23729412399E+02  0.33740634811E+01 -0.10004250707E+00  0.23968298353E+02  0.51100000000E-03 0. -1.
        -11    1    3    3    0    0  0.10504513509E+02  0.71906216040E+01 -0.15382867329E+01  0.12822486867E+02  0.51100000000E-03 0.  1.
        -12    1    3    3    0    0  0.92822776188E+01  0.81801723384E+00 -0.78819259054E+00  0.93515280862E+01  0.00000000000E+00 0.  1.
</event>
<event>
 7    1  0.1563903E-008  0.4614232E+02  0.7816164E-02  0.1320468E+00
        -11   -1    0    0    0    0  0.00000000000E+00  0.00000000000E+00  0.45593999997E+02  0.45594000000E+02  0.51100000000E-03 0. -1.
         11   -1    0    0    0    0 -0.00000000000E+00 -0.00000000000E+00 -0.45593999997E+02  0.45594000000E+02  0.51100000000E-03 0.  1.
    9900012    2    1    2    0    0 -0.21037637034E+02  0.20149406255E+02  0.34358881879E+02  0.46142317539E+02  0.99999979756E+01 0.  0.
        -12    1    1    2    0    0  0.21037637034E+02 -0.20149406255E+02 -0.34358881879E+02  0.45045682461E+02  0.00000000000E+00 0.  1.
         11    1    3    3    0    0 -0.11226231114E+02  0.14756097716E+02  0.22324667710E+02  0.29020018495E+02  0.51100000000E-03 0. -1.
        -11    1    3    3    0    0 -0.56004589994E+01  0.22633972134E+01  0.31703079320E+01  0.68219469797E+01  0.51100000000E-03 0.  1.
         12    1    3    3    0    0 -0.42109469202E+01  0.31299113259E+01  0.88639062369E+01  0.10300352064E+02  0.00000000000E+00 0. -1.
</event>
<event>
 7    1  0.1563903E-008  0.4614232E+02  0.7816164E-02  0.1320468E+00
        -11   -1    0    0    0    0  0.00000000000E+00  0.00000000000E+00  0.45593999997E+02  0.45594000000E+02  0.51100000000E-03 0.  1.
         11   -1    0    0    0    0 -0.00000000000E+00 -0.00000000000E+00 -0.45593999997E+02  0.45594000000E+02  0.51100000000E-03 0. -1.
    9900012    2    1    2    0    0 -0.32499182884E+02  0.32144073251E+01 -0.31025540958E+02  0.46142317695E+02  0.99999993988E+01 0.  0.
        -12    1    1    2    0    0  0.32499182884E+02 -0.32144073251E+01  0.31025540958E+02  0.45045682305E+02  0.00000000000E+00 0.  1.
         11    1    3    3    0    0 -0.24926627274E+02  0.30905876811E+01 -0.25205100849E+02  0.35583501634E+02  0.51100000000E-03 0. -1.
        -11    1    3    3    0    0 -0.34351707552E+01  0.13873260887E+01 -0.55804046650E+00  0.37465292228E+01  0.51100000000E-03 0.  1.
        -12    1    3    3    0    0 -0.41373848547E+01 -0.12635064446E+01 -0.52623996420E+01  0.68122868380E+01  0.00000000000E+00 0.  1.
</event>
<event>
 7    1  0.1563903E-008  0.4614232E+02  0.7816164E-02  0.1320468E+00
        -11   -1    0    0    0    0  0.00000000000E+00  0.00000000000E+00  0.45593999997E+02  0.45594000000E+02  0.51100000000E-03 0.  1.
         11   -1    0    0    0    0 -0.00000000000E+00 -0.00000000000E+00 -0.45593999997E+02  0.45594000000E+02  0.51100000000E-03 0. -1.
    9900012    2    1    2    0    0  0.33992873864E+02  0.24434299444E+02 -0.16630183444E+02  0.46142318029E+02  0.10000002444E+02 0.  0.
        -12    1    1    2    0    0 -0.33992873864E+02 -0.24434299444E+02  0.16630183444E+02  0.45045681971E+02  0.00000000000E+00 0.  1.
         11    1    3    3    0    0  0.21248116287E+02  0.12568100241E+02 -0.10902773348E+02  0.26987220241E+02  0.51100000000E-03 0. -1.
        -11    1    3    3    0    0  0.41472748653E+01  0.31661474005E+01  0.81964740376E+00  0.52816853652E+01  0.51100000000E-03 0.  1.
        -12    1    3    3    0    0  0.85974827115E+01  0.87000518025E+01 -0.65470574994E+01  0.13873412422E+02  0.00000000000E+00 0.  1.
</event>
<event>
 7    1  0.1563903E-008  0.4614232E+02  0.7816164E-02  0.1320468E+00
        -11   -1    0    0    0    0  0.00000000000E+00  0.00000000000E+00  0.45593999997E+02  0.45594000000E+02  0.51100000000E-03 0.  1.
         11   -1    0    0    0    0 -0.00000000000E+00 -0.00000000000E+00 -0.45593999997E+02  0.45594000000E+02  0.51100000000E-03 0. -1.
    9900012    2    1    2    0    0  0.15091393446E+02 -0.16798196277E+02 -0.38976710052E+02  0.46142317846E+02  0.10000000772E+02 0.  0.
        -12    1    1    2    0    0 -0.15091393446E+02  0.16798196277E+02  0.38976710052E+02  0.45045682154E+02  0.00000000000E+00 0.  1.
         11    1    3    3    0    0  0.42146183569E+01 -0.75360227695E+01 -0.23255218999E+02  0.24806447913E+02  0.51100000000E-03 0. -1.
        -11    1    3    3    0    0  0.75808753067E+01 -0.73015041819E+01 -0.12378579301E+02  0.16248410984E+02  0.51100000000E-03 0.  1.
         12    1    3    3    0    0  0.32958997827E+01 -0.19606693253E+01 -0.33429117507E+01  0.50874589487E+01  0.00000000000E+00 0. -1.
</event>
<event>
 7    1  0.1563903E-008  0.4614232E+02  0.7816164E-02  0.1320468E+00
        -11   -1    0    0    0    0  0.00000000000E+00  0.00000000000E+00  0.45593999997E+02  0.45594000000E+02  0.51100000000E-03 0.  1.
         11   -1    0    0    0    0 -0.00000000000E+00 -0.00000000000E+00 -0.45593999997E+02  0.45594000000E+02  0.51100000000E-03 0. -1.
    9900012    2    1    2    0    0  0.20733348459E+02 -0.28402847012E+02 -0.28151731441E+02  0.46142318300E+02  0.10000004912E+02 0.  0.
        -12    1    1    2    0    0 -0.20733348459E+02  0.28402847012E+02  0.28151731441E+02  0.45045681700E+02  0.00000000000E+00 0.  1.
         11    1    3    3    0    0  0.45841702405E+01 -0.72924976769E+01 -0.43330581695E+01  0.96421228224E+01  0.51100000000E-03 0. -1.
        -11    1    3    3    0    0  0.61347668471E+01 -0.14114215539E+02 -0.14379157076E+02  0.21061970540E+02  0.51100000000E-03 0.  1.
        -12    1    3    3    0    0  0.10014411371E+02 -0.69961337962E+01 -0.94395161951E+01  0.15438224937E+02  0.00000000000E+00 0.  1.
</event>
<event>
 7    1  0.1563903E-008  0.4614232E+02  0.7816164E-02  0.1320468E+00
        -11   -1    0    0    0    0  0.00000000000E+00  0.00000000000E+00  0.45593999997E+02  0.45594000000E+02  0.51100000000E-03 0.  1.
         11   -1    0    0    0    0 -0.00000000000E+00 -0.00000000000E+00 -0.45593999997E+02  0.45594000000E+02  0.51100000000E-03 0. -1.
    9900012    2    1    2    0    0  0.41878336756E+02 -0.12248534531E+02  0.11193381626E+02  0.46142317856E+02  0.10000000864E+02 0.  0.
        -12    1    1    2    0    0 -0.41878336756E+02  0.12248534531E+02 -0.11193381626E+02  0.45045682144E+02  0.00000000000E+00 0.  1.
         11    1    3    3    0    0  0.33559074676E+02 -0.63526915092E+01  0.78388848057E+01  0.35043063476E+02  0.51100000000E-03 0. -1.
        -11    1    3    3    0    0  0.36102591207E+01 -0.42708663459E+01  0.19663418978E+01  0.59279651638E+01  0.51100000000E-03 0.  1.
         12    1    3    3    0    0  0.47090029594E+01 -0.16249766758E+01  0.13881549226E+01  0.51712892162E+01  0.00000000000E+00 0. -1.
</event>
<event>
 7    1  0.1563903E-008  0.4614232E+02  0.7816164E-02  0.1320468E+00
        -11   -1    0    0    0    0  0.00000000000E+00  0.00000000000E+00  0.45593999997E+02  0.45594000000E+02  0.51100000000E-03 0.  1.
         11   -1    0    0    0    0 -0.00000000000E+00 -0.00000000000E+00 -0.45593999997E+02  0.45594000000E+02  0.51100000000E-03 0. -1.
    9900012    2    1    2    0    0 -0.13130394904E+02  0.42309428966E+02  0.81620039923E+01  0.46142319198E+02  0.10000013105E+02 0.  0.
        -12    1    1    2    0    0  0.13130394904E+02 -0.42309428966E+02 -0.81620039923E+01  0.45045680802E+02  0.00000000000E+00 0.  1.
         11    1    3    3    0    0 -0.10095720828E+02  0.24753890041E+02  0.32451593657E+01  0.26929717985E+02  0.51100000000E-03 0. -1.
        -11    1    3    3    0    0  0.14502483794E+01  0.56449422382E+01  0.11587673559E+01  0.59423341610E+01  0.51100000000E-03 0.  1.
        -12    1    3    3    0    0 -0.44849224553E+01  0.11910596686E+02  0.37580772708E+01  0.13270267052E+02  0.00000000000E+00 0.  1.
</event>
<event>
 7    1  0.1563903E-008  0.4614232E+02  0.7816164E-02  0.1320468E+00
        -11   -1    0    0    0    0  0.00000000000E+00  0.00000000000E+00  0.45593999997E+02  0.45594000000E+02  0.51100000000E-03 0.  1.
         11   -1    0    0    0    0 -0.00000000000E+00 -0.00000000000E+00 -0.45593999997E+02  0.45594000000E+02  0.51100000000E-03 0. -1.
    9900012    2    1    2    0    0  0.31117989894E+01 -0.20752748037E+02 -0.39859172134E+02  0.46142318218E+02  0.10000004163E+02 0.  0.
        -12    1    1    2    0    0 -0.31117989894E+01  0.20752748037E+02  0.39859172134E+02  0.45045681782E+02  0.00000000000E+00 0.  1.
         11    1    3    3    0    0  0.35156987123E+01 -0.11815289863E+02 -0.31622440678E+02  0.33940241111E+02  0.51100000000E-03 0. -1.
        -11    1    3    3    0    0  0.27377534633E+00 -0.44701486350E+01 -0.43165347669E+01  0.62201008363E+01  0.51100000000E-03 0.  1.
         12    1    3    3    0    0 -0.67767506929E+00 -0.44673095389E+01 -0.39201966889E+01  0.59819762700E+01  0.00000000000E+00 0. -1.
</event>
<event>
 7    1  0.1563903E-008  0.4614232E+02  0.7816164E-02  0.1320468E+00
        -11   -1    0    0    0    0  0.00000000000E+00  0.00000000000E+00  0.45593999997E+02  0.45594000000E+02  0.51100000000E-03 0.  1.
         11   -1    0    0    0    0 -0.00000000000E+00 -0.00000000000E+00 -0.45593999997E+02  0.45594000000E+02  0.51100000000E-03 0. -1.
    9900012    2    1    2    0    0  0.13408560261E+02 -0.12758891584E+02 -0.41067435222E+02  0.46142322756E+02  0.10000045544E+02 0.  0.
        -12    1    1    2    0    0 -0.13408560261E+02  0.12758891584E+02  0.41067435222E+02  0.45045677244E+02  0.00000000000E+00 0.  1.
         11    1    3    3    0    0 -0.30199076995E-01 -0.28749077457E+01 -0.30132831171E+01  0.41648387647E+01  0.51100000000E-03 0. -1.
        -11    1    3    3    0    0  0.56946956834E+01 -0.15949689746E+01 -0.17882679305E+02  0.18835172002E+02  0.51100000000E-03 0.  1.
        -12    1    3    3    0    0  0.77440636544E+01 -0.82890148642E+01 -0.20171472800E+02  0.23142311989E+02  0.00000000000E+00 0.  1.
</event>
<event>
 7    1  0.1563903E-008  0.4614232E+02  0.7816164E-02  0.1320468E+00
        -11   -1    0    0    0    0  0.00000000000E+00  0.00000000000E+00  0.45593999997E+02  0.45594000000E+02  0.51100000000E-03 0.  1.
         11   -1    0    0    0    0 -0.00000000000E+00 -0.00000000000E+00 -0.45593999997E+02  0.45594000000E+02  0.51100000000E-03 0. -1.
    9900012    2    1    2    0    0 -0.11577192308E+02  0.29896347280E+02 -0.31643166864E+02  0.46142323497E+02  0.10000052301E+02 0.  0.
        -12    1    1    2    0    0  0.11577192308E+02 -0.29896347280E+02  0.31643166864E+02  0.45045676503E+02  0.00000000000E+00 0.  1.
         11    1    3    3    0    0 -0.10661280188E+02  0.14611477985E+02 -0.15198731945E+02  0.23625402370E+02  0.51100000000E-03 0. -1.
        -11    1    3    3    0    0  0.10242252412E+00  0.66996788935E+01 -0.79456586750E+01  0.10393732712E+02  0.51100000000E-03 0.  1.
         12    1    3    3    0    0 -0.10183346444E+01  0.85851904022E+01 -0.84987762437E+01  0.12123188414E+02  0.00000000000E+00 0. -1.
</event>
<event>
 7    1  0.1563903E-008  0.4614231E+02  0.7816164E-02  0.1320468E+00
        -11   -1    0    0    0    0  0.00000000000E+00  0.00000000000E+00  0.45593999997E+02  0.45594000000E+02  0.51100000000E-03 0. -1.
         11   -1    0    0    0    0 -0.00000000000E+00 -0.00000000000E+00 -0.45593999997E+02  0.45594000000E+02  0.51100000000E-03 0.  1.
    9900012    2    1    2    0    0 -0.11023853537E+02 -0.23051415164E+02  0.37097450921E+02  0.46142312607E+02  0.99999530023E+01 0.  0.
        -12    1    1    2    0    0  0.11023853537E+02  0.23051415164E+02 -0.37097450921E+02  0.45045687393E+02  0.00000000000E+00 0.  1.
         11    1    3    3    0    0 -0.19786812935E+01 -0.74746574227E+01  0.11715515703E+02  0.14037057801E+02  0.51100000000E-03 0. -1.
        -11    1    3    3    0    0  0.55146530037E-02 -0.36251395233E+01  0.15337174555E+01  0.39362363330E+01  0.51100000000E-03 0.  1.
        -12    1    3    3    0    0 -0.90506868962E+01 -0.11951618218E+02  0.23848217762E+02  0.28169018474E+02  0.00000000000E+00 0.  1.
</event>
<event>
 7    1  0.1563903E-008  0.4614232E+02  0.7816164E-02  0.1320468E+00
        -11   -1    0    0    0    0  0.00000000000E+00  0.00000000000E+00  0.45593999997E+02  0.45594000000E+02  0.51100000000E-03 0.  1.
         11   -1    0    0    0    0 -0.00000000000E+00 -0.00000000000E+00 -0.45593999997E+02  0.45594000000E+02  0.51100000000E-03 0. -1.
    9900012    2    1    2    0    0 -0.20292641369E+02 -0.78759689873E+01 -0.39437182194E+02  0.46142317403E+02  0.99999967325E+01 0.  0.
        -12    1    1    2    0    0  0.20292641369E+02  0.78759689873E+01  0.39437182194E+02  0.45045682597E+02  0.00000000000E+00 0.  1.
         11    1    3    3    0    0 -0.19764565214E+02 -0.51861874045E+01 -0.30574409529E+02  0.36774027468E+02  0.51100000000E-03 0. -1.
        -11    1    3    3    0    0  0.85041870993E-01  0.12477855071E+00 -0.56085356863E+00  0.58082595768E+00  0.51100000000E-03 0.  1.
         12    1    3    3    0    0 -0.61311802522E+00 -0.28145601335E+01 -0.83019190966E+01  0.87874639769E+01  0.00000000000E+00 0. -1.
</event>
<event>
 7    1  0.1563903E-008  0.4614232E+02  0.7816164E-02  0.1320468E+00
        -11   -1    0    0    0    0  0.00000000000E+00  0.00000000000E+00  0.45593999997E+02  0.45594000000E+02  0.51100000000E-03 0.  1.
         11   -1    0    0    0    0 -0.00000000000E+00 -0.00000000000E+00 -0.45593999997E+02  0.45594000000E+02  0.51100000000E-03 0. -1.
    9900012    2    1    2    0    0  0.14756946092E+02  0.27131615117E+02  0.32790566647E+02  0.46142320320E+02  0.10000023331E+02 0.  0.
        -12    1    1    2    0    0 -0.14756946092E+02 -0.27131615117E+02 -0.32790566647E+02  0.45045679680E+02  0.00000000000E+00 0.  1.
         11    1    3    3    0    0  0.10140752147E+02  0.12666441557E+02  0.13506033639E+02  0.21111289414E+02  0.51100000000E-03 0. -1.
        -11    1    3    3    0    0  0.54272379853E+01  0.12443591532E+02  0.17837672403E+02  0.22416075468E+02  0.51100000000E-03 0.  1.
        -12    1    3    3    0    0 -0.81104403956E+00  0.20215820284E+01  0.14468606061E+01  0.26149554384E+01  0.00000000000E+00 0.  1.
</event>
<event>
 7    1  0.1563903E-008  0.4614232E+02  0.7816164E-02  0.1320468E+00
        -11   -1    0    0    0    0  0.00000000000E+00  0.00000000000E+00  0.45593999997E+02  0.45594000000E+02  0.51100000000E-03 0.  1.
         11   -1    0    0    0    0 -0.00000000000E+00 -0.00000000000E+00 -0.45593999997E+02  0.45594000000E+02  0.51100000000E-03 0. -1.
    9900012    2    1    2    0    0  0.26439395508E+02  0.25784356228E+02 -0.25792225383E+02  0.46142317065E+02  0.99999936498E+01 0.  0.
        -12    1    1    2    0    0 -0.26439395508E+02 -0.25784356228E+02  0.25792225383E+02  0.45045682935E+02  0.00000000000E+00 0.  1.
         11    1    3    3    0    0  0.88204009209E+01  0.42831030714E+01 -0.39369581066E+01  0.10566176400E+02  0.51100000000E-03 0. -1.
        -11    1    3    3    0    0  0.82064125571E+00  0.31723842922E+00 -0.12293958854E+00  0.88837306077E+00  0.51100000000E-03 0.  1.
         12    1    3    3    0    0  0.16798353331E+02  0.21184014727E+02 -0.21732327688E+02  0.34687767604E+02  0.00000000000E+00 0. -1.
</event>
<event>
 7    1  0.1563903E-008  0.4614232E+02  0.7816164E-02  0.1320468E+00
        -11   -1    0    0    0    0  0.00000000000E+00  0.00000000000E+00  0.45593999997E+02  0.45594000000E+02  0.51100000000E-03 0. -1.
         11   -1    0    0    0    0 -0.00000000000E+00 -0.00000000000E+00 -0.45593999997E+02  0.45594000000E+02  0.51100000000E-03 0.  1.
    9900012    2    1    2    0    0 -0.18078130166E+02 -0.41115549262E+02 -0.34360190310E+01  0.46142318651E+02  0.10000008118E+02 0.  0.
        -12    1    1    2    0    0  0.18078130166E+02  0.41115549262E+02  0.34360190310E+01  0.45045681349E+02  0.00000000000E+00 0.  1.
         11    1    3    3    0    0 -0.56458978064E+01 -0.20149477734E+02 -0.33360028736E+01  0.21189774195E+02  0.51100000000E-03 0. -1.
        -11    1    3    3    0    0 -0.58983764835E+01 -0.11272693281E+02  0.25270249318E+01  0.12971133883E+02  0.51100000000E-03 0.  1.
         12    1    3    3    0    0 -0.65338558763E+01 -0.96933782465E+01 -0.26270410892E+01  0.11981410573E+02  0.00000000000E+00 0. -1.
</event>
<event>
 7    1  0.1563903E-008  0.4614232E+02  0.7816164E-02  0.1320468E+00
        -11   -1    0    0    0    0  0.00000000000E+00  0.00000000000E+00  0.45593999997E+02  0.45594000000E+02  0.51100000000E-03 0. -1.
         11   -1    0    0    0    0 -0.00000000000E+00 -0.00000000000E+00 -0.45593999997E+02  0.45594000000E+02  0.51100000000E-03 0.  1.
    9900012    2    1    2    0    0  0.35989326313E+02  0.32860780141E+00  0.27088262312E+02  0.46142317114E+02  0.99999940997E+01 0.  0.
        -12    1    1    2    0    0 -0.35989326313E+02 -0.32860780141E+00 -0.27088262312E+02  0.45045682886E+02  0.00000000000E+00 0.  1.
         11    1    3    3    0    0  0.26575931660E+01 -0.50620230641E+00  0.50366235150E+01  0.57172212572E+01  0.51100000000E-03 0.  1.
        -11    1    3    3    0    0  0.16333438698E+02  0.28716960106E+01  0.87891418116E+01  0.18769040245E+02  0.51100000000E-03 0. -1.
         12    1    3    3    0    0  0.16998294450E+02 -0.20368859028E+01  0.13262496985E+02  0.21656055612E+02  0.00000000000E+00 0. -1.
</event>
<event>
 7    1  0.1563903E-008  0.4614232E+02  0.7816164E-02  0.1320468E+00
        -11   -1    0    0    0    0  0.00000000000E+00  0.00000000000E+00  0.45593999997E+02  0.45594000000E+02  0.51100000000E-03 0. -1.
         11   -1    0    0    0    0 -0.00000000000E+00 -0.00000000000E+00 -0.45593999997E+02  0.45594000000E+02  0.51100000000E-03 0.  1.
    9900012    2    1    2    0    0 -0.27088579569E+02 -0.32932398658E+02 -0.14518242014E+02  0.46142319012E+02  0.10000011408E+02 0.  0.
        -12    1    1    2    0    0  0.27088579569E+02  0.32932398658E+02  0.14518242014E+02  0.45045680988E+02  0.00000000000E+00 0.  1.
         11    1    3    3    0    0 -0.78760892950E+01 -0.66871780949E+01 -0.29855513397E+01  0.10754750137E+02  0.51100000000E-03 0. -1.
        -11    1    3    3    0    0 -0.18587957360E+01 -0.18960104375E+00  0.35304268740E+00  0.19015019180E+01  0.51100000000E-03 0.  1.
        -12    1    3    3    0    0 -0.17353694539E+02 -0.26055619520E+02 -0.11885733361E+02  0.33486066957E+02  0.00000000000E+00 0.  1.
</event>
<event>
 7    1  0.1563903E-008  0.4614232E+02  0.7816164E-02  0.1320468E+00
        -11   -1    0    0    0    0  0.00000000000E+00  0.00000000000E+00  0.45593999997E+02  0.45594000000E+02  0.51100000000E-03 0.  1.
         11   -1    0    0    0    0 -0.00000000000E+00 -0.00000000000E+00 -0.45593999997E+02  0.45594000000E+02  0.51100000000E-03 0. -1.
    9900012    2    1    2    0    0  0.13221007498E+02  0.26568099335E+02 -0.33888856603E+02  0.46142317150E+02  0.99999944306E+01 0.  0.
        -12    1    1    2    0    0 -0.13221007498E+02 -0.26568099335E+02  0.33888856603E+02  0.45045682850E+02  0.00000000000E+00 0.  1.
         11    1    3    3    0    0  0.26588434723E+00  0.68599404994E+01 -0.88438345095E+01  0.11195663769E+02  0.51100000000E-03 0. -1.
        -11    1    3    3    0    0  0.65685977538E+01  0.50397743878E+01 -0.71115985233E+01  0.10914240063E+02  0.51100000000E-03 0.  1.
         12    1    3    3    0    0  0.63865253972E+01  0.14668384448E+02 -0.17933423570E+02  0.24032413318E+02  0.00000000000E+00 0. -1.
</event>
<event>
 7    1  0.1563903E-008  0.4614232E+02  0.7816164E-02  0.1320468E+00
        -11   -1    0    0    0    0  0.00000000000E+00  0.00000000000E+00  0.45593999997E+02  0.45594000000E+02  0.51100000000E-03 0.  1.
         11   -1    0    0    0    0 -0.00000000000E+00 -0.00000000000E+00 -0.45593999997E+02  0.45594000000E+02  0.51100000000E-03 0. -1.
    9900012    2    1    2    0    0 -0.93950025790E+01  0.23109647888E+01 -0.43994395971E+02  0.46142317537E+02  0.99999979521E+01 0.  0.
        -12    1    1    2    0    0  0.93950025790E+01 -0.23109647888E+01  0.43994395971E+02  0.45045682463E+02  0.00000000000E+00 0.  1.
         11    1    3    3    0    0 -0.27367422863E+01  0.12438012229E+01 -0.12780821513E+02  0.13129592478E+02  0.51100000000E-03 0. -1.
        -11    1    3    3    0    0 -0.25264284350E+01  0.19225244522E+01 -0.26391374271E+01  0.41284364506E+01  0.51100000000E-03 0.  1.
         12    1    3    3    0    0 -0.41318318576E+01 -0.85536088629E+00 -0.28574437031E+02  0.28884288608E+02  0.00000000000E+00 0. -1.
</event>
<event>
 7    1  0.1563903E-008  0.4614232E+02  0.7816164E-02  0.1320468E+00
        -11   -1    0    0    0    0  0.00000000000E+00  0.00000000000E+00  0.45593999997E+02  0.45594000000E+02  0.51100000000E-03 0. -1.
         11   -1    0    0    0    0 -0.00000000000E+00 -0.00000000000E+00 -0.45593999997E+02  0.45594000000E+02  0.51100000000E-03 0.  1.
    9900012    2    1    2    0    0  0.37906323102E+01 -0.30466641996E+02  0.32962527857E+02  0.46142318625E+02  0.10000007877E+02 0.  0.
        -12    1    1    2    0    0 -0.37906323102E+01  0.30466641996E+02 -0.32962527857E+02  0.45045681375E+02  0.00000000000E+00 0.  1.
         11    1    3    3    0    0  0.32200313796E+01 -0.18381626761E+02  0.17792093318E+02  0.25783936654E+02  0.51100000000E-03 0. -1.
        -11    1    3    3    0    0 -0.99629439444E-01 -0.12507879255E+02  0.12966505442E+02  0.18016304647E+02  0.51100000000E-03 0.  1.
         12    1    3    3    0    0  0.67023036998E+00  0.42286402033E+00  0.22039290975E+01  0.23420773248E+01  0.00000000000E+00 0. -1.
</event>
<event>
 7    1  0.1563903E-008  0.4614232E+02  0.7816164E-02  0.1320468E+00
        -11   -1    0    0    0    0  0.00000000000E+00  0.00000000000E+00  0.45593999997E+02  0.45594000000E+02  0.51100000000E-03 0.  1.
         11   -1    0    0    0    0 -0.00000000000E+00 -0.00000000000E+00 -0.45593999997E+02  0.45594000000E+02  0.51100000000E-03 0. -1.
    9900012    2    1    2    0    0  0.26493165805E+02  0.11485622718E+02 -0.34573199347E+02  0.46142317891E+02  0.10000001181E+02 0.  0.
        -12    1    1    2    0    0 -0.26493165805E+02 -0.11485622718E+02  0.34573199347E+02  0.45045682109E+02  0.00000000000E+00 0.  1.
         11    1    3    3    0    0  0.39097002426E+01 -0.28038309141E-01 -0.78603191570E+01  0.87790181481E+01  0.51100000000E-03 0. -1.
        -11    1    3    3    0    0  0.21805621684E+01  0.83257310532E+00 -0.58124270577E+01  0.62635722961E+01  0.51100000000E-03 0.  1.
        -12    1    3    3    0    0  0.20402903394E+02  0.10681087922E+02 -0.20900453132E+02  0.31099727446E+02  0.00000000000E+00 0.  1.
</event>
<event>
 7    1  0.1563903E-008  0.4614232E+02  0.7816164E-02  0.1320468E+00
        -11   -1    0    0    0    0  0.00000000000E+00  0.00000000000E+00  0.45593999997E+02  0.45594000000E+02  0.51100000000E-03 0.  1.
         11   -1    0    0    0    0 -0.00000000000E+00 -0.00000000000E+00 -0.45593999997E+02  0.45594000000E+02  0.51100000000E-03 0. -1.
    9900012    2    1    2    0    0 -0.28300637595E+02 -0.33992134137E+02 -0.85277289564E+01  0.46142318380E+02  0.10000005641E+02 0.  0.
        -12    1    1    2    0    0  0.28300637595E+02  0.33992134137E+02  0.85277289564E+01  0.45045681620E+02  0.00000000000E+00 0.  1.
         11    1    3    3    0    0 -0.10622736745E+02 -0.14650370382E+02 -0.20171630796E+01  0.18208372674E+02  0.51100000000E-03 0. -1.
        -11    1    3    3    0    0 -0.11194481559E+02 -0.73414576259E+01 -0.46304310054E+01  0.14165250051E+02  0.51100000000E-03 0.  1.
        -12    1    3    3    0    0 -0.64834192904E+01 -0.12000306129E+02 -0.18801348713E+01  0.13768695655E+02  0.00000000000E+00 0.  1.
</event>
<event>
 7    1  0.1563903E-008  0.4614232E+02  0.7816164E-02  0.1320468E+00
        -11   -1    0    0    0    0  0.00000000000E+00  0.00000000000E+00  0.45593999997E+02  0.45594000000E+02  0.51100000000E-03 0. -1.
         11   -1    0    0    0    0 -0.00000000000E+00 -0.00000000000E+00 -0.45593999997E+02  0.45594000000E+02  0.51100000000E-03 0.  1.
    9900012    2    1    2    0    0 -0.23253101836E+02 -0.23977009389E+02  0.30224322927E+02  0.46142318513E+02  0.10000006853E+02 0.  0.
        -12    1    1    2    0    0  0.23253101836E+02  0.23977009389E+02 -0.30224322927E+02  0.45045681487E+02  0.00000000000E+00 0.  1.
         11    1    3    3    0    0 -0.17742829780E+02 -0.16485591334E+02  0.23457785101E+02  0.33717212405E+02  0.51100000000E-03 0. -1.
        -11    1    3    3    0    0 -0.41462690126E+00 -0.38545752839E+01  0.40323639091E+01  0.55937129926E+01  0.51100000000E-03 0.  1.
        -12    1    3    3    0    0 -0.50956451549E+01 -0.36368427709E+01  0.27341739170E+01  0.68313931152E+01  0.00000000000E+00 0.  1.
</event>
<event>
 7    1  0.1563903E-008  0.4614232E+02  0.7816164E-02  0.1320468E+00
        -11   -1    0    0    0    0  0.00000000000E+00  0.00000000000E+00  0.45593999997E+02  0.45594000000E+02  0.51100000000E-03 0.  1.
         11   -1    0    0    0    0 -0.00000000000E+00 -0.00000000000E+00 -0.45593999997E+02  0.45594000000E+02  0.51100000000E-03 0. -1.
    9900012    2    1    2    0    0 -0.17387911910E+02  0.35193789561E+02 -0.22094596092E+02  0.46142317846E+02  0.10000000771E+02 0.  0.
        -12    1    1    2    0    0  0.17387911910E+02 -0.35193789561E+02  0.22094596092E+02  0.45045682154E+02  0.00000000000E+00 0.  1.
         11    1    3    3    0    0 -0.46197347832E+01  0.15219074477E+02 -0.91338218573E+01  0.18340907267E+02  0.51100000000E-03 0. -1.
        -11    1    3    3    0    0 -0.10650780322E+02  0.15079050039E+02 -0.12800889008E+02  0.22465075811E+02  0.51100000000E-03 0.  1.
        -12    1    3    3    0    0 -0.21173968048E+01  0.48956650453E+01 -0.15988522739E+00  0.53363347675E+01  0.00000000000E+00 0.  1.
</event>
<event>
 7    1  0.1563903E-008  0.4614232E+02  0.7816164E-02  0.1320468E+00
        -11   -1    0    0    0    0  0.00000000000E+00  0.00000000000E+00  0.45593999997E+02  0.45594000000E+02  0.51100000000E-03 0.  1.
         11   -1    0    0    0    0 -0.00000000000E+00 -0.00000000000E+00 -0.45593999997E+02  0.45594000000E+02  0.51100000000E-03 0. -1.
    9900012    2    1    2    0    0  0.36240299106E+02 -0.21232436782E+02 -0.16276910047E+02  0.46142318169E+02  0.10000003715E+02 0.  0.
        -12    1    1    2    0    0 -0.36240299106E+02  0.21232436782E+02  0.16276910047E+02  0.45045681831E+02  0.00000000000E+00 0.  1.
         11    1    3    3    0    0  0.20375674528E+02 -0.14190743366E+02 -0.10402485321E+02  0.26921311463E+02  0.51100000000E-03 0. -1.
        -11    1    3    3    0    0  0.56883205219E+01  0.63589243449E-02 -0.45043336021E+00  0.57061301483E+01  0.51100000000E-03 0.  1.
        -12    1    3    3    0    0  0.10176304056E+02 -0.70480523410E+01 -0.54239913659E+01  0.13514876558E+02  0.00000000000E+00 0.  1.
</event>
<event>
 7    1  0.1563903E-008  0.4614232E+02  0.7816164E-02  0.1320468E+00
        -11   -1    0    0    0    0  0.00000000000E+00  0.00000000000E+00  0.45593999997E+02  0.45594000000E+02  0.51100000000E-03 0.  1.
         11   -1    0    0    0    0 -0.00000000000E+00 -0.00000000000E+00 -0.45593999997E+02  0.45594000000E+02  0.51100000000E-03 0. -1.
    9900012    2    1    2    0    0  0.38361897022E+01  0.42397139113E+02 -0.14726843421E+02  0.46142315706E+02  0.99999812566E+01 0.  0.
        -12    1    1    2    0    0 -0.38361897022E+01 -0.42397139113E+02  0.14726843421E+02  0.45045684294E+02  0.00000000000E+00 0.  1.
         11    1    3    3    0    0  0.22173967171E+01  0.36970478543E+02 -0.13591650120E+02  0.39452073268E+02  0.51100000000E-03 0. -1.
        -11    1    3    3    0    0  0.24220867783E+01  0.43919965562E+01 -0.93198750947E-01  0.50164553601E+01  0.51100000000E-03 0.  1.
        -12    1    3    3    0    0 -0.80329379315E+00  0.10346640142E+01 -0.10419945495E+01  0.16737870778E+01  0.00000000000E+00 0.  1.
</event>
<event>
 7    1  0.1563903E-008  0.4614232E+02  0.7816164E-02  0.1320468E+00
        -11   -1    0    0    0    0  0.00000000000E+00  0.00000000000E+00  0.45593999997E+02  0.45594000000E+02  0.51100000000E-03 0.  1.
         11   -1    0    0    0    0 -0.00000000000E+00 -0.00000000000E+00 -0.45593999997E+02  0.45594000000E+02  0.51100000000E-03 0. -1.
    9900012    2    1    2    0    0  0.30798722115E+02  0.71876091036E+01 -0.32076323610E+02  0.46142317134E+02  0.99999942774E+01 0.  0.
        -12    1    1    2    0    0 -0.30798722115E+02 -0.71876091036E+01  0.32076323610E+02  0.45045682866E+02  0.00000000000E+00 0.  1.
         11    1    3    3    0    0  0.26735474250E+02  0.47963472837E+01 -0.26950909597E+02  0.38264109280E+02  0.51100000000E-03 0. -1.
        -11    1    3    3    0    0  0.21042532224E+01  0.22019036136E+01 -0.83526093527E+00  0.31581517125E+01  0.51100000000E-03 0.  1.
        -12    1    3    3    0    0  0.19589946425E+01  0.18935820637E+00 -0.42901530779E+01  0.47200561407E+01  0.00000000000E+00 0.  1.
</event>
<event>
 7    1  0.1563903E-008  0.4614232E+02  0.7816164E-02  0.1320468E+00
        -11   -1    0    0    0    0  0.00000000000E+00  0.00000000000E+00  0.45593999997E+02  0.45594000000E+02  0.51100000000E-03 0.  1.
         11   -1    0    0    0    0 -0.00000000000E+00 -0.00000000000E+00 -0.45593999997E+02  0.45594000000E+02  0.51100000000E-03 0. -1.
    9900012    2    1    2    0    0  0.26144107371E+02 -0.29506836802E+02 -0.21793247224E+02  0.46142318821E+02  0.10000009666E+02 0.  0.
        -12    1    1    2    0    0 -0.26144107371E+02  0.29506836802E+02  0.21793247224E+02  0.45045681179E+02  0.00000000000E+00 0.  1.
         11    1    3    3    0    0  0.20272562501E+02 -0.22607307676E+02 -0.18600392665E+02  0.35609573970E+02  0.51100000000E-03 0. -1.
        -11    1    3    3    0    0  0.17148627514E+01 -0.23574159839E+01 -0.32627293458E+01  0.43753362639E+01  0.51100000000E-03 0.  1.
         12    1    3    3    0    0  0.41566821190E+01 -0.45421131416E+01  0.69874787010E-01  0.61574085877E+01  0.00000000000E+00 0. -1.
</event>
<event>
 7    1  0.1563903E-008  0.4614232E+02  0.7816164E-02  0.1320468E+00
        -11   -1    0    0    0    0  0.00000000000E+00  0.00000000000E+00  0.45593999997E+02  0.45594000000E+02  0.51100000000E-03 0.  1.
         11   -1    0    0    0    0 -0.00000000000E+00 -0.00000000000E+00 -0.45593999997E+02  0.45594000000E+02  0.51100000000E-03 0. -1.
    9900012    2    1    2    0    0 -0.36668108225E+02 -0.19455520799E+02 -0.17494172162E+02  0.46142317521E+02  0.99999978114E+01 0.  0.
        -12    1    1    2    0    0  0.36668108225E+02  0.19455520799E+02  0.17494172162E+02  0.45045682479E+02  0.00000000000E+00 0.  1.
         11    1    3    3    0    0 -0.83457504316E+01 -0.46576100851E+00 -0.18983810787E+01  0.85716004669E+01  0.51100000000E-03 0.  1.
        -11    1    3    3    0    0 -0.16991296692E+02 -0.10085943286E+02 -0.94828014151E+01  0.21916978309E+02  0.51100000000E-03 0. -1.
        -12    1    3    3    0    0 -0.11331061101E+02 -0.89038165045E+01 -0.61129896678E+01  0.15653738745E+02  0.00000000000E+00 0.  1.
</event>
<event>
 7    1  0.2210068E-008  0.4614232E+02  0.7816164E-02  0.1320468E+00
        -11   -1    0    0    0    0  0.00000000000E+00  0.00000000000E+00  0.45593999997E+02  0.45594000000E+02  0.51100000000E-03 0. -1.
         11   -1    0    0    0    0 -0.00000000000E+00 -0.00000000000E+00 -0.45593999997E+02  0.45594000000E+02  0.51100000000E-03 0.  1.
    9900012    2    1    2    0    0  0.23623656553E+02  0.23437921779E+01  0.38282410567E+02  0.46142317971E+02  0.10000001911E+02 0.  0.
        -12    1    1    2    0    0 -0.23623656553E+02 -0.23437921779E+01 -0.38282410567E+02  0.45045682029E+02  0.00000000000E+00 0.  1.
         11    1    3    3    0    0  0.21296726440E+02  0.40873084557E+01  0.32379212616E+02  0.38970117492E+02  0.51100000000E-03 0. -1.
        -11    1    3    3    0    0 -0.60328329245E+00 -0.57342065743E+00  0.19057034290E+01  0.20795354774E+01  0.51100000000E-03 0.  1.
         12    1    3    3    0    0  0.29302134055E+01 -0.11700956204E+01  0.39974945220E+01  0.50926650013E+01  0.00000000000E+00 0. -1.
</event>
<event>
 7    1  0.1563903E-008  0.4614231E+02  0.7816164E-02  0.1320468E+00
        -11   -1    0    0    0    0  0.00000000000E+00  0.00000000000E+00  0.45593999997E+02  0.45594000000E+02  0.51100000000E-03 0.  1.
         11   -1    0    0    0    0 -0.00000000000E+00 -0.00000000000E+00 -0.45593999997E+02  0.45594000000E+02  0.51100000000E-03 0. -1.
    9900012    2    1    2    0    0  0.37474157080E+02 -0.94675382582E+00 -0.24978100793E+02  0.46142308631E+02  0.99999167447E+01 0.  0.
        -12    1    1    2    0    0 -0.37474157080E+02  0.94675382582E+00  0.24978100793E+02  0.45045691369E+02  0.00000000000E+00 0.  1.
         11    1    3    3    0    0  0.17053830412E+02 -0.16154495542E-01 -0.10573826586E+02  0.20065871564E+02  0.51100000000E-03 0. -1.
        -11    1    3    3    0    0  0.16776071364E+02 -0.24584466256E+01 -0.84862530439E+01  0.18960406673E+02  0.51100000000E-03 0.  1.
         12    1    3    3    0    0  0.36442553042E+01  0.15278472953E+01 -0.59180211636E+01  0.71160303943E+01  0.00000000000E+00 0. -1.
</event>
<event>
 7    1  0.1563903E-008  0.4614232E+02  0.7816164E-02  0.1320468E+00
        -11   -1    0    0    0    0  0.00000000000E+00  0.00000000000E+00  0.45593999997E+02  0.45594000000E+02  0.51100000000E-03 0.  1.
         11   -1    0    0    0    0 -0.00000000000E+00 -0.00000000000E+00 -0.45593999997E+02  0.45594000000E+02  0.51100000000E-03 0. -1.
    9900012    2    1    2    0    0 -0.21788113846E+02 -0.33719139097E+01 -0.39281316141E+02  0.46142317563E+02  0.99999981950E+01 0.  0.
        -12    1    1    2    0    0  0.21788113846E+02  0.33719139097E+01  0.39281316141E+02  0.45045682437E+02  0.00000000000E+00 0.  1.
         11    1    3    3    0    0 -0.13466065546E+02 -0.23795597450E+00 -0.20569801902E+02  0.24586750393E+02  0.51100000000E-03 0. -1.
        -11    1    3    3    0    0 -0.80501442516E+01 -0.24147931340E+01 -0.11189280269E+02  0.13994143116E+02  0.51100000000E-03 0.  1.
        -12    1    3    3    0    0 -0.27190404874E+00 -0.71916480127E+00 -0.75222339701E+01  0.75614240539E+01  0.00000000000E+00 0.  1.
</event>
<event>
 7    1  0.1563903E-008  0.4614232E+02  0.7816164E-02  0.1320468E+00
        -11   -1    0    0    0    0  0.00000000000E+00  0.00000000000E+00  0.45593999997E+02  0.45594000000E+02  0.51100000000E-03 0.  1.
         11   -1    0    0    0    0 -0.00000000000E+00 -0.00000000000E+00 -0.45593999997E+02  0.45594000000E+02  0.51100000000E-03 0. -1.
    9900012    2    1    2    0    0  0.42077603995E+01 -0.36173104614E+02 -0.26512539464E+02  0.46142317701E+02  0.99999994476E+01 0.  0.
        -12    1    1    2    0    0 -0.42077603995E+01  0.36173104614E+02  0.26512539464E+02  0.45045682299E+02  0.00000000000E+00 0.  1.
         11    1    3    3    0    0  0.34645821139E+01 -0.17407274352E+02 -0.88180766605E+01  0.19818552062E+02  0.51100000000E-03 0. -1.
        -11    1    3    3    0    0  0.11336142554E+01 -0.74684829899E+01 -0.10461370276E+02  0.12903626923E+02  0.51100000000E-03 0.  1.
        -12    1    3    3    0    0 -0.39043596982E+00 -0.11297347272E+02 -0.72330925274E+01  0.13420138715E+02  0.00000000000E+00 0.  1.
</event>
<event>
 7    1  0.1563903E-008  0.4614232E+02  0.7816164E-02  0.1320468E+00
        -11   -1    0    0    0    0  0.00000000000E+00  0.00000000000E+00  0.45593999997E+02  0.45594000000E+02  0.51100000000E-03 0.  1.
         11   -1    0    0    0    0 -0.00000000000E+00 -0.00000000000E+00 -0.45593999997E+02  0.45594000000E+02  0.51100000000E-03 0. -1.
    9900012    2    1    2    0    0 -0.41064546741E+02  0.13508053245E+02  0.12662892350E+02  0.46142319361E+02  0.10000014593E+02 0.  0.
        -12    1    1    2    0    0  0.41064546741E+02 -0.13508053245E+02 -0.12662892350E+02  0.45045680639E+02  0.00000000000E+00 0.  1.
         11    1    3    3    0    0 -0.22372194698E+02  0.82523003329E+01  0.23272038271E+01  0.23958953114E+02  0.51100000000E-03 0. -1.
        -11    1    3    3    0    0 -0.16617094628E+02  0.55608535472E+01  0.90316500494E+01  0.19713488502E+02  0.51100000000E-03 0.  1.
         12    1    3    3    0    0 -0.20752574145E+01 -0.30510063548E+00  0.13040384737E+01  0.24698777449E+01  0.00000000000E+00 0. -1.
</event>
<event>
 7    1  0.1563903E-008  0.4614232E+02  0.7816164E-02  0.1320468E+00
        -11   -1    0    0    0    0  0.00000000000E+00  0.00000000000E+00  0.45593999997E+02  0.45594000000E+02  0.51100000000E-03 0.  1.
         11   -1    0    0    0    0 -0.00000000000E+00 -0.00000000000E+00 -0.45593999997E+02  0.45594000000E+02  0.51100000000E-03 0. -1.
    9900012    2    1    2    0    0  0.17554880500E+02  0.21427356745E+02 -0.35521938753E+02  0.46142316753E+02  0.99999908061E+01 0.  0.
        -12    1    1    2    0    0 -0.17554880500E+02 -0.21427356745E+02  0.35521938753E+02  0.45045683247E+02  0.00000000000E+00 0.  1.
         11    1    3    3    0    0  0.17341413621E+01  0.21126933004E+01 -0.98696599775E+01  0.10241138002E+02  0.51100000000E-03 0. -1.
        -11    1    3    3    0    0  0.59470569695E+00  0.12877743049E+01 -0.78893880385E+00  0.16231026534E+01  0.51100000000E-03 0.  1.
         12    1    3    3    0    0  0.15226033441E+02  0.18026889140E+02 -0.24863339971E+02  0.34278076097E+02  0.00000000000E+00 0. -1.
</event>
<event>
 7    1  0.1563903E-008  0.4614232E+02  0.7816164E-02  0.1320468E+00
        -11   -1    0    0    0    0  0.00000000000E+00  0.00000000000E+00  0.45593999997E+02  0.45594000000E+02  0.51100000000E-03 0. -1.
         11   -1    0    0    0    0 -0.00000000000E+00 -0.00000000000E+00 -0.45593999997E+02  0.45594000000E+02  0.51100000000E-03 0.  1.
    9900012    2    1    2    0    0 -0.17282651408E+02  0.30198407127E+02  0.28609082863E+02  0.46142318132E+02  0.10000003383E+02 0.  0.
        -12    1    1    2    0    0  0.17282651408E+02 -0.30198407127E+02 -0.28609082863E+02  0.45045681868E+02  0.00000000000E+00 0.  1.
         11    1    3    3    0    0 -0.33584329168E+01  0.12163303856E+02  0.11955448516E+02  0.17382686266E+02  0.51100000000E-03 0. -1.
        -11    1    3    3    0    0 -0.11085098394E+02  0.17226159064E+02  0.14264748688E+02  0.24962031525E+02  0.51100000000E-03 0.  1.
         12    1    3    3    0    0 -0.28391200966E+01  0.80894420768E+00  0.23888856597E+01  0.37976003409E+01  0.00000000000E+00 0. -1.
</event>
<event>
 7    1  0.1563903E-008  0.4614232E+02  0.7816164E-02  0.1320468E+00
        -11   -1    0    0    0    0  0.00000000000E+00  0.00000000000E+00  0.45593999997E+02  0.45594000000E+02  0.51100000000E-03 0.  1.
         11   -1    0    0    0    0 -0.00000000000E+00 -0.00000000000E+00 -0.45593999997E+02  0.45594000000E+02  0.51100000000E-03 0. -1.
    9900012    2    1    2    0    0 -0.74111579419E+01  0.32700764537E+02 -0.30080698084E+02  0.46142315850E+02  0.99999825711E+01 0.  0.
        -12    1    1    2    0    0  0.74111579419E+01 -0.32700764537E+02  0.30080698084E+02  0.45045684150E+02  0.00000000000E+00 0.  1.
         11    1    3    3    0    0 -0.86735836161E+01  0.22090824030E+02 -0.19373358304E+02  0.30635968588E+02  0.51100000000E-03 0. -1.
        -11    1    3    3    0    0  0.89194757794E+00  0.72381370510E+01 -0.93377414461E+01  0.11848190327E+02  0.51100000000E-03 0.  1.
         12    1    3    3    0    0  0.37047809620E+00  0.33718034560E+01 -0.13695983338E+01  0.36581569350E+01  0.00000000000E+00 0. -1.
</event>
<event>
 7    1  0.1563903E-008  0.4614232E+02  0.7816164E-02  0.1320468E+00
        -11   -1    0    0    0    0  0.00000000000E+00  0.00000000000E+00  0.45593999997E+02  0.45594000000E+02  0.51100000000E-03 0.  1.
         11   -1    0    0    0    0 -0.00000000000E+00 -0.00000000000E+00 -0.45593999997E+02  0.45594000000E+02  0.51100000000E-03 0. -1.
    9900012    2    1    2    0    0  0.35467541162E+02  0.26939944856E+02  0.67384252212E+01  0.46142317861E+02  0.10000000914E+02 0.  0.
        -12    1    1    2    0    0 -0.35467541162E+02 -0.26939944856E+02 -0.67384252212E+01  0.45045682139E+02  0.00000000000E+00 0.  1.
         11    1    3    3    0    0  0.21172528278E+01  0.16334506988E+00 -0.75842766478E+00  0.22549177219E+01  0.51100000000E-03 0. -1.
        -11    1    3    3    0    0  0.99919559064E+00  0.22934750339E+01  0.13820389510E+01  0.28580502940E+01  0.51100000000E-03 0.  1.
         12    1    3    3    0    0  0.32351092743E+02  0.24483124752E+02  0.61148139349E+01  0.41029349846E+02  0.00000000000E+00 0. -1.
</event>
<event>
 7    1  0.1563903E-008  0.4614232E+02  0.7816164E-02  0.1320468E+00
        -11   -1    0    0    0    0  0.00000000000E+00  0.00000000000E+00  0.45593999997E+02  0.45594000000E+02  0.51100000000E-03 0.  1.
         11   -1    0    0    0    0 -0.00000000000E+00 -0.00000000000E+00 -0.45593999997E+02  0.45594000000E+02  0.51100000000E-03 0. -1.
    9900012    2    1    2    0    0 -0.24921909684E+02 -0.34402982182E+02 -0.14981545344E+02  0.46142318007E+02  0.10000002244E+02 0.  0.
        -12    1    1    2    0    0  0.24921909684E+02  0.34402982182E+02  0.14981545344E+02  0.45045681993E+02  0.00000000000E+00 0.  1.
         11    1    3    3    0    0 -0.18176368516E+02 -0.25428530807E+02 -0.13259656534E+02  0.33953041735E+02  0.51100000000E-03 0. -1.
        -11    1    3    3    0    0 -0.28839346756E+01 -0.13702821442E+01  0.80776892331E+00  0.32935153351E+01  0.51100000000E-03 0.  1.
        -12    1    3    3    0    0 -0.38616064920E+01 -0.76041692310E+01 -0.25296577335E+01  0.88957609366E+01  0.00000000000E+00 0.  1.
</event>
<event>
 7    1  0.1563903E-008  0.4614232E+02  0.7816164E-02  0.1320468E+00
        -11   -1    0    0    0    0  0.00000000000E+00  0.00000000000E+00  0.45593999997E+02  0.45594000000E+02  0.51100000000E-03 0. -1.
         11   -1    0    0    0    0 -0.00000000000E+00 -0.00000000000E+00 -0.45593999997E+02  0.45594000000E+02  0.51100000000E-03 0.  1.
    9900012    2    1    2    0    0  0.42855265555E+02  0.46079594789E+01  0.13088409208E+02  0.46142317277E+02  0.99999955870E+01 0.  0.
        -12    1    1    2    0    0 -0.42855265555E+02 -0.46079594789E+01 -0.13088409208E+02  0.45045682723E+02  0.00000000000E+00 0.  1.
         11    1    3    3    0    0  0.33861944198E+02  0.40656975474E+01  0.90486437983E+01  0.35285111822E+02  0.51100000000E-03 0. -1.
        -11    1    3    3    0    0  0.82672782510E+01 -0.10188897277E+01  0.30460939216E+01  0.88693130736E+01  0.51100000000E-03 0.  1.
         12    1    3    3    0    0  0.72604310602E+00  0.15611516593E+01  0.99367148823E+00  0.19878923818E+01  0.00000000000E+00 0. -1.
</event>
<event>
 7    1  0.1563903E-008  0.4614232E+02  0.7816164E-02  0.1320468E+00
        -11   -1    0    0    0    0  0.00000000000E+00  0.00000000000E+00  0.45593999997E+02  0.45594000000E+02  0.51100000000E-03 0. -1.
         11   -1    0    0    0    0 -0.00000000000E+00 -0.00000000000E+00 -0.45593999997E+02  0.45594000000E+02  0.51100000000E-03 0.  1.
    9900012    2    1    2    0    0 -0.12696536200E+02  0.40312536676E+02  0.15582387648E+02  0.46142318192E+02  0.10000003928E+02 0.  0.
        -12    1    1    2    0    0  0.12696536200E+02 -0.40312536676E+02 -0.15582387648E+02  0.45045681808E+02  0.00000000000E+00 0.  1.
         11    1    3    3    0    0 -0.57790072048E+01  0.31724452411E+02  0.12132808256E+02  0.34453488089E+02  0.51100000000E-03 0. -1.
        -11    1    3    3    0    0 -0.20258357077E+01  0.18337221540E+01  0.20480238147E+00  0.27401626829E+01  0.51100000000E-03 0.  1.
         12    1    3    3    0    0 -0.48916932874E+01  0.67543621111E+01  0.32447770106E+01  0.89486674200E+01  0.00000000000E+00 0. -1.
</event>
<event>
 7    1  0.1563903E-008  0.4614232E+02  0.7816164E-02  0.1320468E+00
        -11   -1    0    0    0    0  0.00000000000E+00  0.00000000000E+00  0.45593999997E+02  0.45594000000E+02  0.51100000000E-03 0.  1.
         11   -1    0    0    0    0 -0.00000000000E+00 -0.00000000000E+00 -0.45593999997E+02  0.45594000000E+02  0.51100000000E-03 0. -1.
    9900012    2    1    2    0    0  0.30957829432E+02 -0.20507997197E+02 -0.25498006217E+02  0.46142317929E+02  0.10000001532E+02 0.  0.
        -12    1    1    2    0    0 -0.30957829432E+02  0.20507997197E+02  0.25498006217E+02  0.45045682071E+02  0.00000000000E+00 0.  1.
         11    1    3    3    0    0  0.25297229027E+02 -0.14058087663E+02 -0.17540124047E+02  0.33841329422E+02  0.51100000000E-03 0. -1.
        -11    1    3    3    0    0  0.51633917909E+01 -0.51841057263E+01 -0.81213618332E+01  0.10931243536E+02  0.51100000000E-03 0.  1.
         12    1    3    3    0    0  0.49720861421E+00 -0.12658038068E+01  0.16347966316E+00  0.13697449703E+01  0.00000000000E+00 0. -1.
</event>
<event>
 7    1  0.1563903E-008  0.4614232E+02  0.7816164E-02  0.1320468E+00
        -11   -1    0    0    0    0  0.00000000000E+00  0.00000000000E+00  0.45593999997E+02  0.45594000000E+02  0.51100000000E-03 0.  1.
         11   -1    0    0    0    0 -0.00000000000E+00 -0.00000000000E+00 -0.45593999997E+02  0.45594000000E+02  0.51100000000E-03 0. -1.
    9900012    2    1    2    0    0  0.35516181297E+02 -0.26673595567E+02 -0.74989142016E+01  0.46142317093E+02  0.99999939051E+01 0.  0.
        -12    1    1    2    0    0 -0.35516181297E+02  0.26673595567E+02  0.74989142016E+01  0.45045682907E+02  0.00000000000E+00 0.  1.
         11    1    3    3    0    0  0.28112660659E+02 -0.19364610661E+02 -0.80752248539E+01  0.35078755567E+02  0.51100000000E-03 0. -1.
        -11    1    3    3    0    0  0.35234554517E+01 -0.59698049143E+01  0.11449755236E+00  0.69329949506E+01  0.51100000000E-03 0.  1.
         12    1    3    3    0    0  0.38800651857E+01 -0.13391799920E+01  0.46181309999E+00  0.41305665756E+01  0.00000000000E+00 0. -1.
</event>
<event>
 7    1  0.1563903E-008  0.4614232E+02  0.7816164E-02  0.1320468E+00
        -11   -1    0    0    0    0  0.00000000000E+00  0.00000000000E+00  0.45593999997E+02  0.45594000000E+02  0.51100000000E-03 0.  1.
         11   -1    0    0    0    0 -0.00000000000E+00 -0.00000000000E+00 -0.45593999997E+02  0.45594000000E+02  0.51100000000E-03 0. -1.
    9900012    2    1    2    0    0  0.23691926302E+01 -0.35936083639E+02 -0.27057314640E+02  0.46142318115E+02  0.10000003225E+02 0.  0.
        -12    1    1    2    0    0 -0.23691926302E+01  0.35936083639E+02  0.27057314640E+02  0.45045681885E+02  0.00000000000E+00 0.  1.
         11    1    3    3    0    0  0.12390219835E+01 -0.28201643755E+02 -0.18150535754E+02  0.33560539841E+02  0.51100000000E-03 0. -1.
        -11    1    3    3    0    0 -0.25623664177E+00 -0.23702701065E+01 -0.57040952957E+01  0.61822763606E+01  0.51100000000E-03 0.  1.
        -12    1    3    3    0    0  0.13864072884E+01 -0.53641697769E+01 -0.32026835896E+01  0.63995019134E+01  0.00000000000E+00 0.  1.
</event>
<event>
 7    1  0.1563903E-008  0.4614232E+02  0.7816164E-02  0.1320468E+00
        -11   -1    0    0    0    0  0.00000000000E+00  0.00000000000E+00  0.45593999997E+02  0.45594000000E+02  0.51100000000E-03 0.  1.
         11   -1    0    0    0    0 -0.00000000000E+00 -0.00000000000E+00 -0.45593999997E+02  0.45594000000E+02  0.51100000000E-03 0. -1.
    9900012    2    1    2    0    0  0.10942394664E+02 -0.32047558052E+02 -0.29704067104E+02  0.46142316737E+02  0.99999906588E+01 0.  0.
        -12    1    1    2    0    0 -0.10942394664E+02  0.32047558052E+02  0.29704067104E+02  0.45045683263E+02  0.00000000000E+00 0.  1.
         11    1    3    3    0    0  0.29351162748E+01 -0.56516719531E+01 -0.10277536785E+02  0.12090660282E+02  0.51100000000E-03 0. -1.
        -11    1    3    3    0    0  0.48141106246E+01 -0.12861807414E+02 -0.70557658317E+01  0.15439740373E+02  0.51100000000E-03 0.  1.
         12    1    3    3    0    0  0.31931677651E+01 -0.13534078686E+02 -0.12370764487E+02  0.18611916082E+02  0.00000000000E+00 0. -1.
</event>
<event>
 7    1  0.1563903E-008  0.4614232E+02  0.7816164E-02  0.1320468E+00
        -11   -1    0    0    0    0  0.00000000000E+00  0.00000000000E+00  0.45593999997E+02  0.45594000000E+02  0.51100000000E-03 0.  1.
         11   -1    0    0    0    0 -0.00000000000E+00 -0.00000000000E+00 -0.45593999997E+02  0.45594000000E+02  0.51100000000E-03 0. -1.
    9900012    2    1    2    0    0 -0.27094970689E+01  0.24226853306E+02 -0.37879171430E+02  0.46142318478E+02  0.10000006541E+02 0.  0.
        -12    1    1    2    0    0  0.27094970689E+01 -0.24226853306E+02  0.37879171430E+02  0.45045681522E+02  0.00000000000E+00 0.  1.
         11    1    3    3    0    0  0.41680339245E+00  0.78939687363E-02  0.27728798379E+00  0.50067581305E+00  0.51100000000E-03 0.  1.
        -11    1    3    3    0    0 -0.24618953783E+01  0.16096048515E+02 -0.29863212330E+02  0.34014043535E+02  0.51100000000E-03 0. -1.
         12    1    3    3    0    0 -0.66440508298E+00  0.81229108227E+01 -0.82932470842E+01  0.11627599131E+02  0.00000000000E+00 0. -1.
</event>
<event>
 7    1  0.1563903E-008  0.4614232E+02  0.7816164E-02  0.1320468E+00
        -11   -1    0    0    0    0  0.00000000000E+00  0.00000000000E+00  0.45593999997E+02  0.45594000000E+02  0.51100000000E-03 0.  1.
         11   -1    0    0    0    0 -0.00000000000E+00 -0.00000000000E+00 -0.45593999997E+02  0.45594000000E+02  0.51100000000E-03 0. -1.
    9900012    2    1    2    0    0 -0.27848749476E+02 -0.32841050401E+02 -0.13229744174E+02  0.46142316858E+02  0.99999917656E+01 0.  0.
        -12    1    1    2    0    0  0.27848749476E+02  0.32841050401E+02  0.13229744174E+02  0.45045683142E+02  0.00000000000E+00 0.  1.
         11    1    3    3    0    0 -0.28919877417E+01 -0.74728286525E+00  0.86174726709E+00  0.31087993490E+01  0.51100000000E-03 0.  1.
        -11    1    3    3    0    0 -0.22000412780E+02 -0.27982308672E+02 -0.12463052129E+02  0.37714127721E+02  0.51100000000E-03 0. -1.
        -12    1    3    3    0    0 -0.29563489539E+01 -0.41114588639E+01 -0.16284393122E+01  0.53193897883E+01  0.00000000000E+00 0.  1.
</event>
<event>
 7    1  0.1563903E-008  0.4614232E+02  0.7816164E-02  0.1320468E+00
        -11   -1    0    0    0    0  0.00000000000E+00  0.00000000000E+00  0.45593999997E+02  0.45594000000E+02  0.51100000000E-03 0.  1.
         11   -1    0    0    0    0 -0.00000000000E+00 -0.00000000000E+00 -0.45593999997E+02  0.45594000000E+02  0.51100000000E-03 0. -1.
    9900012    2    1    2    0    0 -0.13538692758E+02 -0.15208848319E+02 -0.40180943336E+02  0.46142317897E+02  0.10000001237E+02 0.  0.
        -12    1    1    2    0    0  0.13538692758E+02  0.15208848319E+02  0.40180943336E+02  0.45045682103E+02  0.00000000000E+00 0.  1.
         11    1    3    3    0    0 -0.83048864401E+00 -0.18681361736E+01 -0.23098028564E+01  0.30846123983E+01  0.51100000000E-03 0. -1.
        -11    1    3    3    0    0 -0.72084270533E+01 -0.54537867563E+01 -0.27349042473E+02  0.28804085388E+02  0.51100000000E-03 0.  1.
        -12    1    3    3    0    0 -0.54997770608E+01 -0.78869253887E+01 -0.10522098007E+02  0.14253620111E+02  0.00000000000E+00 0.  1.
</event>
<event>
 7    1  0.1563903E-008  0.4614232E+02  0.7816164E-02  0.1320468E+00
        -11   -1    0    0    0    0  0.00000000000E+00  0.00000000000E+00  0.45593999997E+02  0.45594000000E+02  0.51100000000E-03 0. -1.
         11   -1    0    0    0    0 -0.00000000000E+00 -0.00000000000E+00 -0.45593999997E+02  0.45594000000E+02  0.51100000000E-03 0.  1.
    9900012    2    1    2    0    0  0.29352179734E+02  0.84603714966E+01  0.33105665337E+02  0.46142318538E+02  0.10000007084E+02 0.  0.
        -12    1    1    2    0    0 -0.29352179734E+02 -0.84603714966E+01 -0.33105665337E+02  0.45045681462E+02  0.00000000000E+00 0.  1.
         11    1    3    3    0    0  0.15447279819E+02  0.30436174745E+01  0.11854140898E+02  0.19707935402E+02  0.51100000000E-03 0. -1.
        -11    1    3    3    0    0  0.54846038790E+01  0.47325724675E+01  0.90168116845E+01  0.11566374328E+02  0.51100000000E-03 0.  1.
         12    1    3    3    0    0  0.84202960361E+01  0.68418155454E+00  0.12234712755E+02  0.14868008808E+02  0.00000000000E+00 0. -1.
</event>
<event>
 7    1  0.1563903E-008  0.4614232E+02  0.7816164E-02  0.1320468E+00
        -11   -1    0    0    0    0  0.00000000000E+00  0.00000000000E+00  0.45593999997E+02  0.45594000000E+02  0.51100000000E-03 0.  1.
         11   -1    0    0    0    0 -0.00000000000E+00 -0.00000000000E+00 -0.45593999997E+02  0.45594000000E+02  0.51100000000E-03 0. -1.
    9900012    2    1    2    0    0  0.59744335695E+01 -0.19260101259E+02 -0.40279874184E+02  0.46142316286E+02  0.99999865500E+01 0.  0.
        -12    1    1    2    0    0 -0.59744335695E+01  0.19260101259E+02  0.40279874184E+02  0.45045683714E+02  0.00000000000E+00 0.  1.
         11    1    3    3    0    0  0.33467763461E+01 -0.13155900538E+02 -0.23253971957E+02  0.26926303923E+02  0.51100000000E-03 0. -1.
        -11    1    3    3    0    0 -0.76181160655E+00  0.32628437950E+00 -0.56875348209E+01  0.57475969778E+01  0.51100000000E-03 0.  1.
        -12    1    3    3    0    0  0.33894688300E+01 -0.64304851002E+01 -0.11338367406E+02  0.13468415386E+02  0.00000000000E+00 0.  1.
</event>
<event>
 7    1  0.1563903E-008  0.4614232E+02  0.7816164E-02  0.1320468E+00
        -11   -1    0    0    0    0  0.00000000000E+00  0.00000000000E+00  0.45593999997E+02  0.45594000000E+02  0.51100000000E-03 0.  1.
         11   -1    0    0    0    0 -0.00000000000E+00 -0.00000000000E+00 -0.45593999997E+02  0.45594000000E+02  0.51100000000E-03 0. -1.
    9900012    2    1    2    0    0 -0.40341572264E+01  0.19559172559E+02 -0.40376698533E+02  0.46142318297E+02  0.10000004882E+02 0.  0.
        -12    1    1    2    0    0  0.40341572264E+01 -0.19559172559E+02  0.40376698533E+02  0.45045681703E+02  0.00000000000E+00 0.  1.
         11    1    3    3    0    0 -0.36064525114E+01  0.84425614998E+01 -0.20323113259E+02  0.22300499483E+02  0.51100000000E-03 0. -1.
        -11    1    3    3    0    0 -0.31058752046E+01  0.88746001046E+01 -0.14655541362E+02  0.17412348511E+02  0.51100000000E-03 0.  1.
        -12    1    3    3    0    0  0.26781704896E+01  0.22420109545E+01 -0.53980439114E+01  0.64294703017E+01  0.00000000000E+00 0.  1.
</event>
