<event>
 7    1  0.5317846E-010  0.4778727E+02  0.7816164E-02  0.1312668E+00
        -11   -1    0    0    0    0  0.00000000000E+00  0.00000000000E+00  0.45593999997E+02  0.45594000000E+02  0.51100000000E-03 0.  1.
         11   -1    0    0    0    0 -0.00000000000E+00 -0.00000000000E+00 -0.45593999997E+02  0.45594000000E+02  0.51100000000E-03 0. -1.
    9900012    2    1    2    0    0 -0.27615759803E+02 -0.27642679777E+02  0.18891136527E+02  0.47787274499E+02  0.20000015749E+02 0.  0.
         12    1    1    2    0    0  0.27615759803E+02  0.27642679777E+02 -0.18891136527E+02  0.43400725501E+02  0.00000000000E+00 0. -1.
         11    1    3    3    0    0 -0.37163096718E+01 -0.47276731734E+01  0.28744735631E+00  0.60203386495E+01  0.51100000000E-03 0. -1.
        -11    1    3    3    0    0 -0.18013645388E+02 -0.22652789034E+02  0.86616966011E+01  0.30210350204E+02  0.51100000000E-03 0.  1.
        -12    1    3    3    0    0 -0.58858047429E+01 -0.26221757047E+00  0.99419925695E+01  0.11556585645E+02  0.00000000000E+00 0.  1.
</event>
<event>
 7    1  0.5317846E-010  0.4778728E+02  0.7816164E-02  0.1312668E+00
        -11   -1    0    0    0    0  0.00000000000E+00  0.00000000000E+00  0.45593999997E+02  0.45594000000E+02  0.51100000000E-03 0.  1.
         11   -1    0    0    0    0 -0.00000000000E+00 -0.00000000000E+00 -0.45593999997E+02  0.45594000000E+02  0.51100000000E-03 0. -1.
    9900012    2    1    2    0    0 -0.14120997929E+02  0.22957448789E+02  0.34017280407E+02  0.47787281069E+02  0.20000045707E+02 0.  0.
         12    1    1    2    0    0  0.14120997929E+02 -0.22957448789E+02 -0.34017280407E+02  0.43400718931E+02  0.00000000000E+00 0. -1.
         11    1    3    3    0    0 -0.18642595827E+01  0.69138064738E+00 -0.35847116885E+00  0.20203892772E+01  0.51100000000E-03 0. -1.
        -11    1    3    3    0    0 -0.67512280187E+00 -0.15356457220E+00 -0.16460376551E+01  0.17857248104E+01  0.51100000000E-03 0.  1.
        -12    1    3    3    0    0 -0.11581615544E+02  0.22419632714E+02  0.36021789231E+02  0.43981166982E+02  0.00000000000E+00 0.  1.
</event>
<event>
 7    1  0.5317846E-010  0.4778727E+02  0.7816164E-02  0.1312668E+00
        -11   -1    0    0    0    0  0.00000000000E+00  0.00000000000E+00  0.45593999997E+02  0.45594000000E+02  0.51100000000E-03 0.  1.
         11   -1    0    0    0    0 -0.00000000000E+00 -0.00000000000E+00 -0.45593999997E+02  0.45594000000E+02  0.51100000000E-03 0. -1.
    9900012    2    1    2    0    0 -0.18272477328E+02 -0.36105381952E+02  0.15688899812E+02  0.47787267162E+02  0.19999982296E+02 0.  0.
         12    1    1    2    0    0  0.18272477328E+02  0.36105381952E+02 -0.15688899812E+02  0.43400732838E+02  0.00000000000E+00 0. -1.
         11    1    3    3    0    0 -0.56966533002E+01 -0.18276395231E+02 -0.10247883012E+01  0.19171037342E+02  0.51100000000E-03 0. -1.
        -11    1    3    3    0    0 -0.86713525402E+01 -0.93005927321E+01  0.51312277317E+01  0.13712143463E+02  0.51100000000E-03 0.  1.
         12    1    3    3    0    0 -0.39044714877E+01 -0.85283939891E+01  0.11582460382E+02  0.14904086357E+02  0.00000000000E+00 0. -1.
</event>
<event>
 7    1  0.5317846E-010  0.4778727E+02  0.7816164E-02  0.1312668E+00
        -11   -1    0    0    0    0  0.00000000000E+00  0.00000000000E+00  0.45593999997E+02  0.45594000000E+02  0.51100000000E-03 0.  1.
         11   -1    0    0    0    0 -0.00000000000E+00 -0.00000000000E+00 -0.45593999997E+02  0.45594000000E+02  0.51100000000E-03 0. -1.
    9900012    2    1    2    0    0 -0.29241093782E+02 -0.84039362157E+01  0.30950857414E+02  0.47787270926E+02  0.19999999460E+02 0.  0.
         12    1    1    2    0    0  0.29241093782E+02  0.84039362157E+01 -0.30950857414E+02  0.43400729074E+02  0.00000000000E+00 0. -1.
         11    1    3    3    0    0 -0.20441973413E+02 -0.18583160181E+01  0.20211769096E+02  0.28806999596E+02  0.51100000000E-03 0. -1.
        -11    1    3    3    0    0  0.14122517445E+01 -0.46736629302E+01  0.15679290169E+01  0.51279607875E+01  0.51100000000E-03 0.  1.
        -12    1    3    3    0    0 -0.10211372114E+02 -0.18719572675E+01  0.91711593008E+01  0.13852310543E+02  0.00000000000E+00 0.  1.
</event>
<event>
 7    1  0.5317846E-010  0.4778727E+02  0.7816164E-02  0.1312668E+00
        -11   -1    0    0    0    0  0.00000000000E+00  0.00000000000E+00  0.45593999997E+02  0.45594000000E+02  0.51100000000E-03 0.  1.
         11   -1    0    0    0    0 -0.00000000000E+00 -0.00000000000E+00 -0.45593999997E+02  0.45594000000E+02  0.51100000000E-03 0. -1.
    9900012    2    1    2    0    0  0.21839233289E+02 -0.12702681199E+02  0.35288992890E+02  0.47787271440E+02  0.20000001805E+02 0.  0.
         12    1    1    2    0    0 -0.21839233289E+02  0.12702681199E+02 -0.35288992890E+02  0.43400728560E+02  0.00000000000E+00 0. -1.
         11    1    3    3    0    0  0.10340198219E+02  0.13083262845E+01  0.67425493646E+01  0.12413435829E+02  0.51100000000E-03 0. -1.
        -11    1    3    3    0    0  0.24260124080E+01 -0.96724609253E+01  0.19244030289E+02  0.21674287499E+02  0.51100000000E-03 0.  1.
         12    1    3    3    0    0  0.90730226621E+01 -0.43385465584E+01  0.93024132362E+01  0.13699548112E+02  0.00000000000E+00 0. -1.
</event>
<event>
 7    1  0.5317846E-010  0.4778727E+02  0.7816164E-02  0.1312668E+00
        -11   -1    0    0    0    0  0.00000000000E+00  0.00000000000E+00  0.45593999997E+02  0.45594000000E+02  0.51100000000E-03 0. -1.
         11   -1    0    0    0    0 -0.00000000000E+00 -0.00000000000E+00 -0.45593999997E+02  0.45594000000E+02  0.51100000000E-03 0.  1.
    9900012    2    1    2    0    0  0.32254570020E+02  0.26526547871E+02  0.11815589385E+02  0.47787272108E+02  0.20000004848E+02 0.  0.
         12    1    1    2    0    0 -0.32254570020E+02 -0.26526547871E+02 -0.11815589385E+02  0.43400727892E+02  0.00000000000E+00 0. -1.
         11    1    3    3    0    0  0.16358784117E+02  0.17582632636E+02  0.15542725412E+02  0.28606556970E+02  0.51100000000E-03 0. -1.
        -11    1    3    3    0    0  0.86835251094E+01  0.22462431058E+01 -0.19544138023E+01  0.91798120889E+01  0.51100000000E-03 0.  1.
         12    1    3    3    0    0  0.72122607933E+01  0.66976721292E+01 -0.17727222252E+01  0.10000903049E+02  0.00000000000E+00 0. -1.
</event>
<event>
 7    1  0.5317846E-010  0.4778727E+02  0.7816164E-02  0.1312668E+00
        -11   -1    0    0    0    0  0.00000000000E+00  0.00000000000E+00  0.45593999997E+02  0.45594000000E+02  0.51100000000E-03 0.  1.
         11   -1    0    0    0    0 -0.00000000000E+00 -0.00000000000E+00 -0.45593999997E+02  0.45594000000E+02  0.51100000000E-03 0. -1.
    9900012    2    1    2    0    0  0.23335660367E+02 -0.15720446068E+02  0.33044483368E+02  0.47787270163E+02  0.19999995982E+02 0.  0.
         12    1    1    2    0    0 -0.23335660367E+02  0.15720446068E+02 -0.33044483368E+02  0.43400729837E+02  0.00000000000E+00 0. -1.
         11    1    3    3    0    0 -0.50732398412E+00  0.30064250080E+01  0.32127698649E+01  0.44292052808E+01  0.51100000000E-03 0. -1.
        -11    1    3    3    0    0  0.18476335780E+02 -0.12464146507E+02  0.16695179572E+02  0.27847063637E+02  0.51100000000E-03 0.  1.
        -12    1    3    3    0    0  0.53666485707E+01 -0.62627245690E+01  0.13136533931E+02  0.15511001245E+02  0.00000000000E+00 0.  1.
</event>
<event>
 7    1  0.5317846E-010  0.4778728E+02  0.7816164E-02  0.1312668E+00
        -11   -1    0    0    0    0  0.00000000000E+00  0.00000000000E+00  0.45593999997E+02  0.45594000000E+02  0.51100000000E-03 0.  1.
         11   -1    0    0    0    0 -0.00000000000E+00 -0.00000000000E+00 -0.45593999997E+02  0.45594000000E+02  0.51100000000E-03 0. -1.
    9900012    2    1    2    0    0  0.22119830529E+02  0.33427844479E+02  0.16640769903E+02  0.47787275212E+02  0.20000019002E+02 0.  0.
         12    1    1    2    0    0 -0.22119830529E+02 -0.33427844479E+02 -0.16640769903E+02  0.43400724788E+02  0.00000000000E+00 0. -1.
         11    1    3    3    0    0  0.72794598530E+01  0.10336402839E+01  0.12785301369E+01  0.74628136490E+01  0.51100000000E-03 0. -1.
        -11    1    3    3    0    0  0.70018137668E+01  0.21644682992E+02  0.14532513049E+02  0.26994659354E+02  0.51100000000E-03 0.  1.
        -12    1    3    3    0    0  0.78385569096E+01  0.10749521203E+02  0.82972671758E+00  0.13329802210E+02  0.00000000000E+00 0.  1.
</event>
<event>
 7    1  0.5317846E-010  0.4778728E+02  0.7816164E-02  0.1312668E+00
        -11   -1    0    0    0    0  0.00000000000E+00  0.00000000000E+00  0.45593999997E+02  0.45594000000E+02  0.51100000000E-03 0.  1.
         11   -1    0    0    0    0 -0.00000000000E+00 -0.00000000000E+00 -0.45593999997E+02  0.45594000000E+02  0.51100000000E-03 0. -1.
    9900012    2    1    2    0    0 -0.37678222437E+02 -0.80384317666E+01  0.19983940175E+02  0.47787277700E+02  0.20000030345E+02 0.  0.
         12    1    1    2    0    0  0.37678222437E+02  0.80384317666E+01 -0.19983940175E+02  0.43400722300E+02  0.00000000000E+00 0. -1.
         11    1    3    3    0    0 -0.30027954795E+02 -0.62784716696E+01  0.86698071825E+01  0.31878877529E+02  0.51100000000E-03 0. -1.
        -11    1    3    3    0    0 -0.59933922113E+01 -0.40616442968E+01  0.10836337337E+02  0.13032417724E+02  0.51100000000E-03 0.  1.
         12    1    3    3    0    0 -0.16568754303E+01  0.23016841999E+01  0.47779565576E+00  0.28759824471E+01  0.00000000000E+00 0. -1.
</event>
<event>
 7    1  0.5317846E-010  0.4778727E+02  0.7816164E-02  0.1312668E+00
        -11   -1    0    0    0    0  0.00000000000E+00  0.00000000000E+00  0.45593999997E+02  0.45594000000E+02  0.51100000000E-03 0. -1.
         11   -1    0    0    0    0 -0.00000000000E+00 -0.00000000000E+00 -0.45593999997E+02  0.45594000000E+02  0.51100000000E-03 0.  1.
    9900012    2    1    2    0    0 -0.26955541658E+02 -0.20675957509E+02  0.27009755953E+02  0.47787270034E+02  0.19999995392E+02 0.  0.
         12    1    1    2    0    0  0.26955541658E+02  0.20675957509E+02 -0.27009755953E+02  0.43400729966E+02  0.00000000000E+00 0. -1.
         11    1    3    3    0    0  0.28528990794E+01 -0.22010778299E+01  0.10634113178E+01  0.37569429943E+01  0.51100000000E-03 0. -1.
        -11    1    3    3    0    0 -0.23384006875E+02 -0.16909374165E+02  0.19751618482E+02  0.34969488774E+02  0.51100000000E-03 0.  1.
         12    1    3    3    0    0 -0.64244338625E+01 -0.15655055140E+01  0.61947261527E+01  0.90608382656E+01  0.00000000000E+00 0. -1.
</event>
<event>
 7    1  0.5317846E-010  0.4778727E+02  0.7816164E-02  0.1312668E+00
        -11   -1    0    0    0    0  0.00000000000E+00  0.00000000000E+00  0.45593999997E+02  0.45594000000E+02  0.51100000000E-03 0.  1.
         11   -1    0    0    0    0 -0.00000000000E+00 -0.00000000000E+00 -0.45593999997E+02  0.45594000000E+02  0.51100000000E-03 0. -1.
    9900012    2    1    2    0    0 -0.41161532218E+02  0.93765305071E+01  0.10071360843E+02  0.47787269959E+02  0.19999995050E+02 0.  0.
         12    1    1    2    0    0  0.41161532218E+02 -0.93765305071E+01 -0.10071360843E+02  0.43400730041E+02  0.00000000000E+00 0. -1.
         11    1    3    3    0    0  0.15696253649E+00  0.73040732852E+00 -0.53914621205E+00  0.92130939565E+00  0.51100000000E-03 0. -1.
        -11    1    3    3    0    0 -0.17471897830E+01  0.26371417396E+01  0.57291057939E+01  0.65444512491E+01  0.51100000000E-03 0.  1.
        -12    1    3    3    0    0 -0.39571304971E+02  0.60089814390E+01  0.48814012615E+01  0.40321509314E+02  0.00000000000E+00 0.  1.
</event>
<event>
 7    1  0.5317846E-010  0.4778727E+02  0.7816164E-02  0.1312668E+00
        -11   -1    0    0    0    0  0.00000000000E+00  0.00000000000E+00  0.45593999997E+02  0.45594000000E+02  0.51100000000E-03 0.  1.
         11   -1    0    0    0    0 -0.00000000000E+00 -0.00000000000E+00 -0.45593999997E+02  0.45594000000E+02  0.51100000000E-03 0. -1.
    9900012    2    1    2    0    0  0.15507714132E+01  0.12682748231E+02  0.41477302968E+02  0.47787266640E+02  0.19999979918E+02 0.  0.
         12    1    1    2    0    0 -0.15507714132E+01 -0.12682748231E+02 -0.41477302968E+02  0.43400733360E+02  0.00000000000E+00 0. -1.
         11    1    3    3    0    0  0.62459025010E+01  0.57147218034E+01  0.44518148337E+01  0.95649359076E+01  0.51100000000E-03 0. -1.
        -11    1    3    3    0    0 -0.17373893875E+01  0.25883806591E+01  0.23418549843E+02  0.23625128853E+02  0.51100000000E-03 0.  1.
        -12    1    3    3    0    0 -0.29577417003E+01  0.43796457690E+01  0.13606938292E+02  0.14597201879E+02  0.00000000000E+00 0.  1.
</event>
<event>
 7    1  0.5882091E-010  0.4778727E+02  0.7816164E-02  0.1312668E+00
        -11   -1    0    0    0    0  0.00000000000E+00  0.00000000000E+00  0.45593999997E+02  0.45594000000E+02  0.51100000000E-03 0. -1.
         11   -1    0    0    0    0 -0.00000000000E+00 -0.00000000000E+00 -0.45593999997E+02  0.45594000000E+02  0.51100000000E-03 0.  1.
    9900012    2    1    2    0    0 -0.10137371051E+02  0.18070327520E+02 -0.38135550836E+02  0.47787271134E+02  0.20000000408E+02 0.  0.
         12    1    1    2    0    0  0.10137371051E+02 -0.18070327520E+02  0.38135550836E+02  0.43400728866E+02  0.00000000000E+00 0. -1.
         11    1    3    3    0    0 -0.13339298100E+01  0.13980972264E+01  0.76896360643E+00  0.20797475524E+01  0.51100000000E-03 0. -1.
        -11    1    3    3    0    0 -0.20082015170E+01  0.21611270281E+00 -0.18573167159E+02  0.18682668883E+02  0.51100000000E-03 0.  1.
        -12    1    3    3    0    0 -0.67952397237E+01  0.16456117591E+02 -0.20331347284E+02  0.27024854698E+02  0.00000000000E+00 0.  1.
</event>
<event>
 7    1  0.5317846E-010  0.4778727E+02  0.7816164E-02  0.1312668E+00
        -11   -1    0    0    0    0  0.00000000000E+00  0.00000000000E+00  0.45593999997E+02  0.45594000000E+02  0.51100000000E-03 0.  1.
         11   -1    0    0    0    0 -0.00000000000E+00 -0.00000000000E+00 -0.45593999997E+02  0.45594000000E+02  0.51100000000E-03 0. -1.
    9900012    2    1    2    0    0 -0.25536895797E+02  0.19064569090E+02  0.29462394968E+02  0.47787267762E+02  0.19999985034E+02 0.  0.
         12    1    1    2    0    0  0.25536895797E+02 -0.19064569090E+02 -0.29462394968E+02  0.43400732238E+02  0.00000000000E+00 0. -1.
         11    1    3    3    0    0 -0.70673709493E+01  0.13569299518E+02  0.18163510476E+02  0.23748404886E+02  0.51100000000E-03 0. -1.
        -11    1    3    3    0    0 -0.18858072158E+02  0.62526495149E+01  0.11743173383E+02  0.23078661851E+02  0.51100000000E-03 0.  1.
        -12    1    3    3    0    0  0.38854731036E+00 -0.75737994254E+00 -0.44428889134E+00  0.96020102516E+00  0.00000000000E+00 0.  1.
</event>
<event>
 7    1  0.5317846E-010  0.4778728E+02  0.7816164E-02  0.1312668E+00
        -11   -1    0    0    0    0  0.00000000000E+00  0.00000000000E+00  0.45593999997E+02  0.45594000000E+02  0.51100000000E-03 0.  1.
         11   -1    0    0    0    0 -0.00000000000E+00 -0.00000000000E+00 -0.45593999997E+02  0.45594000000E+02  0.51100000000E-03 0. -1.
    9900012    2    1    2    0    0 -0.39774966673E+01  0.34764991763E+02  0.25674840386E+02  0.47787279259E+02  0.20000037454E+02 0.  0.
         12    1    1    2    0    0  0.39774966673E+01 -0.34764991763E+02 -0.25674840386E+02  0.43400720741E+02  0.00000000000E+00 0. -1.
         11    1    3    3    0    0 -0.15227982775E+01 -0.15401627609E+01  0.42379378665E+01  0.47593207021E+01  0.51100000000E-03 0.  1.
        -11    1    3    3    0    0 -0.46979934584E+01  0.26314887056E+02  0.12823041556E+02  0.29647509479E+02  0.51100000000E-03 0. -1.
        -12    1    3    3    0    0  0.22432950686E+01  0.99902674673E+01  0.86138609634E+01  0.13380449078E+02  0.00000000000E+00 0.  1.
</event>
<event>
 7    1  0.5317846E-010  0.4778727E+02  0.7816164E-02  0.1312668E+00
        -11   -1    0    0    0    0  0.00000000000E+00  0.00000000000E+00  0.45593999997E+02  0.45594000000E+02  0.51100000000E-03 0.  1.
         11   -1    0    0    0    0 -0.00000000000E+00 -0.00000000000E+00 -0.45593999997E+02  0.45594000000E+02  0.51100000000E-03 0. -1.
    9900012    2    1    2    0    0  0.28346827599E+02 -0.61650811114E+01  0.32281147719E+02  0.47787270074E+02  0.19999995576E+02 0.  0.
         12    1    1    2    0    0 -0.28346827599E+02  0.61650811114E+01 -0.32281147719E+02  0.43400729926E+02  0.00000000000E+00 0. -1.
         11    1    3    3    0    0  0.65856179019E+01  0.46489245138E+00  0.19059261522E+01  0.68716113758E+01  0.51100000000E-03 0. -1.
        -11    1    3    3    0    0  0.13897793173E+02 -0.20832084582E+01  0.28301762238E+02  0.31598705015E+02  0.51100000000E-03 0.  1.
        -12    1    3    3    0    0  0.78634165247E+01 -0.45467651046E+01  0.20734593284E+01  0.93169536837E+01  0.00000000000E+00 0.  1.
</event>
<event>
 7    1  0.5317846E-010  0.4778727E+02  0.7816164E-02  0.1312668E+00
        -11   -1    0    0    0    0  0.00000000000E+00  0.00000000000E+00  0.45593999997E+02  0.45594000000E+02  0.51100000000E-03 0.  1.
         11   -1    0    0    0    0 -0.00000000000E+00 -0.00000000000E+00 -0.45593999997E+02  0.45594000000E+02  0.51100000000E-03 0. -1.
    9900012    2    1    2    0    0 -0.31630009587E+02 -0.25838106257E+02 -0.14681893137E+02  0.47787271579E+02  0.20000002435E+02 0.  0.
         12    1    1    2    0    0  0.31630009587E+02  0.25838106257E+02  0.14681893137E+02  0.43400728421E+02  0.00000000000E+00 0. -1.
         11    1    3    3    0    0 -0.57452424111E+01 -0.82967861508E+01 -0.95987808246E+01  0.13927708511E+02  0.51100000000E-03 0. -1.
        -11    1    3    3    0    0 -0.62871068963E+01 -0.34994635836E+01 -0.65169994918E+01  0.97079988224E+01  0.51100000000E-03 0.  1.
         12    1    3    3    0    0 -0.19597660280E+02 -0.14041856523E+02  0.14338871793E+01  0.24151564245E+02  0.00000000000E+00 0. -1.
</event>
<event>
 7    1  0.5322797E-010  0.4778727E+02  0.7816164E-02  0.1312668E+00
        -11   -1    0    0    0    0  0.00000000000E+00  0.00000000000E+00  0.45593999997E+02  0.45594000000E+02  0.51100000000E-03 0.  1.
         11   -1    0    0    0    0 -0.00000000000E+00 -0.00000000000E+00 -0.45593999997E+02  0.45594000000E+02  0.51100000000E-03 0. -1.
    9900012    2    1    2    0    0  0.43345614267E+02  0.19182992568E+01  0.10494482142E+01  0.47787268557E+02  0.19999988660E+02 0.  0.
         12    1    1    2    0    0 -0.43345614267E+02 -0.19182992568E+01 -0.10494482142E+01  0.43400731443E+02  0.00000000000E+00 0. -1.
         11    1    3    3    0    0  0.11040517930E+02  0.12978027184E+01 -0.77468857362E+01  0.13549596560E+02  0.51100000000E-03 0. -1.
        -11    1    3    3    0    0  0.28777143936E+02 -0.47272910524E+00  0.55307996129E+01  0.29307630927E+02  0.51100000000E-03 0.  1.
         12    1    3    3    0    0  0.35279524009E+01  0.10932256437E+01  0.32655343375E+01  0.49300410709E+01  0.00000000000E+00 0. -1.
</event>
<event>
 7    1  0.5317846E-010  0.4778728E+02  0.7816164E-02  0.1312668E+00
        -11   -1    0    0    0    0  0.00000000000E+00  0.00000000000E+00  0.45593999997E+02  0.45594000000E+02  0.51100000000E-03 0.  1.
         11   -1    0    0    0    0 -0.00000000000E+00 -0.00000000000E+00 -0.45593999997E+02  0.45594000000E+02  0.51100000000E-03 0. -1.
    9900012    2    1    2    0    0 -0.27065038115E+02 -0.81394038747E+01  0.32937159234E+02  0.47787278324E+02  0.20000033192E+02 0.  0.
         12    1    1    2    0    0  0.27065038115E+02  0.81394038747E+01 -0.32937159234E+02  0.43400721676E+02  0.00000000000E+00 0. -1.
         11    1    3    3    0    0 -0.20601042117E+02 -0.33476725382E+01  0.15147938257E+02  0.25788948824E+02  0.51100000000E-03 0.  1.
        -11    1    3    3    0    0 -0.27015290807E+01  0.89352374507E+00  0.13819261780E+02  0.14109168666E+02  0.51100000000E-03 0. -1.
        -12    1    3    3    0    0 -0.37624669168E+01 -0.56852550816E+01  0.39699591977E+01  0.78891608346E+01  0.00000000000E+00 0.  1.
</event>
<event>
 7    1  0.5317846E-010  0.4778727E+02  0.7816164E-02  0.1312668E+00
        -11   -1    0    0    0    0  0.00000000000E+00  0.00000000000E+00  0.45593999997E+02  0.45594000000E+02  0.51100000000E-03 0.  1.
         11   -1    0    0    0    0 -0.00000000000E+00 -0.00000000000E+00 -0.45593999997E+02  0.45594000000E+02  0.51100000000E-03 0. -1.
    9900012    2    1    2    0    0 -0.33711728194E+02 -0.24031733238E+02  0.13023773044E+02  0.47787268617E+02  0.19999988934E+02 0.  0.
         12    1    1    2    0    0  0.33711728194E+02  0.24031733238E+02 -0.13023773044E+02  0.43400731383E+02  0.00000000000E+00 0. -1.
         11    1    3    3    0    0 -0.20203612675E+02 -0.53683120941E+01  0.30668910532E+01  0.21128430156E+02  0.51100000000E-03 0. -1.
        -11    1    3    3    0    0 -0.99248374820E+01 -0.16276008184E+02  0.11284683504E+02  0.22152989042E+02  0.51100000000E-03 0.  1.
        -12    1    3    3    0    0 -0.35832780369E+01 -0.23874129593E+01 -0.13278015129E+01  0.45058494189E+01  0.00000000000E+00 0.  1.
</event>
<event>
 7    1  0.5317846E-010  0.4778727E+02  0.7816164E-02  0.1312668E+00
        -11   -1    0    0    0    0  0.00000000000E+00  0.00000000000E+00  0.45593999997E+02  0.45594000000E+02  0.51100000000E-03 0. -1.
         11   -1    0    0    0    0 -0.00000000000E+00 -0.00000000000E+00 -0.45593999997E+02  0.45594000000E+02  0.51100000000E-03 0.  1.
    9900012    2    1    2    0    0  0.32937418685E+02 -0.27826542664E+02  0.49430212086E+01  0.47787268613E+02  0.19999988913E+02 0.  0.
         12    1    1    2    0    0 -0.32937418685E+02  0.27826542664E+02 -0.49430212086E+01  0.43400731387E+02  0.00000000000E+00 0. -1.
         11    1    3    3    0    0  0.49485459787E+01 -0.13782784140E+01 -0.47838532669E+01  0.70194737004E+01  0.51100000000E-03 0. -1.
        -11    1    3    3    0    0  0.27434787119E+02 -0.26595135598E+02  0.81214605962E+01  0.39063114369E+02  0.51100000000E-03 0.  1.
        -12    1    3    3    0    0  0.55408558726E+00  0.14687134748E+00  0.16054138794E+01  0.17046805434E+01  0.00000000000E+00 0.  1.
</event>
<event>
 7    1  0.5317846E-010  0.4778727E+02  0.7816164E-02  0.1312668E+00
        -11   -1    0    0    0    0  0.00000000000E+00  0.00000000000E+00  0.45593999997E+02  0.45594000000E+02  0.51100000000E-03 0.  1.
         11   -1    0    0    0    0 -0.00000000000E+00 -0.00000000000E+00 -0.45593999997E+02  0.45594000000E+02  0.51100000000E-03 0. -1.
    9900012    2    1    2    0    0 -0.22447952944E+02  0.87713991951E+01  0.36093980099E+02  0.47787269192E+02  0.19999991556E+02 0.  0.
         12    1    1    2    0    0  0.22447952944E+02 -0.87713991951E+01 -0.36093980099E+02  0.43400730808E+02  0.00000000000E+00 0. -1.
         11    1    3    3    0    0 -0.54021816199E+01  0.10511690859E+02  0.18503584111E+02  0.21955906635E+02  0.51100000000E-03 0. -1.
        -11    1    3    3    0    0 -0.17181771387E+02 -0.15532627625E+00  0.15090994145E+02  0.22868657564E+02  0.51100000000E-03 0.  1.
        -12    1    3    3    0    0  0.13600006350E+00 -0.15849653876E+01  0.24994018435E+01  0.29627049925E+01  0.00000000000E+00 0.  1.
</event>
<event>
 7    1  0.5317846E-010  0.4778727E+02  0.7816164E-02  0.1312668E+00
        -11   -1    0    0    0    0  0.00000000000E+00  0.00000000000E+00  0.45593999997E+02  0.45594000000E+02  0.51100000000E-03 0.  1.
         11   -1    0    0    0    0 -0.00000000000E+00 -0.00000000000E+00 -0.45593999997E+02  0.45594000000E+02  0.51100000000E-03 0. -1.
    9900012    2    1    2    0    0  0.46070256473E+01  0.13717105611E+02  0.40917472882E+02  0.47787271219E+02  0.20000000796E+02 0.  0.
         12    1    1    2    0    0 -0.46070256473E+01 -0.13717105611E+02 -0.40917472882E+02  0.43400728781E+02  0.00000000000E+00 0. -1.
         11    1    3    3    0    0 -0.17321672343E+01 -0.29032610015E+01  0.82005211065E+01  0.88700549294E+01  0.51100000000E-03 0. -1.
        -11    1    3    3    0    0  0.89632080072E+01  0.15215561530E+02  0.24683274838E+02  0.30349900617E+02  0.51100000000E-03 0.  1.
        -12    1    3    3    0    0 -0.26240151256E+01  0.14048050822E+01  0.80336769378E+01  0.85673156729E+01  0.00000000000E+00 0.  1.
</event>
<event>
 7    1  0.5317846E-010  0.4778727E+02  0.7816164E-02  0.1312668E+00
        -11   -1    0    0    0    0  0.00000000000E+00  0.00000000000E+00  0.45593999997E+02  0.45594000000E+02  0.51100000000E-03 0. -1.
         11   -1    0    0    0    0 -0.00000000000E+00 -0.00000000000E+00 -0.45593999997E+02  0.45594000000E+02  0.51100000000E-03 0.  1.
    9900012    2    1    2    0    0 -0.13925925925E+02  0.26820365855E+02 -0.31150596914E+02  0.47787272753E+02  0.20000007792E+02 0.  0.
         12    1    1    2    0    0  0.13925925925E+02 -0.26820365855E+02  0.31150596914E+02  0.43400727247E+02  0.00000000000E+00 0. -1.
         11    1    3    3    0    0 -0.85446386466E+00  0.10048978843E+02 -0.14132852097E+02  0.17362303791E+02  0.51100000000E-03 0. -1.
        -11    1    3    3    0    0 -0.13875631360E+02  0.77084171768E+01 -0.12825585464E+02  0.20407069455E+02  0.51100000000E-03 0.  1.
        -12    1    3    3    0    0  0.80416930014E+00  0.90629698349E+01 -0.41921593540E+01  0.10017899507E+02  0.00000000000E+00 0.  1.
</event>
<event>
 7    1  0.5317846E-010  0.4778727E+02  0.7816164E-02  0.1312668E+00
        -11   -1    0    0    0    0  0.00000000000E+00  0.00000000000E+00  0.45593999997E+02  0.45594000000E+02  0.51100000000E-03 0. -1.
         11   -1    0    0    0    0 -0.00000000000E+00 -0.00000000000E+00 -0.45593999997E+02  0.45594000000E+02  0.51100000000E-03 0.  1.
    9900012    2    1    2    0    0  0.14837245892E+02 -0.15915620493E+02 -0.37552258402E+02  0.47787274747E+02  0.20000016882E+02 0.  0.
         12    1    1    2    0    0 -0.14837245892E+02  0.15915620493E+02  0.37552258402E+02  0.43400725253E+02  0.00000000000E+00 0. -1.
         11    1    3    3    0    0  0.67750552791E+01 -0.29861470706E+01 -0.43757045599E+00  0.74168670290E+01  0.51100000000E-03 0. -1.
        -11    1    3    3    0    0  0.84802394984E+01 -0.11906641732E+02 -0.32683748808E+02  0.35803770970E+02  0.51100000000E-03 0.  1.
         12    1    3    3    0    0 -0.41804888551E+00 -0.10228316906E+01 -0.44309391383E+01  0.45666367477E+01  0.00000000000E+00 0. -1.
</event>
<event>
 7    1  0.5881144E-010  0.4778727E+02  0.7816164E-02  0.1312668E+00
        -11   -1    0    0    0    0  0.00000000000E+00  0.00000000000E+00  0.45593999997E+02  0.45594000000E+02  0.51100000000E-03 0.  1.
         11   -1    0    0    0    0 -0.00000000000E+00 -0.00000000000E+00 -0.45593999997E+02  0.45594000000E+02  0.51100000000E-03 0. -1.
    9900012    2    1    2    0    0  0.43214890216E+02  0.29158075362E+01  0.27558218906E+01  0.47787271616E+02  0.20000002604E+02 0.  0.
         12    1    1    2    0    0 -0.43214890216E+02 -0.29158075362E+01 -0.27558218906E+01  0.43400728384E+02  0.00000000000E+00 0. -1.
         11    1    3    3    0    0  0.19084943663E+02 -0.45304354527E+01  0.76181866922E+01  0.21042734821E+02  0.51100000000E-03 0. -1.
        -11    1    3    3    0    0  0.14532131954E+02  0.70103901732E+01 -0.37125171725E+00  0.16138967055E+02  0.51100000000E-03 0.  1.
         12    1    3    3    0    0  0.95978146000E+01  0.43585281568E+00 -0.44911130843E+01  0.10605569740E+02  0.00000000000E+00 0. -1.
</event>
<event>
 7    1  0.5317846E-010  0.4778727E+02  0.7816164E-02  0.1312668E+00
        -11   -1    0    0    0    0  0.00000000000E+00  0.00000000000E+00  0.45593999997E+02  0.45594000000E+02  0.51100000000E-03 0.  1.
         11   -1    0    0    0    0 -0.00000000000E+00 -0.00000000000E+00 -0.45593999997E+02  0.45594000000E+02  0.51100000000E-03 0. -1.
    9900012    2    1    2    0    0  0.23371506901E+02  0.36558694582E+02  0.92620110907E+00  0.47787270365E+02  0.19999996903E+02 0.  0.
         12    1    1    2    0    0 -0.23371506901E+02 -0.36558694582E+02 -0.92620110907E+00  0.43400729635E+02  0.00000000000E+00 0. -1.
         11    1    3    3    0    0  0.17512429427E+02  0.17014869811E+02 -0.57084211306E+01  0.25075427239E+02  0.51100000000E-03 0. -1.
        -11    1    3    3    0    0  0.95321925320E+00  0.14463596228E+02  0.57522247217E+01  0.15594625110E+02  0.51100000000E-03 0.  1.
        -12    1    3    3    0    0  0.49058582202E+01  0.50802285427E+01  0.88239751802E+00  0.71172180170E+01  0.00000000000E+00 0.  1.
</event>
<event>
 7    1  0.5317846E-010  0.4778727E+02  0.7816164E-02  0.1312668E+00
        -11   -1    0    0    0    0  0.00000000000E+00  0.00000000000E+00  0.45593999997E+02  0.45594000000E+02  0.51100000000E-03 0.  1.
         11   -1    0    0    0    0 -0.00000000000E+00 -0.00000000000E+00 -0.45593999997E+02  0.45594000000E+02  0.51100000000E-03 0. -1.
    9900012    2    1    2    0    0 -0.14518723130E+02  0.17408479917E+02  0.37010470661E+02  0.47787269213E+02  0.19999991648E+02 0.  0.
         12    1    1    2    0    0  0.14518723130E+02 -0.17408479917E+02 -0.37010470661E+02  0.43400730787E+02  0.00000000000E+00 0. -1.
         11    1    3    3    0    0 -0.15665755627E+02  0.61454683385E+01  0.15332918694E+02  0.22765787410E+02  0.51100000000E-03 0. -1.
        -11    1    3    3    0    0  0.11190718516E+01  0.10597156316E+02  0.15509058495E+02  0.18817091684E+02  0.51100000000E-03 0.  1.
         12    1    3    3    0    0  0.27960644922E-01  0.66585526189E+00  0.61684934719E+01  0.62043901184E+01  0.00000000000E+00 0. -1.
</event>
<event>
 7    1  0.6282025E-010  0.4778729E+02  0.7816164E-02  0.1312668E+00
        -11   -1    0    0    0    0  0.00000000000E+00  0.00000000000E+00  0.45593999997E+02  0.45594000000E+02  0.51100000000E-03 0. -1.
         11   -1    0    0    0    0 -0.00000000000E+00 -0.00000000000E+00 -0.45593999997E+02  0.45594000000E+02  0.51100000000E-03 0.  1.
    9900012    2    1    2    0    0  0.23577434638E+02 -0.13906580771E+02 -0.33679864904E+02  0.47787289029E+02  0.20000081997E+02 0.  0.
         12    1    1    2    0    0 -0.23577434638E+02  0.13906580771E+02  0.33679864904E+02  0.43400710971E+02  0.00000000000E+00 0. -1.
         11    1    3    3    0    0  0.18491299935E+02 -0.22269609607E+01 -0.17368353586E+02  0.25466590564E+02  0.51100000000E-03 0. -1.
        -11    1    3    3    0    0  0.72912366738E+01 -0.10309428707E+02 -0.13172756771E+02  0.18247410055E+02  0.51100000000E-03 0.  1.
         12    1    3    3    0    0 -0.22051019707E+01 -0.13701911034E+01 -0.31387545470E+01  0.40732884096E+01  0.00000000000E+00 0. -1.
</event>
<event>
 7    1  0.5317846E-010  0.4778727E+02  0.7816164E-02  0.1312668E+00
        -11   -1    0    0    0    0  0.00000000000E+00  0.00000000000E+00  0.45593999997E+02  0.45594000000E+02  0.51100000000E-03 0.  1.
         11   -1    0    0    0    0 -0.00000000000E+00 -0.00000000000E+00 -0.45593999997E+02  0.45594000000E+02  0.51100000000E-03 0. -1.
    9900012    2    1    2    0    0  0.29130880399E+02  0.23686616442E+02  0.21770605987E+02  0.47787271016E+02  0.19999999870E+02 0.  0.
         12    1    1    2    0    0 -0.29130880399E+02 -0.23686616442E+02 -0.21770605987E+02  0.43400728984E+02  0.00000000000E+00 0. -1.
         11    1    3    3    0    0  0.97330453226E+01  0.31255634853E+01  0.91513378699E+00  0.10263468637E+02  0.51100000000E-03 0. -1.
        -11    1    3    3    0    0  0.12424307451E+02  0.79268725076E+01  0.17174066633E+02  0.22630671408E+02  0.51100000000E-03 0.  1.
        -12    1    3    3    0    0  0.69735276257E+01  0.12634180449E+02  0.36814055668E+01  0.14893130971E+02  0.00000000000E+00 0.  1.
</event>
<event>
 7    1  0.5317846E-010  0.4778726E+02  0.7816164E-02  0.1312668E+00
        -11   -1    0    0    0    0  0.00000000000E+00  0.00000000000E+00  0.45593999997E+02  0.45594000000E+02  0.51100000000E-03 0. -1.
         11   -1    0    0    0    0 -0.00000000000E+00 -0.00000000000E+00 -0.45593999997E+02  0.45594000000E+02  0.51100000000E-03 0.  1.
    9900012    2    1    2    0    0  0.17704911498E+02 -0.36733823381E+02 -0.14858898080E+02  0.47787256648E+02  0.19999934362E+02 0.  0.
         12    1    1    2    0    0 -0.17704911498E+02  0.36733823381E+02  0.14858898080E+02  0.43400743352E+02  0.00000000000E+00 0. -1.
         11    1    3    3    0    0  0.62031112301E+01 -0.12783984877E+02 -0.12719145684E+02  0.19070540775E+02  0.51100000000E-03 0. -1.
        -11    1    3    3    0    0  0.58269482829E+01 -0.61162124471E+01 -0.49517236740E+01  0.97918817699E+01  0.51100000000E-03 0.  1.
         12    1    3    3    0    0  0.56748519854E+01 -0.17833626056E+02  0.28119712773E+01  0.18924834103E+02  0.00000000000E+00 0. -1.
</event>
<event>
 7    1  0.5317846E-010  0.4778727E+02  0.7816164E-02  0.1312668E+00
        -11   -1    0    0    0    0  0.00000000000E+00  0.00000000000E+00  0.45593999997E+02  0.45594000000E+02  0.51100000000E-03 0. -1.
         11   -1    0    0    0    0 -0.00000000000E+00 -0.00000000000E+00 -0.45593999997E+02  0.45594000000E+02  0.51100000000E-03 0.  1.
    9900012    2    1    2    0    0  0.19698627882E+02  0.34876043219E+02 -0.16710739914E+02  0.47787272362E+02  0.20000006008E+02 0.  0.
         12    1    1    2    0    0 -0.19698627882E+02 -0.34876043219E+02  0.16710739914E+02  0.43400727638E+02  0.00000000000E+00 0. -1.
         11    1    3    3    0    0  0.10906747997E+01  0.11362560584E+02 -0.11710579925E+02  0.16353441136E+02  0.51100000000E-03 0. -1.
        -11    1    3    3    0    0  0.17198719365E+02  0.23330614885E+02 -0.32304280131E+01  0.29164176726E+02  0.51100000000E-03 0.  1.
        -12    1    3    3    0    0  0.14092337172E+01  0.18286774943E+00 -0.17697319755E+01  0.22696544999E+01  0.00000000000E+00 0.  1.
</event>
<event>
 7    1  0.5317846E-010  0.4778726E+02  0.7816164E-02  0.1312668E+00
        -11   -1    0    0    0    0  0.00000000000E+00  0.00000000000E+00  0.45593999997E+02  0.45594000000E+02  0.51100000000E-03 0.  1.
         11   -1    0    0    0    0 -0.00000000000E+00 -0.00000000000E+00 -0.45593999997E+02  0.45594000000E+02  0.51100000000E-03 0. -1.
    9900012    2    1    2    0    0 -0.93671434350E+01 -0.39571687391E+02  0.15164525937E+02  0.47787255006E+02  0.19999926874E+02 0.  0.
         12    1    1    2    0    0  0.93671434350E+01  0.39571687391E+02 -0.15164525937E+02  0.43400744994E+02  0.00000000000E+00 0. -1.
         11    1    3    3    0    0  0.64766370112E+00 -0.69963882993E+01 -0.38412242864E+01  0.80077413659E+01  0.51100000000E-03 0. -1.
        -11    1    3    3    0    0 -0.30720132888E+01 -0.11614919432E+02  0.11009846013E+02  0.16296021862E+02  0.51100000000E-03 0.  1.
         12    1    3    3    0    0 -0.69427938473E+01 -0.20960379661E+02  0.79959042106E+01  0.23483491778E+02  0.00000000000E+00 0. -1.
</event>
<event>
 7    1  0.5317846E-010  0.4778727E+02  0.7816164E-02  0.1312668E+00
        -11   -1    0    0    0    0  0.00000000000E+00  0.00000000000E+00  0.45593999997E+02  0.45594000000E+02  0.51100000000E-03 0.  1.
         11   -1    0    0    0    0 -0.00000000000E+00 -0.00000000000E+00 -0.45593999997E+02  0.45594000000E+02  0.51100000000E-03 0. -1.
    9900012    2    1    2    0    0 -0.32476979661E+02 -0.10567158933E+02  0.26780664721E+02  0.47787273523E+02  0.20000011300E+02 0.  0.
         12    1    1    2    0    0  0.32476979661E+02  0.10567158933E+02 -0.26780664721E+02  0.43400726477E+02  0.00000000000E+00 0. -1.
         11    1    3    3    0    0 -0.12019732563E+01  0.19681988678E+01  0.12000388398E+01  0.25997384427E+01  0.51100000000E-03 0. -1.
        -11    1    3    3    0    0 -0.15950429311E+02  0.13179122964E+01  0.15181362451E+02  0.22059620444E+02  0.51100000000E-03 0.  1.
        -12    1    3    3    0    0 -0.15324577094E+02 -0.13853270097E+02  0.10399263431E+02  0.23127914636E+02  0.00000000000E+00 0.  1.
</event>
<event>
 7    1  0.5317846E-010  0.4778727E+02  0.7816164E-02  0.1312668E+00
        -11   -1    0    0    0    0  0.00000000000E+00  0.00000000000E+00  0.45593999997E+02  0.45594000000E+02  0.51100000000E-03 0.  1.
         11   -1    0    0    0    0 -0.00000000000E+00 -0.00000000000E+00 -0.45593999997E+02  0.45594000000E+02  0.51100000000E-03 0. -1.
    9900012    2    1    2    0    0  0.22704812761E+01  0.41389515973E+02  0.12859869184E+02  0.47787270131E+02  0.19999995836E+02 0.  0.
         12    1    1    2    0    0 -0.22704812761E+01 -0.41389515973E+02 -0.12859869184E+02  0.43400729869E+02  0.00000000000E+00 0. -1.
         11    1    3    3    0    0 -0.73312889311E+01  0.19859535510E+02  0.38764875807E+01  0.21521526533E+02  0.51100000000E-03 0. -1.
        -11    1    3    3    0    0  0.76885088470E+01  0.21085164567E+02  0.70873853501E+01  0.23535682792E+02  0.51100000000E-03 0.  1.
         12    1    3    3    0    0  0.19132613602E+01  0.44481589545E+00  0.18959962535E+01  0.27300608064E+01  0.00000000000E+00 0. -1.
</event>
<event>
 7    1  0.5317846E-010  0.4778728E+02  0.7816164E-02  0.1312668E+00
        -11   -1    0    0    0    0  0.00000000000E+00  0.00000000000E+00  0.45593999997E+02  0.45594000000E+02  0.51100000000E-03 0.  1.
         11   -1    0    0    0    0 -0.00000000000E+00 -0.00000000000E+00 -0.45593999997E+02  0.45594000000E+02  0.51100000000E-03 0. -1.
    9900012    2    1    2    0    0 -0.17490941167E+02 -0.34039932649E+02 -0.20468827272E+02  0.47787275035E+02  0.20000018193E+02 0.  0.
         12    1    1    2    0    0  0.17490941167E+02  0.34039932649E+02  0.20468827272E+02  0.43400724965E+02  0.00000000000E+00 0. -1.
         11    1    3    3    0    0 -0.47982900482E+00  0.47618412348E+00 -0.90635871743E+00  0.11306960596E+01  0.51100000000E-03 0. -1.
        -11    1    3    3    0    0 -0.71433801979E+00 -0.15165549508E+02 -0.88121903304E+00  0.15207916291E+02  0.51100000000E-03 0.  1.
        -12    1    3    3    0    0 -0.16296774142E+02 -0.19350567264E+02 -0.18681249522E+02  0.31448662684E+02  0.00000000000E+00 0.  1.
</event>
<event>
 7    1  0.5317846E-010  0.4778727E+02  0.7816164E-02  0.1312668E+00
        -11   -1    0    0    0    0  0.00000000000E+00  0.00000000000E+00  0.45593999997E+02  0.45594000000E+02  0.51100000000E-03 0.  1.
         11   -1    0    0    0    0 -0.00000000000E+00 -0.00000000000E+00 -0.45593999997E+02  0.45594000000E+02  0.51100000000E-03 0. -1.
    9900012    2    1    2    0    0 -0.33979337875E+02 -0.15582683891E+02  0.22050121170E+02  0.47787270936E+02  0.19999999506E+02 0.  0.
         12    1    1    2    0    0  0.33979337875E+02  0.15582683891E+02 -0.22050121170E+02  0.43400729064E+02  0.00000000000E+00 0. -1.
         11    1    3    3    0    0 -0.20167837192E+01  0.28428963284E+01 -0.74902221213E+00  0.35651803095E+01  0.51100000000E-03 0. -1.
        -11    1    3    3    0    0 -0.11892575999E+02 -0.11645361859E+02  0.87730332200E+01  0.18815257874E+02  0.51100000000E-03 0.  1.
         12    1    3    3    0    0 -0.20069978158E+02 -0.67802183597E+01  0.14026110162E+02  0.25406832753E+02  0.00000000000E+00 0. -1.
</event>
<event>
 7    1  0.5317846E-010  0.4778727E+02  0.7816164E-02  0.1312668E+00
        -11   -1    0    0    0    0  0.00000000000E+00  0.00000000000E+00  0.45593999997E+02  0.45594000000E+02  0.51100000000E-03 0.  1.
         11   -1    0    0    0    0 -0.00000000000E+00 -0.00000000000E+00 -0.45593999997E+02  0.45594000000E+02  0.51100000000E-03 0. -1.
    9900012    2    1    2    0    0 -0.24825422283E+02 -0.34894395176E+02  0.70500297263E+01  0.47787270451E+02  0.19999997294E+02 0.  0.
         12    1    1    2    0    0  0.24825422283E+02  0.34894395176E+02 -0.70500297263E+01  0.43400729549E+02  0.00000000000E+00 0. -1.
         11    1    3    3    0    0 -0.24950272197E+01 -0.34132098266E+00 -0.26381239014E+00  0.25320462236E+01  0.51100000000E-03 0. -1.
        -11    1    3    3    0    0 -0.25140311941E+02 -0.31977912487E+02  0.55447051468E+01  0.41053208485E+02  0.51100000000E-03 0.  1.
        -12    1    3    3    0    0  0.28099168782E+01 -0.25751617069E+01  0.17691369696E+01  0.42020157420E+01  0.00000000000E+00 0.  1.
</event>
<event>
 7    1  0.5317846E-010  0.4778727E+02  0.7816164E-02  0.1312668E+00
        -11   -1    0    0    0    0  0.00000000000E+00  0.00000000000E+00  0.45593999997E+02  0.45594000000E+02  0.51100000000E-03 0. -1.
         11   -1    0    0    0    0 -0.00000000000E+00 -0.00000000000E+00 -0.45593999997E+02  0.45594000000E+02  0.51100000000E-03 0.  1.
    9900012    2    1    2    0    0 -0.46936758303E+01 -0.39639297966E+02  0.17038742413E+02  0.47787270985E+02  0.19999999727E+02 0.  0.
         12    1    1    2    0    0  0.46936758303E+01  0.39639297966E+02 -0.17038742413E+02  0.43400729015E+02  0.00000000000E+00 0. -1.
         11    1    3    3    0    0 -0.25632829705E+01  0.11641381032E+01  0.71765028991E+00  0.29052812790E+01  0.51100000000E-03 0. -1.
        -11    1    3    3    0    0  0.34698284521E+01 -0.13924377249E+02  0.53552770111E+01  0.15316885564E+02  0.51100000000E-03 0.  1.
         12    1    3    3    0    0 -0.56002213118E+01 -0.26879058821E+02  0.10965815112E+02  0.29565104141E+02  0.00000000000E+00 0. -1.
</event>
<event>
 7    1  0.5317846E-010  0.4778727E+02  0.7816164E-02  0.1312668E+00
        -11   -1    0    0    0    0  0.00000000000E+00  0.00000000000E+00  0.45593999997E+02  0.45594000000E+02  0.51100000000E-03 0. -1.
         11   -1    0    0    0    0 -0.00000000000E+00 -0.00000000000E+00 -0.45593999997E+02  0.45594000000E+02  0.51100000000E-03 0.  1.
    9900012    2    1    2    0    0  0.75958804839E+01  0.62864122587E+01 -0.42265906005E+02  0.47787272012E+02  0.20000004413E+02 0.  0.
         12    1    1    2    0    0 -0.75958804839E+01 -0.62864122587E+01  0.42265906005E+02  0.43400727988E+02  0.00000000000E+00 0. -1.
         11    1    3    3    0    0 -0.22924633034E+01  0.42024328723E+01 -0.20644094238E+02  0.21191848839E+02  0.51100000000E-03 0. -1.
        -11    1    3    3    0    0  0.75914670402E+01  0.53197137589E+01 -0.74916321584E+01  0.11918652565E+02  0.51100000000E-03 0.  1.
        -12    1    3    3    0    0  0.22968767471E+01 -0.32357343725E+01 -0.14130179608E+02  0.14676770608E+02  0.00000000000E+00 0.  1.
</event>
<event>
 7    1  0.5317846E-010  0.4778727E+02  0.7816164E-02  0.1312668E+00
        -11   -1    0    0    0    0  0.00000000000E+00  0.00000000000E+00  0.45593999997E+02  0.45594000000E+02  0.51100000000E-03 0.  1.
         11   -1    0    0    0    0 -0.00000000000E+00 -0.00000000000E+00 -0.45593999997E+02  0.45594000000E+02  0.51100000000E-03 0. -1.
    9900012    2    1    2    0    0  0.23280844239E+02  0.18945575378E+01  0.36579183843E+02  0.47787265590E+02  0.19999975129E+02 0.  0.
         12    1    1    2    0    0 -0.23280844239E+02 -0.18945575378E+01 -0.36579183843E+02  0.43400734410E+02  0.00000000000E+00 0. -1.
         11    1    3    3    0    0  0.85844390797E+01  0.90445184307E+01  0.15481690744E+02  0.19879100999E+02  0.51100000000E-03 0. -1.
        -11    1    3    3    0    0  0.42248852606E+01 -0.58522717969E+01  0.11862984301E+02  0.13886293149E+02  0.51100000000E-03 0.  1.
         12    1    3    3    0    0  0.10471519899E+02 -0.12976890959E+01  0.92345087982E+01  0.14021871442E+02  0.00000000000E+00 0. -1.
</event>
<event>
 7    1  0.5317846E-010  0.4778727E+02  0.7816164E-02  0.1312668E+00
        -11   -1    0    0    0    0  0.00000000000E+00  0.00000000000E+00  0.45593999997E+02  0.45594000000E+02  0.51100000000E-03 0.  1.
         11   -1    0    0    0    0 -0.00000000000E+00 -0.00000000000E+00 -0.45593999997E+02  0.45594000000E+02  0.51100000000E-03 0. -1.
    9900012    2    1    2    0    0  0.21279809515E+02 -0.19343674217E+02  0.32505621032E+02  0.47787269316E+02  0.19999992120E+02 0.  0.
         12    1    1    2    0    0 -0.21279809515E+02  0.19343674217E+02 -0.32505621032E+02  0.43400730684E+02  0.00000000000E+00 0. -1.
         11    1    3    3    0    0 -0.21706532914E+01  0.61146805347E+00  0.18079425192E+01  0.28903780558E+01  0.51100000000E-03 0. -1.
        -11    1    3    3    0    0  0.18068620665E+02 -0.87225328987E+01  0.16230566756E+02  0.25806761330E+02  0.51100000000E-03 0.  1.
        -12    1    3    3    0    0  0.53818421413E+01 -0.11232609372E+02  0.14467111757E+02  0.19090129930E+02  0.00000000000E+00 0.  1.
</event>
<event>
 7    1  0.5317846E-010  0.4778727E+02  0.7816164E-02  0.1312668E+00
        -11   -1    0    0    0    0  0.00000000000E+00  0.00000000000E+00  0.45593999997E+02  0.45594000000E+02  0.51100000000E-03 0.  1.
         11   -1    0    0    0    0 -0.00000000000E+00 -0.00000000000E+00 -0.45593999997E+02  0.45594000000E+02  0.51100000000E-03 0. -1.
    9900012    2    1    2    0    0  0.30681164038E+02  0.77768926760E+01  0.29695276197E+02  0.47787270572E+02  0.19999997848E+02 0.  0.
         12    1    1    2    0    0 -0.30681164038E+02 -0.77768926760E+01 -0.29695276197E+02  0.43400729428E+02  0.00000000000E+00 0. -1.
         11    1    3    3    0    0  0.30471853946E+02  0.16562976882E+01  0.24173137807E+02  0.38930936241E+02  0.51100000000E-03 0. -1.
        -11    1    3    3    0    0  0.12659431110E+01  0.52234234546E+01  0.50952005441E+01  0.74059323108E+01  0.51100000000E-03 0.  1.
         12    1    3    3    0    0 -0.10566330188E+01  0.89717153318E+00  0.42693784612E+00  0.14504020204E+01  0.00000000000E+00 0. -1.
</event>
<event>
 7    1  0.5317846E-010  0.4778727E+02  0.7816164E-02  0.1312668E+00
        -11   -1    0    0    0    0  0.00000000000E+00  0.00000000000E+00  0.45593999997E+02  0.45594000000E+02  0.51100000000E-03 0. -1.
         11   -1    0    0    0    0 -0.00000000000E+00 -0.00000000000E+00 -0.45593999997E+02  0.45594000000E+02  0.51100000000E-03 0.  1.
    9900012    2    1    2    0    0  0.16610604904E+02 -0.82351994526E+01 -0.39241465919E+02  0.47787270136E+02  0.19999995858E+02 0.  0.
         12    1    1    2    0    0 -0.16610604904E+02  0.82351994526E+01  0.39241465919E+02  0.43400729864E+02  0.00000000000E+00 0. -1.
         11    1    3    3    0    0 -0.26998124714E+01 -0.53866568915E+01 -0.70585543727E+01  0.92805306928E+01  0.51100000000E-03 0. -1.
        -11    1    3    3    0    0  0.12069496490E+02 -0.54775575220E+01 -0.17824506168E+02  0.22212370480E+02  0.51100000000E-03 0.  1.
         12    1    3    3    0    0  0.72409208852E+01  0.26290149609E+01 -0.14358405377E+02  0.16294368963E+02  0.00000000000E+00 0. -1.
</event>
<event>
 7    1  0.5317846E-010  0.4778727E+02  0.7816164E-02  0.1312668E+00
        -11   -1    0    0    0    0  0.00000000000E+00  0.00000000000E+00  0.45593999997E+02  0.45594000000E+02  0.51100000000E-03 0. -1.
         11   -1    0    0    0    0 -0.00000000000E+00 -0.00000000000E+00 -0.45593999997E+02  0.45594000000E+02  0.51100000000E-03 0.  1.
    9900012    2    1    2    0    0 -0.30755080330E+02 -0.16349478159E+02 -0.25892911722E+02  0.47787270978E+02  0.19999999697E+02 0.  0.
         12    1    1    2    0    0  0.30755080330E+02  0.16349478159E+02  0.25892911722E+02  0.43400729022E+02  0.00000000000E+00 0. -1.
         11    1    3    3    0    0 -0.34544560416E+01 -0.64454121727E+01  0.38364817618E+00  0.73228266949E+01  0.51100000000E-03 0. -1.
        -11    1    3    3    0    0 -0.10751130555E+02 -0.92429166912E+01 -0.11213450119E+02  0.18076498029E+02  0.51100000000E-03 0.  1.
         12    1    3    3    0    0 -0.16549493733E+02 -0.66114929483E+00 -0.15063109780E+02  0.22387946254E+02  0.00000000000E+00 0. -1.
</event>
<event>
 7    1  0.5317846E-010  0.4778729E+02  0.7816164E-02  0.1312668E+00
        -11   -1    0    0    0    0  0.00000000000E+00  0.00000000000E+00  0.45593999997E+02  0.45594000000E+02  0.51100000000E-03 0. -1.
         11   -1    0    0    0    0 -0.00000000000E+00 -0.00000000000E+00 -0.45593999997E+02  0.45594000000E+02  0.51100000000E-03 0.  1.
    9900012    2    1    2    0    0 -0.38131682451E+02 -0.15189826808E+02 -0.14101985729E+02  0.47787285184E+02  0.20000064470E+02 0.  0.
         12    1    1    2    0    0  0.38131682451E+02  0.15189826808E+02  0.14101985729E+02  0.43400714816E+02  0.00000000000E+00 0. -1.
         11    1    3    3    0    0 -0.30137314768E+01 -0.77495385677E+01  0.15310342273E+01  0.84547023302E+01  0.51100000000E-03 0. -1.
        -11    1    3    3    0    0 -0.14872985901E+02 -0.38253863123E+01 -0.85813893751E+01  0.17592030409E+02  0.51100000000E-03 0.  1.
         12    1    3    3    0    0 -0.20244965074E+02 -0.36149019280E+01 -0.70516305814E+01  0.21740552445E+02  0.00000000000E+00 0. -1.
</event>
<event>
 7    1  0.5317846E-010  0.4778727E+02  0.7816164E-02  0.1312668E+00
        -11   -1    0    0    0    0  0.00000000000E+00  0.00000000000E+00  0.45593999997E+02  0.45594000000E+02  0.51100000000E-03 0. -1.
         11   -1    0    0    0    0 -0.00000000000E+00 -0.00000000000E+00 -0.45593999997E+02  0.45594000000E+02  0.51100000000E-03 0.  1.
    9900012    2    1    2    0    0  0.10713995773E+02 -0.25226804569E+02 -0.33651781715E+02  0.47787265135E+02  0.19999973057E+02 0.  0.
         12    1    1    2    0    0 -0.10713995773E+02  0.25226804569E+02  0.33651781715E+02  0.43400734865E+02  0.00000000000E+00 0. -1.
         11    1    3    3    0    0  0.18300359743E+00 -0.52582843143E+01 -0.84603982006E+01  0.99630006635E+01  0.51100000000E-03 0. -1.
        -11    1    3    3    0    0 -0.35588718211E+01 -0.48508891438E+01 -0.11563710628E+01  0.61264907101E+01  0.51100000000E-03 0.  1.
        -12    1    3    3    0    0  0.14089863997E+02 -0.15117631111E+02 -0.24035012452E+02  0.31697773761E+02  0.00000000000E+00 0.  1.
</event>
<event>
 7    1  0.5317846E-010  0.4778727E+02  0.7816164E-02  0.1312668E+00
        -11   -1    0    0    0    0  0.00000000000E+00  0.00000000000E+00  0.45593999997E+02  0.45594000000E+02  0.51100000000E-03 0.  1.
         11   -1    0    0    0    0 -0.00000000000E+00 -0.00000000000E+00 -0.45593999997E+02  0.45594000000E+02  0.51100000000E-03 0. -1.
    9900012    2    1    2    0    0  0.54959773399E+01  0.41981948474E+02  0.95359000430E+01  0.47787272423E+02  0.20000006286E+02 0.  0.
         12    1    1    2    0    0 -0.54959773399E+01 -0.41981948474E+02 -0.95359000430E+01  0.43400727577E+02  0.00000000000E+00 0. -1.
         11    1    3    3    0    0  0.46869549374E+01  0.69683364461E+01 -0.40724071922E+01  0.93332609527E+01  0.51100000000E-03 0. -1.
        -11    1    3    3    0    0 -0.13937081718E+01  0.27233835593E+02  0.13355773328E+02  0.30364467804E+02  0.51100000000E-03 0.  1.
        -12    1    3    3    0    0  0.22027305743E+01  0.77797764350E+01  0.25253390694E+00  0.80895436667E+01  0.00000000000E+00 0.  1.
</event>
<event>
 7    1  0.5317846E-010  0.4778727E+02  0.7816164E-02  0.1312668E+00
        -11   -1    0    0    0    0  0.00000000000E+00  0.00000000000E+00  0.45593999997E+02  0.45594000000E+02  0.51100000000E-03 0.  1.
         11   -1    0    0    0    0 -0.00000000000E+00 -0.00000000000E+00 -0.45593999997E+02  0.45594000000E+02  0.51100000000E-03 0. -1.
    9900012    2    1    2    0    0 -0.20519905387E+02  0.17923790676E+02  0.33783047506E+02  0.47787273185E+02  0.20000009759E+02 0.  0.
         12    1    1    2    0    0  0.20519905387E+02 -0.17923790676E+02 -0.33783047506E+02  0.43400726815E+02  0.00000000000E+00 0. -1.
         11    1    3    3    0    0 -0.17904904135E+02  0.91069415537E+01  0.13745032798E+02  0.24340252740E+02  0.51100000000E-03 0. -1.
        -11    1    3    3    0    0 -0.44351543926E+01  0.90170629610E+01  0.14722824926E+02  0.17825251555E+02  0.51100000000E-03 0.  1.
         12    1    3    3    0    0  0.18201531407E+01 -0.20021383848E+00  0.53151897820E+01  0.56217688903E+01  0.00000000000E+00 0. -1.
</event>
<event>
 7    1  0.5317846E-010  0.4778724E+02  0.7816164E-02  0.1312668E+00
        -11   -1    0    0    0    0  0.00000000000E+00  0.00000000000E+00  0.45593999997E+02  0.45594000000E+02  0.51100000000E-03 0.  1.
         11   -1    0    0    0    0 -0.00000000000E+00 -0.00000000000E+00 -0.45593999997E+02  0.45594000000E+02  0.51100000000E-03 0. -1.
    9900012    2    1    2    0    0 -0.13163416015E+02 -0.37946388250E+02  0.16444525401E+02  0.47787235974E+02  0.19999840098E+02 0.  0.
         12    1    1    2    0    0  0.13163416015E+02  0.37946388250E+02 -0.16444525401E+02  0.43400764026E+02  0.00000000000E+00 0. -1.
         11    1    3    3    0    0 -0.61581094264E+00 -0.76049745377E+01 -0.66046650329E-01  0.76301522434E+01  0.51100000000E-03 0. -1.
        -11    1    3    3    0    0 -0.15004152880E+02 -0.29974315865E+02  0.13216173746E+02  0.36031256764E+02  0.51100000000E-03 0.  1.
        -12    1    3    3    0    0  0.24565478078E+01 -0.36709784671E+00  0.32943983055E+01  0.41258269664E+01  0.00000000000E+00 0.  1.
</event>
<event>
 7    1  0.5317846E-010  0.4778727E+02  0.7816164E-02  0.1312668E+00
        -11   -1    0    0    0    0  0.00000000000E+00  0.00000000000E+00  0.45593999997E+02  0.45594000000E+02  0.51100000000E-03 0. -1.
         11   -1    0    0    0    0 -0.00000000000E+00 -0.00000000000E+00 -0.45593999997E+02  0.45594000000E+02  0.51100000000E-03 0.  1.
    9900012    2    1    2    0    0  0.18200256591E+02 -0.28369291103E+02 -0.27341499821E+02  0.47787266940E+02  0.19999981287E+02 0.  0.
         12    1    1    2    0    0 -0.18200256591E+02  0.28369291103E+02  0.27341499821E+02  0.43400733060E+02  0.00000000000E+00 0. -1.
         11    1    3    3    0    0  0.64605709932E+00 -0.13705631449E+02 -0.39668125951E+01  0.14282763235E+02  0.51100000000E-03 0. -1.
        -11    1    3    3    0    0  0.11601855765E+02 -0.51051389091E+01 -0.13631435907E+02  0.18614014763E+02  0.51100000000E-03 0.  1.
         12    1    3    3    0    0  0.59523437266E+01 -0.95585207450E+01 -0.97432513195E+01  0.14890488943E+02  0.00000000000E+00 0. -1.
</event>
<event>
 7    1  0.5317846E-010  0.4778727E+02  0.7816164E-02  0.1312668E+00
        -11   -1    0    0    0    0  0.00000000000E+00  0.00000000000E+00  0.45593999997E+02  0.45594000000E+02  0.51100000000E-03 0. -1.
         11   -1    0    0    0    0 -0.00000000000E+00 -0.00000000000E+00 -0.45593999997E+02  0.45594000000E+02  0.51100000000E-03 0.  1.
    9900012    2    1    2    0    0  0.20178069053E+02 -0.13255028660E+02 -0.36066232518E+02  0.47787269781E+02  0.19999994240E+02 0.  0.
         12    1    1    2    0    0 -0.20178069053E+02  0.13255028660E+02  0.36066232518E+02  0.43400730219E+02  0.00000000000E+00 0. -1.
         11    1    3    3    0    0  0.88871639668E+01 -0.11871335838E+00 -0.22686148102E+02  0.24365079360E+02  0.51100000000E-03 0. -1.
        -11    1    3    3    0    0 -0.18442920525E+00 -0.20352438767E+01 -0.49760228570E+01  0.53793155237E+01  0.51100000000E-03 0.  1.
         12    1    3    3    0    0  0.11475334292E+02 -0.11101071425E+02 -0.84040615587E+01  0.18042874898E+02  0.00000000000E+00 0. -1.
</event>
<event>
 7    1  0.5317846E-010  0.4778727E+02  0.7816164E-02  0.1312668E+00
        -11   -1    0    0    0    0  0.00000000000E+00  0.00000000000E+00  0.45593999997E+02  0.45594000000E+02  0.51100000000E-03 0.  1.
         11   -1    0    0    0    0 -0.00000000000E+00 -0.00000000000E+00 -0.45593999997E+02  0.45594000000E+02  0.51100000000E-03 0. -1.
    9900012    2    1    2    0    0 -0.79370287162E+01 -0.14188081496E+02  0.40240841741E+02  0.47787269299E+02  0.19999992041E+02 0.  0.
         12    1    1    2    0    0  0.79370287162E+01  0.14188081496E+02 -0.40240841741E+02  0.43400730701E+02  0.00000000000E+00 0. -1.
         11    1    3    3    0    0 -0.84998354734E-01 -0.12020684444E+02  0.14569226034E+02  0.18888261612E+02  0.51100000000E-03 0. -1.
        -11    1    3    3    0    0 -0.10399974957E+02 -0.19367395356E+01  0.22146199205E+02  0.24543116726E+02  0.51100000000E-03 0.  1.
        -12    1    3    3    0    0  0.25479445956E+01 -0.23065751575E+00  0.35254165019E+01  0.43558909609E+01  0.00000000000E+00 0.  1.
</event>
<event>
 7    1  0.5317846E-010  0.4778727E+02  0.7816164E-02  0.1312668E+00
        -11   -1    0    0    0    0  0.00000000000E+00  0.00000000000E+00  0.45593999997E+02  0.45594000000E+02  0.51100000000E-03 0.  1.
         11   -1    0    0    0    0 -0.00000000000E+00 -0.00000000000E+00 -0.45593999997E+02  0.45594000000E+02  0.51100000000E-03 0. -1.
    9900012    2    1    2    0    0 -0.14805195334E+02 -0.78362404070E+01  0.40037766376E+02  0.47787271792E+02  0.20000003408E+02 0.  0.
         12    1    1    2    0    0  0.14805195334E+02  0.78362404070E+01 -0.40037766376E+02  0.43400728208E+02  0.00000000000E+00 0. -1.
         11    1    3    3    0    0  0.26190454746E+01 -0.97861774510E+00  0.12042896696E+02  0.12363189434E+02  0.51100000000E-03 0. -1.
        -11    1    3    3    0    0 -0.10326452591E+02 -0.31512447725E+01  0.67812280753E+01  0.12749549843E+02  0.51100000000E-03 0.  1.
        -12    1    3    3    0    0 -0.70977882182E+01 -0.37063778894E+01  0.21213641605E+02  0.22674532515E+02  0.00000000000E+00 0.  1.
</event>
<event>
 7    1  0.5317846E-010  0.4778729E+02  0.7816164E-02  0.1312668E+00
        -11   -1    0    0    0    0  0.00000000000E+00  0.00000000000E+00  0.45593999997E+02  0.45594000000E+02  0.51100000000E-03 0. -1.
         11   -1    0    0    0    0 -0.00000000000E+00 -0.00000000000E+00 -0.45593999997E+02  0.45594000000E+02  0.51100000000E-03 0.  1.
    9900012    2    1    2    0    0 -0.21960376513E+02 -0.37116113777E+02 -0.48741571378E+01  0.47787292099E+02  0.20000095996E+02 0.  0.
         12    1    1    2    0    0  0.21960376513E+02  0.37116113777E+02  0.48741571378E+01  0.43400707901E+02  0.00000000000E+00 0. -1.
         11    1    3    3    0    0  0.55263024855E+00 -0.14598032259E+02  0.24256278891E+01  0.14808498132E+02  0.51100000000E-03 0. -1.
        -11    1    3    3    0    0 -0.21258358879E+02 -0.21748975370E+02 -0.59654170008E+01  0.30992288591E+02  0.51100000000E-03 0.  1.
         12    1    3    3    0    0 -0.12546478822E+01 -0.76910614855E+00 -0.13343680261E+01  0.19865053751E+01  0.00000000000E+00 0. -1.
</event>
<event>
 7    1  0.5317846E-010  0.4778726E+02  0.7816164E-02  0.1312668E+00
        -11   -1    0    0    0    0  0.00000000000E+00  0.00000000000E+00  0.45593999997E+02  0.45594000000E+02  0.51100000000E-03 0.  1.
         11   -1    0    0    0    0 -0.00000000000E+00 -0.00000000000E+00 -0.45593999997E+02  0.45594000000E+02  0.51100000000E-03 0. -1.
    9900012    2    1    2    0    0 -0.16428997303E+01 -0.37839390628E+02  0.21192108879E+02  0.47787261742E+02  0.19999957587E+02 0.  0.
         12    1    1    2    0    0  0.16428997303E+01  0.37839390628E+02 -0.21192108879E+02  0.43400738258E+02  0.00000000000E+00 0. -1.
         11    1    3    3    0    0  0.32011990260E+01 -0.17276815552E+02  0.17775924707E+02  0.24994389976E+02  0.51100000000E-03 0. -1.
        -11    1    3    3    0    0 -0.28310949104E+01 -0.17465553320E+01  0.18461793836E+01  0.38044621824E+01  0.51100000000E-03 0.  1.
         12    1    3    3    0    0 -0.20130038460E+01 -0.18816019744E+02  0.15700047881E+01  0.18988409584E+02  0.00000000000E+00 0. -1.
</event>
<event>
 7    1  0.5317846E-010  0.4778727E+02  0.7816164E-02  0.1312668E+00
        -11   -1    0    0    0    0  0.00000000000E+00  0.00000000000E+00  0.45593999997E+02  0.45594000000E+02  0.51100000000E-03 0. -1.
         11   -1    0    0    0    0 -0.00000000000E+00 -0.00000000000E+00 -0.45593999997E+02  0.45594000000E+02  0.51100000000E-03 0.  1.
    9900012    2    1    2    0    0 -0.42300221661E+02 -0.84346480042E+01 -0.48136474043E+01  0.47787271425E+02  0.20000001735E+02 0.  0.
         12    1    1    2    0    0  0.42300221661E+02  0.84346480042E+01  0.48136474043E+01  0.43400728575E+02  0.00000000000E+00 0. -1.
         11    1    3    3    0    0 -0.12906656983E+02  0.62367122604E+01 -0.30376159711E+01  0.14652831990E+02  0.51100000000E-03 0. -1.
        -11    1    3    3    0    0 -0.16403040715E+02 -0.95701709190E+01 -0.25265460248E+01  0.19158062302E+02  0.51100000000E-03 0.  1.
         12    1    3    3    0    0 -0.12990523964E+02 -0.51011893456E+01  0.75051459153E+00  0.13976377132E+02  0.00000000000E+00 0. -1.
</event>
<event>
 7    1  0.5317846E-010  0.4778726E+02  0.7816164E-02  0.1312668E+00
        -11   -1    0    0    0    0  0.00000000000E+00  0.00000000000E+00  0.45593999997E+02  0.45594000000E+02  0.51100000000E-03 0. -1.
         11   -1    0    0    0    0 -0.00000000000E+00 -0.00000000000E+00 -0.45593999997E+02  0.45594000000E+02  0.51100000000E-03 0.  1.
    9900012    2    1    2    0    0 -0.43272543983E+02 -0.29996506290E+01  0.14535991589E+01  0.47787263634E+02  0.19999966211E+02 0.  0.
         12    1    1    2    0    0  0.43272543983E+02  0.29996506290E+01 -0.14535991589E+01  0.43400736366E+02  0.00000000000E+00 0. -1.
         11    1    3    3    0    0 -0.10003972034E+01  0.34019450274E+01 -0.25051917155E+01  0.43416598585E+01  0.51100000000E-03 0. -1.
        -11    1    3    3    0    0 -0.32408486520E+02 -0.25006661598E+01  0.45519763286E+01  0.32822002049E+02  0.51100000000E-03 0.  1.
         12    1    3    3    0    0 -0.98636602592E+01 -0.39009294965E+01 -0.59318545420E+00  0.10623601726E+02  0.00000000000E+00 0. -1.
</event>
<event>
 7    1  0.5317846E-010  0.4778727E+02  0.7816164E-02  0.1312668E+00
        -11   -1    0    0    0    0  0.00000000000E+00  0.00000000000E+00  0.45593999997E+02  0.45594000000E+02  0.51100000000E-03 0.  1.
         11   -1    0    0    0    0 -0.00000000000E+00 -0.00000000000E+00 -0.45593999997E+02  0.45594000000E+02  0.51100000000E-03 0. -1.
    9900012    2    1    2    0    0 -0.54771570209E+01 -0.16376481585E+02  0.39817519103E+02  0.47787271600E+02  0.20000002534E+02 0.  0.
         12    1    1    2    0    0  0.54771570209E+01  0.16376481585E+02 -0.39817519103E+02  0.43400728400E+02  0.00000000000E+00 0. -1.
         11    1    3    3    0    0 -0.17966915888E+01  0.21713501732E+01  0.15507419830E+01  0.32167783882E+01  0.51100000000E-03 0. -1.
        -11    1    3    3    0    0 -0.53894114911E+01 -0.19412022395E+02  0.37372930229E+02  0.42457134664E+02  0.51100000000E-03 0.  1.
        -12    1    3    3    0    0  0.17089460590E+01  0.86419063698E+00  0.89384689082E+00  0.21133585484E+01  0.00000000000E+00 0.  1.
</event>
<event>
 7    1  0.5317846E-010  0.4778727E+02  0.7816164E-02  0.1312668E+00
        -11   -1    0    0    0    0  0.00000000000E+00  0.00000000000E+00  0.45593999997E+02  0.45594000000E+02  0.51100000000E-03 0.  1.
         11   -1    0    0    0    0 -0.00000000000E+00 -0.00000000000E+00 -0.45593999997E+02  0.45594000000E+02  0.51100000000E-03 0. -1.
    9900012    2    1    2    0    0 -0.90493193153E+01 -0.21687556725E+02  0.36488122217E+02  0.47787270056E+02  0.19999995493E+02 0.  0.
         12    1    1    2    0    0  0.90493193153E+01  0.21687556725E+02 -0.36488122217E+02  0.43400729944E+02  0.00000000000E+00 0. -1.
         11    1    3    3    0    0 -0.50352117905E+00 -0.46100325878E+01  0.11660864022E+01  0.47818084233E+01  0.51100000000E-03 0. -1.
        -11    1    3    3    0    0  0.12748367296E+01 -0.11266732177E+02  0.95660182953E+01  0.14834863293E+02  0.51100000000E-03 0.  1.
        -12    1    3    3    0    0 -0.98206348659E+01 -0.58107919604E+01  0.25756017519E+02  0.28170598340E+02  0.00000000000E+00 0.  1.
</event>
<event>
 7    1  0.5317846E-010  0.4778727E+02  0.7816164E-02  0.1312668E+00
        -11   -1    0    0    0    0  0.00000000000E+00  0.00000000000E+00  0.45593999997E+02  0.45594000000E+02  0.51100000000E-03 0. -1.
         11   -1    0    0    0    0 -0.00000000000E+00 -0.00000000000E+00 -0.45593999997E+02  0.45594000000E+02  0.51100000000E-03 0.  1.
    9900012    2    1    2    0    0 -0.38128717643E+02 -0.18622781561E+02  0.91113098629E+01  0.47787273398E+02  0.20000010732E+02 0.  0.
         12    1    1    2    0    0  0.38128717643E+02  0.18622781561E+02 -0.91113098629E+01  0.43400726602E+02  0.00000000000E+00 0. -1.
         11    1    3    3    0    0 -0.18658260915E+02 -0.44745020055E+01  0.10433779821E+02  0.21840687493E+02  0.51100000000E-03 0. -1.
        -11    1    3    3    0    0 -0.40560418967E+01 -0.80917612669E+01 -0.23553236855E+01  0.93528405414E+01  0.51100000000E-03 0.  1.
         12    1    3    3    0    0 -0.15414414831E+02 -0.60565182887E+01  0.10328537273E+01  0.16593745364E+02  0.00000000000E+00 0. -1.
</event>
<event>
 7    1  0.5317846E-010  0.4778725E+02  0.7816164E-02  0.1312668E+00
        -11   -1    0    0    0    0  0.00000000000E+00  0.00000000000E+00  0.45593999997E+02  0.45594000000E+02  0.51100000000E-03 0.  1.
         11   -1    0    0    0    0 -0.00000000000E+00 -0.00000000000E+00 -0.45593999997E+02  0.45594000000E+02  0.51100000000E-03 0. -1.
    9900012    2    1    2    0    0  0.19107118341E+02  0.12900272116E+02  0.36771261688E+02  0.47787254867E+02  0.19999926241E+02 0.  0.
         12    1    1    2    0    0 -0.19107118341E+02 -0.12900272116E+02 -0.36771261688E+02  0.43400745133E+02  0.00000000000E+00 0. -1.
         11    1    3    3    0    0  0.87803225710E+01  0.11468857495E+02  0.16847253194E+02  0.22191410436E+02  0.51100000000E-03 0. -1.
        -11    1    3    3    0    0  0.89539768026E+01 -0.44241219548E+01  0.11288996226E+02  0.15072756606E+02  0.51100000000E-03 0.  1.
        -12    1    3    3    0    0  0.13728189672E+01  0.58555365766E+01  0.86350122675E+01  0.10523087825E+02  0.00000000000E+00 0.  1.
</event>
<event>
 7    1  0.6865552E-010  0.4778728E+02  0.7816164E-02  0.1312668E+00
        -11   -1    0    0    0    0  0.00000000000E+00  0.00000000000E+00  0.45593999997E+02  0.45594000000E+02  0.51100000000E-03 0.  1.
         11   -1    0    0    0    0 -0.00000000000E+00 -0.00000000000E+00 -0.45593999997E+02  0.45594000000E+02  0.51100000000E-03 0. -1.
    9900012    2    1    2    0    0  0.57190445683E+01  0.38719437261E+02  0.18754211668E+02  0.47787277104E+02  0.20000027630E+02 0.  0.
         12    1    1    2    0    0 -0.57190445683E+01 -0.38719437261E+02 -0.18754211668E+02  0.43400722896E+02  0.00000000000E+00 0. -1.
         11    1    3    3    0    0 -0.26733719090E+01  0.21947847994E+02  0.47732598443E+01  0.22619437631E+02  0.51100000000E-03 0. -1.
        -11    1    3    3    0    0  0.46041823403E+00  0.11188506062E+02  0.68241144245E+01  0.13113473636E+02  0.51100000000E-03 0.  1.
         12    1    3    3    0    0  0.79319982432E+01  0.55830832052E+01  0.71568373987E+01  0.12054365838E+02  0.00000000000E+00 0. -1.
</event>
<event>
 7    1  0.5317846E-010  0.4778727E+02  0.7816164E-02  0.1312668E+00
        -11   -1    0    0    0    0  0.00000000000E+00  0.00000000000E+00  0.45593999997E+02  0.45594000000E+02  0.51100000000E-03 0.  1.
         11   -1    0    0    0    0 -0.00000000000E+00 -0.00000000000E+00 -0.45593999997E+02  0.45594000000E+02  0.51100000000E-03 0. -1.
    9900012    2    1    2    0    0  0.18018635094E+01  0.23479673549E+01  0.43299694655E+02  0.47787271665E+02  0.20000002827E+02 0.  0.
         12    1    1    2    0    0 -0.18018635094E+01 -0.23479673549E+01 -0.43299694655E+02  0.43400728335E+02  0.00000000000E+00 0. -1.
         11    1    3    3    0    0  0.32366281473E+01  0.79957865235E+01  0.30778896637E+02  0.31964806309E+02  0.51100000000E-03 0.  1.
        -11    1    3    3    0    0  0.23018448156E+00 -0.72307446619E+01  0.10569769032E+02  0.12808460911E+02  0.51100000000E-03 0. -1.
         12    1    3    3    0    0 -0.16649491194E+01  0.15829254933E+01  0.19510289858E+01  0.30140044444E+01  0.00000000000E+00 0. -1.
</event>
<event>
 7    1  0.5317846E-010  0.4778727E+02  0.7816164E-02  0.1312668E+00
        -11   -1    0    0    0    0  0.00000000000E+00  0.00000000000E+00  0.45593999997E+02  0.45594000000E+02  0.51100000000E-03 0. -1.
         11   -1    0    0    0    0 -0.00000000000E+00 -0.00000000000E+00 -0.45593999997E+02  0.45594000000E+02  0.51100000000E-03 0.  1.
    9900012    2    1    2    0    0  0.73470829438E+01 -0.33421388813E+02 -0.26695591604E+02  0.47787268795E+02  0.19999989746E+02 0.  0.
         12    1    1    2    0    0 -0.73470829438E+01  0.33421388813E+02  0.26695591604E+02  0.43400731205E+02  0.00000000000E+00 0. -1.
         11    1    3    3    0    0  0.14369314387E+01 -0.22188155317E+01  0.12976980509E+01  0.29448149035E+01  0.51100000000E-03 0. -1.
        -11    1    3    3    0    0 -0.44666822719E+00 -0.27178526665E+02 -0.24304245732E+02  0.36463244302E+02  0.51100000000E-03 0.  1.
        -12    1    3    3    0    0  0.63568197323E+01 -0.40240466166E+01 -0.36890439232E+01  0.83792095897E+01  0.00000000000E+00 0.  1.
</event>
<event>
 7    1  0.5317846E-010  0.4778727E+02  0.7816164E-02  0.1312668E+00
        -11   -1    0    0    0    0  0.00000000000E+00  0.00000000000E+00  0.45593999997E+02  0.45594000000E+02  0.51100000000E-03 0.  1.
         11   -1    0    0    0    0 -0.00000000000E+00 -0.00000000000E+00 -0.45593999997E+02  0.45594000000E+02  0.51100000000E-03 0. -1.
    9900012    2    1    2    0    0  0.42713408852E+02 -0.43471537170E+01  0.63474645351E+01  0.47787270200E+02  0.19999996149E+02 0.  0.
         12    1    1    2    0    0 -0.42713408852E+02  0.43471537170E+01 -0.63474645351E+01  0.43400729800E+02  0.00000000000E+00 0. -1.
         11    1    3    3    0    0  0.25996222386E+02 -0.17910243702E+00 -0.24845417611E+01  0.26115294447E+02  0.51100000000E-03 0. -1.
        -11    1    3    3    0    0  0.65948144246E+01  0.29025629967E+01  0.49005044038E+01  0.87138621126E+01  0.51100000000E-03 0.  1.
         12    1    3    3    0    0  0.10122372041E+02 -0.70706142767E+01  0.39315018925E+01  0.12958113640E+02  0.00000000000E+00 0. -1.
</event>
<event>
 7    1  0.5317846E-010  0.4778727E+02  0.7816164E-02  0.1312668E+00
        -11   -1    0    0    0    0  0.00000000000E+00  0.00000000000E+00  0.45593999997E+02  0.45594000000E+02  0.51100000000E-03 0.  1.
         11   -1    0    0    0    0 -0.00000000000E+00 -0.00000000000E+00 -0.45593999997E+02  0.45594000000E+02  0.51100000000E-03 0. -1.
    9900012    2    1    2    0    0 -0.24124801815E+02 -0.32605179051E+02 -0.15444090971E+02  0.47787266026E+02  0.19999977121E+02 0.  0.
         12    1    1    2    0    0  0.24124801815E+02  0.32605179051E+02  0.15444090971E+02  0.43400733974E+02  0.00000000000E+00 0. -1.
         11    1    3    3    0    0 -0.17798156958E+02 -0.94739743910E+01 -0.66346930344E+01  0.21226156830E+02  0.51100000000E-03 0. -1.
        -11    1    3    3    0    0 -0.10181953773E+00 -0.14010845404E+02 -0.46823995049E+01  0.14772915134E+02  0.51100000000E-03 0.  1.
        -12    1    3    3    0    0 -0.62248253192E+01 -0.91203592557E+01 -0.41269984314E+01  0.11788194063E+02  0.00000000000E+00 0.  1.
</event>
<event>
 7    1  0.5317846E-010  0.4778726E+02  0.7816164E-02  0.1312668E+00
        -11   -1    0    0    0    0  0.00000000000E+00  0.00000000000E+00  0.45593999997E+02  0.45594000000E+02  0.51100000000E-03 0. -1.
         11   -1    0    0    0    0 -0.00000000000E+00 -0.00000000000E+00 -0.45593999997E+02  0.45594000000E+02  0.51100000000E-03 0.  1.
    9900012    2    1    2    0    0 -0.34297750507E+02  0.15066960002E+02 -0.21915182958E+02  0.47787260172E+02  0.19999950429E+02 0.  0.
         12    1    1    2    0    0  0.34297750507E+02 -0.15066960002E+02  0.21915182958E+02  0.43400739828E+02  0.00000000000E+00 0. -1.
         11    1    3    3    0    0 -0.36154231189E+01 -0.40123660003E+00 -0.60883130625E+00  0.36882178567E+01  0.51100000000E-03 0. -1.
        -11    1    3    3    0    0 -0.18672180122E+02  0.94476045890E+01 -0.26274982965E+01  0.21090549792E+02  0.51100000000E-03 0.  1.
        -12    1    3    3    0    0 -0.12010147266E+02  0.60205920125E+01 -0.18678853355E+02  0.23008492523E+02  0.00000000000E+00 0.  1.
</event>
<event>
 7    1  0.5317846E-010  0.4778726E+02  0.7816164E-02  0.1312668E+00
        -11   -1    0    0    0    0  0.00000000000E+00  0.00000000000E+00  0.45593999997E+02  0.45594000000E+02  0.51100000000E-03 0. -1.
         11   -1    0    0    0    0 -0.00000000000E+00 -0.00000000000E+00 -0.45593999997E+02  0.45594000000E+02  0.51100000000E-03 0.  1.
    9900012    2    1    2    0    0  0.16625564816E+02  0.11282364788E+02 -0.38469764678E+02  0.47787263197E+02  0.19999964220E+02 0.  0.
         12    1    1    2    0    0 -0.16625564816E+02 -0.11282364788E+02  0.38469764678E+02  0.43400736803E+02  0.00000000000E+00 0. -1.
         11    1    3    3    0    0  0.81600715806E+01 -0.20289847632E+01 -0.46967291744E+01  0.96313453146E+01  0.51100000000E-03 0. -1.
        -11    1    3    3    0    0  0.59233416161E+01  0.71177694564E+01 -0.27361678121E+02  0.28886156681E+02  0.51100000000E-03 0.  1.
         12    1    3    3    0    0  0.25421516189E+01  0.61935800947E+01 -0.64113573825E+01  0.92697612013E+01  0.00000000000E+00 0. -1.
</event>
<event>
 7    1  0.5317846E-010  0.4778727E+02  0.7816164E-02  0.1312668E+00
        -11   -1    0    0    0    0  0.00000000000E+00  0.00000000000E+00  0.45593999997E+02  0.45594000000E+02  0.51100000000E-03 0. -1.
         11   -1    0    0    0    0 -0.00000000000E+00 -0.00000000000E+00 -0.45593999997E+02  0.45594000000E+02  0.51100000000E-03 0.  1.
    9900012    2    1    2    0    0  0.18302471116E+02  0.38454709717E+02  0.83593017029E+01  0.47787273355E+02  0.20000010535E+02 0.  0.
         12    1    1    2    0    0 -0.18302471116E+02 -0.38454709717E+02 -0.83593017029E+01  0.43400726645E+02  0.00000000000E+00 0. -1.
         11    1    3    3    0    0  0.43401756541E+01  0.25097470182E+02  0.66042212198E+01  0.26312276079E+02  0.51100000000E-03 0. -1.
        -11    1    3    3    0    0  0.12047574902E+02  0.14694079508E+02  0.20887985114E+01  0.19116043343E+02  0.51100000000E-03 0.  1.
         12    1    3    3    0    0  0.19147205592E+01 -0.13368399738E+01 -0.33371802826E+00  0.23589539330E+01  0.00000000000E+00 0. -1.
</event>
<event>
 7    1  0.5317846E-010  0.4778727E+02  0.7816164E-02  0.1312668E+00
        -11   -1    0    0    0    0  0.00000000000E+00  0.00000000000E+00  0.45593999997E+02  0.45594000000E+02  0.51100000000E-03 0.  1.
         11   -1    0    0    0    0 -0.00000000000E+00 -0.00000000000E+00 -0.45593999997E+02  0.45594000000E+02  0.51100000000E-03 0. -1.
    9900012    2    1    2    0    0  0.32607383750E+02 -0.13952467386E+02  0.25014202747E+02  0.47787272354E+02  0.20000005969E+02 0.  0.
         12    1    1    2    0    0 -0.32607383750E+02  0.13952467386E+02 -0.25014202747E+02  0.43400727646E+02  0.00000000000E+00 0. -1.
         11    1    3    3    0    0  0.24524825704E+02 -0.12344207199E+02  0.12111549943E+02  0.30008934827E+02  0.51100000000E-03 0. -1.
        -11    1    3    3    0    0  0.36382875410E+01 -0.53099865544E+01  0.71526442973E+01  0.96225471755E+01  0.51100000000E-03 0.  1.
         12    1    3    3    0    0  0.44442705053E+01  0.37017263674E+01  0.57500085065E+01  0.81557903509E+01  0.00000000000E+00 0. -1.
</event>
<event>
 7    1  0.5317846E-010  0.4778728E+02  0.7816164E-02  0.1312668E+00
        -11   -1    0    0    0    0  0.00000000000E+00  0.00000000000E+00  0.45593999997E+02  0.45594000000E+02  0.51100000000E-03 0. -1.
         11   -1    0    0    0    0 -0.00000000000E+00 -0.00000000000E+00 -0.45593999997E+02  0.45594000000E+02  0.51100000000E-03 0.  1.
    9900012    2    1    2    0    0  0.11847075805E+02  0.41133469475E+02 -0.71628919028E+01  0.47787279538E+02  0.20000038727E+02 0.  0.
         12    1    1    2    0    0 -0.11847075805E+02 -0.41133469475E+02  0.71628919028E+01  0.43400720462E+02  0.00000000000E+00 0. -1.
         11    1    3    3    0    0 -0.66499097782E-01  0.19857766216E+02  0.15674489242E+01  0.19919643511E+02  0.51100000000E-03 0. -1.
        -11    1    3    3    0    0 -0.15742549098E+00  0.86373779319E+01 -0.50533921280E+01  0.10008289194E+02  0.51100000000E-03 0.  1.
         12    1    3    3    0    0  0.12071000394E+02  0.12638325327E+02 -0.36769486990E+01  0.17859346833E+02  0.00000000000E+00 0. -1.
</event>
<event>
 7    1  0.5317846E-010  0.4778727E+02  0.7816164E-02  0.1312668E+00
        -11   -1    0    0    0    0  0.00000000000E+00  0.00000000000E+00  0.45593999997E+02  0.45594000000E+02  0.51100000000E-03 0.  1.
         11   -1    0    0    0    0 -0.00000000000E+00 -0.00000000000E+00 -0.45593999997E+02  0.45594000000E+02  0.51100000000E-03 0. -1.
    9900012    2    1    2    0    0 -0.16303934132E+02  0.27464769544E+02  0.29385227668E+02  0.47787269137E+02  0.19999991303E+02 0.  0.
         12    1    1    2    0    0  0.16303934132E+02 -0.27464769544E+02 -0.29385227668E+02  0.43400730863E+02  0.00000000000E+00 0. -1.
         11    1    3    3    0    0 -0.59436678085E+01  0.94075034739E+01  0.26504779449E+00  0.11130972968E+02  0.51100000000E-03 0. -1.
        -11    1    3    3    0    0 -0.72263316269E+01  0.17682883860E+02  0.24698436678E+02  0.31223661300E+02  0.51100000000E-03 0.  1.
         12    1    3    3    0    0 -0.31339346970E+01  0.37438221065E+00  0.44217431963E+01  0.54326348689E+01  0.00000000000E+00 0. -1.
</event>
<event>
 7    1  0.5317846E-010  0.4778727E+02  0.7816164E-02  0.1312668E+00
        -11   -1    0    0    0    0  0.00000000000E+00  0.00000000000E+00  0.45593999997E+02  0.45594000000E+02  0.51100000000E-03 0.  1.
         11   -1    0    0    0    0 -0.00000000000E+00 -0.00000000000E+00 -0.45593999997E+02  0.45594000000E+02  0.51100000000E-03 0. -1.
    9900012    2    1    2    0    0 -0.43204298649E+02  0.22380588169E+00  0.41184568177E+01  0.47787271926E+02  0.20000004020E+02 0.  0.
         12    1    1    2    0    0  0.43204298649E+02 -0.22380588169E+00 -0.41184568177E+01  0.43400728074E+02  0.00000000000E+00 0. -1.
         11    1    3    3    0    0 -0.60500494650E+01 -0.87937340460E+00 -0.19159437909E+00  0.61166252772E+01  0.51100000000E-03 0. -1.
        -11    1    3    3    0    0 -0.50143067270E+01 -0.18990265355E+01  0.75153818653E+01  0.92320387010E+01  0.51100000000E-03 0.  1.
        -12    1    3    3    0    0 -0.32139942457E+02  0.30022058218E+01 -0.32053306685E+01  0.32438607948E+02  0.00000000000E+00 0.  1.
</event>
<event>
 7    1  0.5317846E-010  0.4778727E+02  0.7816164E-02  0.1312668E+00
        -11   -1    0    0    0    0  0.00000000000E+00  0.00000000000E+00  0.45593999997E+02  0.45594000000E+02  0.51100000000E-03 0.  1.
         11   -1    0    0    0    0 -0.00000000000E+00 -0.00000000000E+00 -0.45593999997E+02  0.45594000000E+02  0.51100000000E-03 0. -1.
    9900012    2    1    2    0    0  0.23494789704E+02 -0.38505177387E+01  0.36287620592E+02  0.47787273758E+02  0.20000012374E+02 0.  0.
         12    1    1    2    0    0 -0.23494789704E+02  0.38505177387E+01 -0.36287620592E+02  0.43400726242E+02  0.00000000000E+00 0. -1.
         11    1    3    3    0    0  0.65826191080E+01 -0.61741781349E+00  0.21433587100E+02  0.22430130078E+02  0.51100000000E-03 0. -1.
        -11    1    3    3    0    0  0.16597049020E+02 -0.60840536283E+01  0.12982835519E+02  0.21932436324E+02  0.51100000000E-03 0.  1.
         12    1    3    3    0    0  0.31512157613E+00  0.28509537031E+01  0.18711979726E+01  0.34247073565E+01  0.00000000000E+00 0. -1.
</event>
<event>
 7    1  0.5317846E-010  0.4778727E+02  0.7816164E-02  0.1312668E+00
        -11   -1    0    0    0    0  0.00000000000E+00  0.00000000000E+00  0.45593999997E+02  0.45594000000E+02  0.51100000000E-03 0. -1.
         11   -1    0    0    0    0 -0.00000000000E+00 -0.00000000000E+00 -0.45593999997E+02  0.45594000000E+02  0.51100000000E-03 0.  1.
    9900012    2    1    2    0    0  0.17194879072E+02  0.37336904984E+02 -0.13925332916E+02  0.47787271471E+02  0.20000001943E+02 0.  0.
         12    1    1    2    0    0 -0.17194879072E+02 -0.37336904984E+02  0.13925332916E+02  0.43400728529E+02  0.00000000000E+00 0. -1.
         11    1    3    3    0    0  0.89086863041E+01  0.80942268038E+01  0.21477589172E+01  0.12226776674E+02  0.51100000000E-03 0. -1.
        -11    1    3    3    0    0  0.52139088167E+00  0.17768896078E+02 -0.10355227815E+02  0.20572706668E+02  0.51100000000E-03 0.  1.
        -12    1    3    3    0    0  0.77648018862E+01  0.11473782102E+02 -0.57178640175E+01  0.14987788128E+02  0.00000000000E+00 0.  1.
</event>
<event>
 7    1  0.5317846E-010  0.4778723E+02  0.7816164E-02  0.1312668E+00
        -11   -1    0    0    0    0  0.00000000000E+00  0.00000000000E+00  0.45593999997E+02  0.45594000000E+02  0.51100000000E-03 0.  1.
         11   -1    0    0    0    0 -0.00000000000E+00 -0.00000000000E+00 -0.45593999997E+02  0.45594000000E+02  0.51100000000E-03 0. -1.
    9900012    2    1    2    0    0  0.15155378512E+02 -0.11751392156E+02  0.38933869771E+02  0.47787228915E+02  0.19999807914E+02 0.  0.
         12    1    1    2    0    0 -0.15155378512E+02  0.11751392156E+02 -0.38933869771E+02  0.43400771085E+02  0.00000000000E+00 0. -1.
         11    1    3    3    0    0 -0.27507311417E+01 -0.14449489154E+01  0.13644088538E+01  0.33935248582E+01  0.51100000000E-03 0. -1.
        -11    1    3    3    0    0  0.16774676522E+02 -0.98296561363E+01  0.38309031774E+02  0.42960375090E+02  0.51100000000E-03 0.  1.
        -12    1    3    3    0    0  0.11314331316E+01 -0.47678710393E+00 -0.73957085676E+00  0.14333289664E+01  0.00000000000E+00 0.  1.
</event>
<event>
 7    1  0.5317846E-010  0.4778726E+02  0.7816164E-02  0.1312668E+00
        -11   -1    0    0    0    0  0.00000000000E+00  0.00000000000E+00  0.45593999997E+02  0.45594000000E+02  0.51100000000E-03 0.  1.
         11   -1    0    0    0    0 -0.00000000000E+00 -0.00000000000E+00 -0.45593999997E+02  0.45594000000E+02  0.51100000000E-03 0. -1.
    9900012    2    1    2    0    0 -0.10968880269E+01 -0.40748842702E+02  0.14898076253E+02  0.47787262438E+02  0.19999960760E+02 0.  0.
         12    1    1    2    0    0  0.10968880269E+01  0.40748842702E+02 -0.14898076253E+02  0.43400737562E+02  0.00000000000E+00 0. -1.
         11    1    3    3    0    0  0.29991841141E+01 -0.25501448532E+01 -0.27183526262E+01  0.47841180362E+01  0.51100000000E-03 0. -1.
        -11    1    3    3    0    0 -0.41248349138E+01 -0.27468601519E+02  0.16264764934E+02  0.32188210747E+02  0.51100000000E-03 0.  1.
         12    1    3    3    0    0  0.28762772779E-01 -0.10730096329E+02  0.13516639447E+01  0.10814933655E+02  0.00000000000E+00 0. -1.
</event>
<event>
 7    1  0.5317846E-010  0.4778726E+02  0.7816164E-02  0.1312668E+00
        -11   -1    0    0    0    0  0.00000000000E+00  0.00000000000E+00  0.45593999997E+02  0.45594000000E+02  0.51100000000E-03 0. -1.
         11   -1    0    0    0    0 -0.00000000000E+00 -0.00000000000E+00 -0.45593999997E+02  0.45594000000E+02  0.51100000000E-03 0.  1.
    9900012    2    1    2    0    0 -0.12969636919E+02 -0.47460916410E+01 -0.41144708143E+02  0.47787264109E+02  0.19999968379E+02 0.  0.
         12    1    1    2    0    0  0.12969636919E+02  0.47460916410E+01  0.41144708143E+02  0.43400735891E+02  0.00000000000E+00 0. -1.
         11    1    3    3    0    0  0.34489217383E+01 -0.14926091608E+01 -0.71388598624E+01  0.80676058196E+01  0.51100000000E-03 0. -1.
        -11    1    3    3    0    0 -0.17110565728E+02 -0.49311346582E+01 -0.26017269884E+02  0.31527541627E+02  0.51100000000E-03 0.  1.
        -12    1    3    3    0    0  0.69200707015E+00  0.16776521780E+01 -0.79885783966E+01  0.81921166626E+01  0.00000000000E+00 0.  1.
</event>
<event>
 7    1  0.5317846E-010  0.4778727E+02  0.7816164E-02  0.1312668E+00
        -11   -1    0    0    0    0  0.00000000000E+00  0.00000000000E+00  0.45593999997E+02  0.45594000000E+02  0.51100000000E-03 0.  1.
         11   -1    0    0    0    0 -0.00000000000E+00 -0.00000000000E+00 -0.45593999997E+02  0.45594000000E+02  0.51100000000E-03 0. -1.
    9900012    2    1    2    0    0  0.60297586041E+01 -0.39148354501E+02  0.17738985808E+02  0.47787271130E+02  0.20000000388E+02 0.  0.
         12    1    1    2    0    0 -0.60297586041E+01  0.39148354501E+02 -0.17738985808E+02  0.43400728870E+02  0.00000000000E+00 0. -1.
         11    1    3    3    0    0 -0.38586480814E+00 -0.99707026699E+01 -0.19994037347E+01  0.10176513103E+02  0.51100000000E-03 0. -1.
        -11    1    3    3    0    0  0.86465676341E+01 -0.17658040181E+02  0.15834178173E+02  0.25244617517E+02  0.51100000000E-03 0.  1.
        -12    1    3    3    0    0 -0.22309442218E+01 -0.11519611650E+02  0.39042113702E+01  0.12366140510E+02  0.00000000000E+00 0.  1.
</event>
<event>
 7    1  0.5317846E-010  0.4778728E+02  0.7816164E-02  0.1312668E+00
        -11   -1    0    0    0    0  0.00000000000E+00  0.00000000000E+00  0.45593999997E+02  0.45594000000E+02  0.51100000000E-03 0. -1.
         11   -1    0    0    0    0 -0.00000000000E+00 -0.00000000000E+00 -0.45593999997E+02  0.45594000000E+02  0.51100000000E-03 0.  1.
    9900012    2    1    2    0    0  0.19126135243E+02  0.36226255761E+02 -0.14334299987E+02  0.47787276367E+02  0.20000024267E+02 0.  0.
         12    1    1    2    0    0 -0.19126135243E+02 -0.36226255761E+02  0.14334299987E+02  0.43400723633E+02  0.00000000000E+00 0. -1.
         11    1    3    3    0    0  0.69481346405E+01  0.17766346068E+02 -0.13830658696E+02  0.23562825548E+02  0.51100000000E-03 0.  1.
        -11    1    3    3    0    0  0.38999569177E+01  0.14125936593E+02  0.12857632080E+01  0.14710708204E+02  0.51100000000E-03 0. -1.
         12    1    3    3    0    0  0.82780436843E+01  0.43339731004E+01 -0.17894044983E+01  0.95137426144E+01  0.00000000000E+00 0. -1.
</event>
<event>
 7    1  0.5317846E-010  0.4778727E+02  0.7816164E-02  0.1312668E+00
        -11   -1    0    0    0    0  0.00000000000E+00  0.00000000000E+00  0.45593999997E+02  0.45594000000E+02  0.51100000000E-03 0.  1.
         11   -1    0    0    0    0 -0.00000000000E+00 -0.00000000000E+00 -0.45593999997E+02  0.45594000000E+02  0.51100000000E-03 0. -1.
    9900012    2    1    2    0    0  0.22898906684E+02  0.36484875582E+02 -0.53025466266E+01  0.47787273344E+02  0.20000010483E+02 0.  0.
         12    1    1    2    0    0 -0.22898906684E+02 -0.36484875582E+02  0.53025466266E+01  0.43400726656E+02  0.00000000000E+00 0. -1.
         11    1    3    3    0    0  0.13253788129E+02  0.31995434543E+02 -0.67554667171E+01  0.35284657603E+02  0.51100000000E-03 0. -1.
        -11    1    3    3    0    0  0.22771377640E+01  0.32532098288E+01 -0.17929549395E+01  0.43569964727E+01  0.51100000000E-03 0.  1.
         12    1    3    3    0    0  0.73679807911E+01  0.12362312106E+01  0.32458750301E+01  0.81456192677E+01  0.00000000000E+00 0. -1.
</event>
<event>
 7    1  0.5317846E-010  0.4778727E+02  0.7816164E-02  0.1312668E+00
        -11   -1    0    0    0    0  0.00000000000E+00  0.00000000000E+00  0.45593999997E+02  0.45594000000E+02  0.51100000000E-03 0.  1.
         11   -1    0    0    0    0 -0.00000000000E+00 -0.00000000000E+00 -0.45593999997E+02  0.45594000000E+02  0.51100000000E-03 0. -1.
    9900012    2    1    2    0    0  0.38132121294E+02 -0.17231888757E+02  0.11516349444E+02  0.47787274557E+02  0.20000016014E+02 0.  0.
         12    1    1    2    0    0 -0.38132121294E+02  0.17231888757E+02 -0.11516349444E+02  0.43400725443E+02  0.00000000000E+00 0. -1.
         11    1    3    3    0    0  0.18905162280E+02 -0.97713491403E+00  0.89617354541E+01  0.20944513747E+02  0.51100000000E-03 0.  1.
        -11    1    3    3    0    0  0.63606891390E+01 -0.11231765392E+02  0.11102149348E+01  0.12955442779E+02  0.51100000000E-03 0. -1.
        -12    1    3    3    0    0  0.12866269875E+02 -0.50229884518E+01  0.14443990547E+01  0.13887318031E+02  0.00000000000E+00 0.  1.
</event>
<event>
 7    1  0.5918183E-010  0.4778727E+02  0.7816164E-02  0.1312668E+00
        -11   -1    0    0    0    0  0.00000000000E+00  0.00000000000E+00  0.45593999997E+02  0.45594000000E+02  0.51100000000E-03 0. -1.
         11   -1    0    0    0    0 -0.00000000000E+00 -0.00000000000E+00 -0.45593999997E+02  0.45594000000E+02  0.51100000000E-03 0.  1.
    9900012    2    1    2    0    0 -0.79654946045E+01  0.23648115253E+02 -0.35509731193E+02  0.47787268800E+02  0.19999989765E+02 0.  0.
         12    1    1    2    0    0  0.79654946045E+01 -0.23648115253E+02  0.35509731193E+02  0.43400731200E+02  0.00000000000E+00 0. -1.
         11    1    3    3    0    0 -0.57661958098E+00  0.10109665165E+02 -0.34645751575E+01  0.10702387638E+02  0.51100000000E-03 0. -1.
        -11    1    3    3    0    0 -0.21767880132E+01  0.12761429043E+02 -0.26141684357E+02  0.29171563869E+02  0.51100000000E-03 0.  1.
        -12    1    3    3    0    0 -0.52120870103E+01  0.77702104562E+00 -0.59034716786E+01  0.79133172923E+01  0.00000000000E+00 0.  1.
</event>
<event>
 7    1  0.5317846E-010  0.4778727E+02  0.7816164E-02  0.1312668E+00
        -11   -1    0    0    0    0  0.00000000000E+00  0.00000000000E+00  0.45593999997E+02  0.45594000000E+02  0.51100000000E-03 0.  1.
         11   -1    0    0    0    0 -0.00000000000E+00 -0.00000000000E+00 -0.45593999997E+02  0.45594000000E+02  0.51100000000E-03 0. -1.
    9900012    2    1    2    0    0  0.33457665665E+02 -0.18899772879E+02  0.20174401651E+02  0.47787270875E+02  0.19999999228E+02 0.  0.
         12    1    1    2    0    0 -0.33457665665E+02  0.18899772879E+02 -0.20174401651E+02  0.43400729125E+02  0.00000000000E+00 0. -1.
         11    1    3    3    0    0  0.55647870704E+01  0.86968154849E+00  0.66991967055E+01  0.87522818679E+01  0.51100000000E-03 0. -1.
        -11    1    3    3    0    0  0.17801091650E+02 -0.14524583228E+02  0.22991924134E+01  0.23089579206E+02  0.51100000000E-03 0.  1.
        -12    1    3    3    0    0  0.10091786944E+02 -0.52448711991E+01  0.11176012532E+02  0.15945409801E+02  0.00000000000E+00 0.  1.
</event>
<event>
 7    1  0.5317846E-010  0.4778727E+02  0.7816164E-02  0.1312668E+00
        -11   -1    0    0    0    0  0.00000000000E+00  0.00000000000E+00  0.45593999997E+02  0.45594000000E+02  0.51100000000E-03 0. -1.
         11   -1    0    0    0    0 -0.00000000000E+00 -0.00000000000E+00 -0.45593999997E+02  0.45594000000E+02  0.51100000000E-03 0.  1.
    9900012    2    1    2    0    0  0.27766441601E+02  0.21087630728E+02 -0.25844920729E+02  0.47787269864E+02  0.19999994617E+02 0.  0.
         12    1    1    2    0    0 -0.27766441601E+02 -0.21087630728E+02  0.25844920729E+02  0.43400730136E+02  0.00000000000E+00 0. -1.
         11    1    3    3    0    0  0.14859044528E+00 -0.35401944533E+00 -0.23892369105E+01  0.24198888742E+01  0.51100000000E-03 0.  1.
        -11    1    3    3    0    0  0.31046561400E+01  0.30888917048E+01 -0.11826471942E+02  0.12611327470E+02  0.51100000000E-03 0. -1.
        -12    1    3    3    0    0  0.24513195016E+02  0.18352758468E+02 -0.11629211876E+02  0.32756053519E+02  0.00000000000E+00 0.  1.
</event>
<event>
 7    1  0.5317846E-010  0.4778727E+02  0.7816164E-02  0.1312668E+00
        -11   -1    0    0    0    0  0.00000000000E+00  0.00000000000E+00  0.45593999997E+02  0.45594000000E+02  0.51100000000E-03 0.  1.
         11   -1    0    0    0    0 -0.00000000000E+00 -0.00000000000E+00 -0.45593999997E+02  0.45594000000E+02  0.51100000000E-03 0. -1.
    9900012    2    1    2    0    0 -0.27739231169E+01  0.40352515807E+02  0.15735417525E+02  0.47787267908E+02  0.19999985701E+02 0.  0.
         12    1    1    2    0    0  0.27739231169E+01 -0.40352515807E+02 -0.15735417525E+02  0.43400732092E+02  0.00000000000E+00 0. -1.
         11    1    3    3    0    0 -0.54041190014E+01  0.86958956465E+01  0.63058126653E+01  0.12024407549E+02  0.51100000000E-03 0. -1.
        -11    1    3    3    0    0  0.81604924461E+01  0.18895601987E+02  0.52726956528E+01  0.21247087592E+02  0.51100000000E-03 0.  1.
         12    1    3    3    0    0 -0.55302965616E+01  0.12761018173E+02  0.41569092066E+01  0.14515772767E+02  0.00000000000E+00 0. -1.
</event>
<event>
 7    1  0.5317846E-010  0.4778727E+02  0.7816164E-02  0.1312668E+00
        -11   -1    0    0    0    0  0.00000000000E+00  0.00000000000E+00  0.45593999997E+02  0.45594000000E+02  0.51100000000E-03 0.  1.
         11   -1    0    0    0    0 -0.00000000000E+00 -0.00000000000E+00 -0.45593999997E+02  0.45594000000E+02  0.51100000000E-03 0. -1.
    9900012    2    1    2    0    0 -0.82194918153E+01  0.42113505005E+02 -0.65204445609E+01  0.47787267900E+02  0.19999985664E+02 0.  0.
         12    1    1    2    0    0  0.82194918153E+01 -0.42113505005E+02  0.65204445609E+01  0.43400732100E+02  0.00000000000E+00 0. -1.
         11    1    3    3    0    0 -0.11652338398E+01  0.45391694585E+01 -0.77541817107E+01  0.90603070333E+01  0.51100000000E-03 0. -1.
        -11    1    3    3    0    0 -0.45856409102E+01  0.30413757025E+02  0.31377348415E+01  0.30917148949E+02  0.51100000000E-03 0.  1.
         12    1    3    3    0    0 -0.24686170653E+01  0.71605785218E+01 -0.19039976916E+01  0.78098119178E+01  0.00000000000E+00 0. -1.
</event>
<event>
 7    1  0.5317846E-010  0.4778727E+02  0.7816164E-02  0.1312668E+00
        -11   -1    0    0    0    0  0.00000000000E+00  0.00000000000E+00  0.45593999997E+02  0.45594000000E+02  0.51100000000E-03 0.  1.
         11   -1    0    0    0    0 -0.00000000000E+00 -0.00000000000E+00 -0.45593999997E+02  0.45594000000E+02  0.51100000000E-03 0. -1.
    9900012    2    1    2    0    0  0.22904627207E+01  0.14042667211E+02  0.41002202340E+02  0.47787270529E+02  0.19999997650E+02 0.  0.
         12    1    1    2    0    0 -0.22904627207E+01 -0.14042667211E+02 -0.41002202340E+02  0.43400729471E+02  0.00000000000E+00 0. -1.
         11    1    3    3    0    0 -0.39526979334E+01  0.71611306702E+01  0.29150746333E+02  0.30276585433E+02  0.51100000000E-03 0. -1.
        -11    1    3    3    0    0  0.41242641525E+01  0.35151938010E+01  0.12364653520E+02  0.13500029599E+02  0.51100000000E-03 0.  1.
         12    1    3    3    0    0  0.21188965016E+01  0.33663427401E+01 -0.51319751286E+00  0.40106554970E+01  0.00000000000E+00 0. -1.
</event>
<event>
 7    1  0.5317846E-010  0.4778727E+02  0.7816164E-02  0.1312668E+00
        -11   -1    0    0    0    0  0.00000000000E+00  0.00000000000E+00  0.45593999997E+02  0.45594000000E+02  0.51100000000E-03 0.  1.
         11   -1    0    0    0    0 -0.00000000000E+00 -0.00000000000E+00 -0.45593999997E+02  0.45594000000E+02  0.51100000000E-03 0. -1.
    9900012    2    1    2    0    0  0.29281738122E+01  0.29047340245E+02  0.32113880595E+02  0.47787268393E+02  0.19999987909E+02 0.  0.
         12    1    1    2    0    0 -0.29281738122E+01 -0.29047340245E+02 -0.32113880595E+02  0.43400731607E+02  0.00000000000E+00 0. -1.
         11    1    3    3    0    0  0.80865025712E+01  0.23911459981E+02  0.17893005253E+02  0.30940411754E+02  0.51100000000E-03 0.  1.
        -11    1    3    3    0    0 -0.44535087894E+01  0.61589677201E+01  0.13229852035E+02  0.15257641005E+02  0.51100000000E-03 0. -1.
         12    1    3    3    0    0 -0.70481996952E+00 -0.10230874566E+01  0.99102330716E+00  0.15892156331E+01  0.00000000000E+00 0. -1.
</event>
<event>
 7    1  0.5317846E-010  0.4778727E+02  0.7816164E-02  0.1312668E+00
        -11   -1    0    0    0    0  0.00000000000E+00  0.00000000000E+00  0.45593999997E+02  0.45594000000E+02  0.51100000000E-03 0. -1.
         11   -1    0    0    0    0 -0.00000000000E+00 -0.00000000000E+00 -0.45593999997E+02  0.45594000000E+02  0.51100000000E-03 0.  1.
    9900012    2    1    2    0    0  0.99881545430E+01 -0.42003388228E+02 -0.44244094043E+01  0.47787271292E+02  0.20000001129E+02 0.  0.
         12    1    1    2    0    0 -0.99881545430E+01  0.42003388228E+02  0.44244094043E+01  0.43400728708E+02  0.00000000000E+00 0. -1.
         11    1    3    3    0    0  0.10467832408E+02 -0.34702369692E+02 -0.52014844310E+01  0.36618102328E+02  0.51100000000E-03 0. -1.
        -11    1    3    3    0    0  0.27584791006E+01 -0.67989286886E+01 -0.10585953473E+01  0.74131816808E+01  0.51100000000E-03 0.  1.
         12    1    3    3    0    0 -0.32381569659E+01 -0.50208984784E+00  0.18356703740E+01  0.37559872835E+01  0.00000000000E+00 0. -1.
</event>
<event>
 7    1  0.5317846E-010  0.4778727E+02  0.7816164E-02  0.1312668E+00
        -11   -1    0    0    0    0  0.00000000000E+00  0.00000000000E+00  0.45593999997E+02  0.45594000000E+02  0.51100000000E-03 0.  1.
         11   -1    0    0    0    0 -0.00000000000E+00 -0.00000000000E+00 -0.45593999997E+02  0.45594000000E+02  0.51100000000E-03 0. -1.
    9900012    2    1    2    0    0 -0.34558488105E+02 -0.94190214025E+01  0.24507480532E+02  0.47787266523E+02  0.19999979386E+02 0.  0.
         12    1    1    2    0    0  0.34558488105E+02  0.94190214025E+01 -0.24507480532E+02  0.43400733477E+02  0.00000000000E+00 0. -1.
         11    1    3    3    0    0 -0.16002693229E+02  0.26942391127E+01  0.59787675328E+01  0.17294241136E+02  0.51100000000E-03 0. -1.
        -11    1    3    3    0    0 -0.11436207348E+02 -0.12649705819E+02  0.13688427076E+02  0.21867211342E+02  0.51100000000E-03 0.  1.
        -12    1    3    3    0    0 -0.71195875281E+01  0.53644530339E+00  0.48402859228E+01  0.86258140455E+01  0.00000000000E+00 0.  1.
</event>
<event>
 7    1  0.5317846E-010  0.4778727E+02  0.7816164E-02  0.1312668E+00
        -11   -1    0    0    0    0  0.00000000000E+00  0.00000000000E+00  0.45593999997E+02  0.45594000000E+02  0.51100000000E-03 0. -1.
         11   -1    0    0    0    0 -0.00000000000E+00 -0.00000000000E+00 -0.45593999997E+02  0.45594000000E+02  0.51100000000E-03 0.  1.
    9900012    2    1    2    0    0  0.13150510482E+02 -0.20785756775E+02 -0.35758070890E+02  0.47787271384E+02  0.20000001546E+02 0.  0.
         12    1    1    2    0    0 -0.13150510482E+02  0.20785756775E+02  0.35758070890E+02  0.43400728616E+02  0.00000000000E+00 0. -1.
         11    1    3    3    0    0  0.46620442634E+01  0.69378810213E+00 -0.11928200468E+01  0.48619768170E+01  0.51100000000E-03 0. -1.
        -11    1    3    3    0    0 -0.11659613718E+01 -0.97088311266E+01 -0.17576690839E+02  0.20113700030E+02  0.51100000000E-03 0.  1.
        -12    1    3    3    0    0  0.96544275905E+01 -0.11770713751E+02 -0.16988560004E+02  0.22811594537E+02  0.00000000000E+00 0.  1.
</event>
<event>
 7    1  0.5317846E-010  0.4778727E+02  0.7816164E-02  0.1312668E+00
        -11   -1    0    0    0    0  0.00000000000E+00  0.00000000000E+00  0.45593999997E+02  0.45594000000E+02  0.51100000000E-03 0. -1.
         11   -1    0    0    0    0 -0.00000000000E+00 -0.00000000000E+00 -0.45593999997E+02  0.45594000000E+02  0.51100000000E-03 0.  1.
    9900012    2    1    2    0    0 -0.10144875469E+02 -0.39300812986E+02 -0.15367201066E+02  0.47787271109E+02  0.20000000295E+02 0.  0.
         12    1    1    2    0    0  0.10144875469E+02  0.39300812986E+02  0.15367201066E+02  0.43400728891E+02  0.00000000000E+00 0. -1.
         11    1    3    3    0    0 -0.12286777306E+02 -0.16181572525E+02 -0.65518582561E+01  0.21347951490E+02  0.51100000000E-03 0. -1.
        -11    1    3    3    0    0  0.42156661737E+01 -0.53742164010E+01 -0.40818365625E+01  0.79570995468E+01  0.51100000000E-03 0.  1.
        -12    1    3    3    0    0 -0.20737643372E+01 -0.17745024060E+02 -0.47335062470E+01  0.18482220072E+02  0.00000000000E+00 0.  1.
</event>
<event>
 7    1  0.5317846E-010  0.4778728E+02  0.7816164E-02  0.1312668E+00
        -11   -1    0    0    0    0  0.00000000000E+00  0.00000000000E+00  0.45593999997E+02  0.45594000000E+02  0.51100000000E-03 0.  1.
         11   -1    0    0    0    0 -0.00000000000E+00 -0.00000000000E+00 -0.45593999997E+02  0.45594000000E+02  0.51100000000E-03 0. -1.
    9900012    2    1    2    0    0 -0.31414551795E+02 -0.22146773923E+02  0.20156104852E+02  0.47787283157E+02  0.20000055227E+02 0.  0.
         12    1    1    2    0    0  0.31414551795E+02  0.22146773923E+02 -0.20156104852E+02  0.43400716843E+02  0.00000000000E+00 0. -1.
         11    1    3    3    0    0 -0.21617305228E+02 -0.68675140367E+01  0.13665214502E+02  0.26480345957E+02  0.51100000000E-03 0. -1.
        -11    1    3    3    0    0 -0.60150883914E+00 -0.16558541308E+01  0.43979892661E+01  0.47377183994E+01  0.51100000000E-03 0.  1.
         12    1    3    3    0    0 -0.91957377279E+01 -0.13623405755E+02  0.20929010848E+01  0.16569218801E+02  0.00000000000E+00 0. -1.
</event>
<event>
 7    1  0.5317846E-010  0.4778727E+02  0.7816164E-02  0.1312668E+00
        -11   -1    0    0    0    0  0.00000000000E+00  0.00000000000E+00  0.45593999997E+02  0.45594000000E+02  0.51100000000E-03 0.  1.
         11   -1    0    0    0    0 -0.00000000000E+00 -0.00000000000E+00 -0.45593999997E+02  0.45594000000E+02  0.51100000000E-03 0. -1.
    9900012    2    1    2    0    0 -0.36192671916E+01 -0.41530866953E+02  0.12071083213E+02  0.47787273568E+02  0.20000011508E+02 0.  0.
         12    1    1    2    0    0  0.36192671916E+01  0.41530866953E+02 -0.12071083213E+02  0.43400726432E+02  0.00000000000E+00 0. -1.
         11    1    3    3    0    0 -0.55897771914E+01 -0.10579453121E+02 -0.28481440967E+01  0.12299689526E+02  0.51100000000E-03 0. -1.
        -11    1    3    3    0    0  0.19872428831E+01 -0.24950470597E+02  0.78865469194E+01  0.26242574947E+02  0.51100000000E-03 0.  1.
         12    1    3    3    0    0 -0.16732883256E-01 -0.60009432351E+01  0.70326803899E+01  0.92450090950E+01  0.00000000000E+00 0. -1.
</event>
<event>
 7    1  0.5317846E-010  0.4778727E+02  0.7816164E-02  0.1312668E+00
        -11   -1    0    0    0    0  0.00000000000E+00  0.00000000000E+00  0.45593999997E+02  0.45594000000E+02  0.51100000000E-03 0.  1.
         11   -1    0    0    0    0 -0.00000000000E+00 -0.00000000000E+00 -0.45593999997E+02  0.45594000000E+02  0.51100000000E-03 0. -1.
    9900012    2    1    2    0    0 -0.38241596515E+02 -0.18726047068E+02  0.83987343544E+01  0.47787270956E+02  0.19999999598E+02 0.  0.
         12    1    1    2    0    0  0.38241596515E+02  0.18726047068E+02 -0.83987343544E+01  0.43400729044E+02  0.00000000000E+00 0. -1.
         11    1    3    3    0    0 -0.25956136962E+01 -0.60362842590E+01 -0.30850018161E+01  0.72588686847E+01  0.51100000000E-03 0. -1.
        -11    1    3    3    0    0 -0.18421006870E+02 -0.31911368153E+01  0.88439351072E+01  0.20681683604E+02  0.51100000000E-03 0.  1.
        -12    1    3    3    0    0 -0.17224975949E+02 -0.94986259938E+01  0.26398010633E+01  0.19846718667E+02  0.00000000000E+00 0.  1.
</event>
<event>
 7    1  0.5317846E-010  0.4778727E+02  0.7816164E-02  0.1312668E+00
        -11   -1    0    0    0    0  0.00000000000E+00  0.00000000000E+00  0.45593999997E+02  0.45594000000E+02  0.51100000000E-03 0.  1.
         11   -1    0    0    0    0 -0.00000000000E+00 -0.00000000000E+00 -0.45593999997E+02  0.45594000000E+02  0.51100000000E-03 0. -1.
    9900012    2    1    2    0    0 -0.28295334784E+01 -0.21464340481E+02  0.37615142203E+02  0.47787273106E+02  0.20000009400E+02 0.  0.
         12    1    1    2    0    0  0.28295334784E+01  0.21464340481E+02 -0.37615142203E+02  0.43400726894E+02  0.00000000000E+00 0. -1.
         11    1    3    3    0    0 -0.34463291459E+01 -0.97569952421E+01  0.11149826779E+02  0.15211665859E+02  0.51100000000E-03 0.  1.
        -11    1    3    3    0    0  0.54971670606E+01 -0.60259082679E+01  0.43871444529E+01  0.92616117851E+01  0.51100000000E-03 0. -1.
        -12    1    3    3    0    0 -0.48803713931E+01 -0.56814369711E+01  0.22078170971E+02  0.23313995462E+02  0.00000000000E+00 0.  1.
</event>
<event>
 7    1  0.5317846E-010  0.4778727E+02  0.7816164E-02  0.1312668E+00
        -11   -1    0    0    0    0  0.00000000000E+00  0.00000000000E+00  0.45593999997E+02  0.45594000000E+02  0.51100000000E-03 0.  1.
         11   -1    0    0    0    0 -0.00000000000E+00 -0.00000000000E+00 -0.45593999997E+02  0.45594000000E+02  0.51100000000E-03 0. -1.
    9900012    2    1    2    0    0 -0.48756932606E+01 -0.16538569500E+02  0.39828713888E+02  0.47787272865E+02  0.20000008300E+02 0.  0.
         12    1    1    2    0    0  0.48756932606E+01  0.16538569500E+02 -0.39828713888E+02  0.43400727135E+02  0.00000000000E+00 0. -1.
         11    1    3    3    0    0 -0.20692455679E+01 -0.42581762002E+01  0.45770166053E+01  0.65850530020E+01  0.51100000000E-03 0. -1.
        -11    1    3    3    0    0 -0.76530374523E+01 -0.29552610767E+01  0.61265914058E+01  0.10239026946E+02  0.51100000000E-03 0.  1.
        -12    1    3    3    0    0  0.48465897597E+01 -0.93251322225E+01  0.29125105877E+02  0.30963192917E+02  0.00000000000E+00 0.  1.
</event>
<event>
 7    1  0.5317846E-010  0.4778728E+02  0.7816164E-02  0.1312668E+00
        -11   -1    0    0    0    0  0.00000000000E+00  0.00000000000E+00  0.45593999997E+02  0.45594000000E+02  0.51100000000E-03 0. -1.
         11   -1    0    0    0    0 -0.00000000000E+00 -0.00000000000E+00 -0.45593999997E+02  0.45594000000E+02  0.51100000000E-03 0.  1.
    9900012    2    1    2    0    0  0.31815118622E+02 -0.29296928950E+02 -0.36208303591E+01  0.47787283055E+02  0.20000054760E+02 0.  0.
         12    1    1    2    0    0 -0.31815118622E+02  0.29296928950E+02  0.36208303591E+01  0.43400716945E+02  0.00000000000E+00 0. -1.
         11    1    3    3    0    0  0.11478736477E+02 -0.16855667145E+02 -0.87770642066E+01  0.22201616211E+02  0.51100000000E-03 0.  1.
        -11    1    3    3    0    0  0.76858959966E+01 -0.59389212455E+00  0.20608106823E+01  0.79795141491E+01  0.51100000000E-03 0. -1.
        -12    1    3    3    0    0  0.12650486149E+02 -0.11847369680E+02  0.30954231652E+01  0.17606152695E+02  0.00000000000E+00 0.  1.
</event>
<event>
 7    1  0.1192424E-009  0.4778727E+02  0.7816164E-02  0.1312668E+00
        -11   -1    0    0    0    0  0.00000000000E+00  0.00000000000E+00  0.45593999997E+02  0.45594000000E+02  0.51100000000E-03 0. -1.
         11   -1    0    0    0    0 -0.00000000000E+00 -0.00000000000E+00 -0.45593999997E+02  0.45594000000E+02  0.51100000000E-03 0.  1.
    9900012    2    1    2    0    0 -0.27562075891E+02  0.19729592601E+02 -0.27105326856E+02  0.47787267338E+02  0.19999983099E+02 0.  0.
         12    1    1    2    0    0  0.27562075891E+02 -0.19729592601E+02  0.27105326856E+02  0.43400732662E+02  0.00000000000E+00 0. -1.
         11    1    3    3    0    0 -0.11986084208E+02  0.83811202226E+01 -0.10807135018E+02  0.18185256622E+02  0.51100000000E-03 0.  1.
        -11    1    3    3    0    0 -0.47804390368E+01  0.35113941356E+01 -0.15081911818E+02  0.16206373762E+02  0.51100000000E-03 0. -1.
        -12    1    3    3    0    0 -0.10795552646E+02  0.78370782430E+01 -0.12162800203E+01  0.13395636954E+02  0.00000000000E+00 0.  1.
</event>
<event>
 7    1  0.5317846E-010  0.4778727E+02  0.7816164E-02  0.1312668E+00
        -11   -1    0    0    0    0  0.00000000000E+00  0.00000000000E+00  0.45593999997E+02  0.45594000000E+02  0.51100000000E-03 0. -1.
         11   -1    0    0    0    0 -0.00000000000E+00 -0.00000000000E+00 -0.45593999997E+02  0.45594000000E+02  0.51100000000E-03 0.  1.
    9900012    2    1    2    0    0 -0.40696801922E+02 -0.36594952465E+01  0.14628794768E+02  0.47787271567E+02  0.20000002384E+02 0.  0.
         12    1    1    2    0    0  0.40696801922E+02  0.36594952465E+01 -0.14628794768E+02  0.43400728433E+02  0.00000000000E+00 0. -1.
         11    1    3    3    0    0 -0.38864631438E+02  0.19474793712E+01  0.13436696230E+02  0.41167912973E+02  0.51100000000E-03 0. -1.
        -11    1    3    3    0    0 -0.23930300717E+01 -0.39103698849E+01  0.23082756076E+00  0.45903014263E+01  0.51100000000E-03 0.  1.
         12    1    3    3    0    0  0.56085958839E+00 -0.16966047329E+01  0.96127097762E+00  0.20290571677E+01  0.00000000000E+00 0. -1.
</event>
<event>
 7    1  0.5317846E-010  0.4778728E+02  0.7816164E-02  0.1312668E+00
        -11   -1    0    0    0    0  0.00000000000E+00  0.00000000000E+00  0.45593999997E+02  0.45594000000E+02  0.51100000000E-03 0. -1.
         11   -1    0    0    0    0 -0.00000000000E+00 -0.00000000000E+00 -0.45593999997E+02  0.45594000000E+02  0.51100000000E-03 0.  1.
    9900012    2    1    2    0    0 -0.24691387903E+02 -0.35533932676E+02 -0.33611510884E+01  0.47787281749E+02  0.20000048807E+02 0.  0.
         12    1    1    2    0    0  0.24691387903E+02  0.35533932676E+02  0.33611510884E+01  0.43400718251E+02  0.00000000000E+00 0. -1.
         11    1    3    3    0    0 -0.19789276884E+02 -0.22759740533E+02  0.39608968065E+01  0.30418908141E+02  0.51100000000E-03 0. -1.
        -11    1    3    3    0    0 -0.46696731912E+01 -0.28210026868E+01 -0.92248977444E+00  0.55330725204E+01  0.51100000000E-03 0.  1.
         12    1    3    3    0    0 -0.23243782869E+00 -0.99531894566E+01 -0.63995581204E+01  0.11835301088E+02  0.00000000000E+00 0. -1.
</event>
<event>
 7    1  0.5317846E-010  0.4778729E+02  0.7816164E-02  0.1312668E+00
        -11   -1    0    0    0    0  0.00000000000E+00  0.00000000000E+00  0.45593999997E+02  0.45594000000E+02  0.51100000000E-03 0. -1.
         11   -1    0    0    0    0 -0.00000000000E+00 -0.00000000000E+00 -0.45593999997E+02  0.45594000000E+02  0.51100000000E-03 0.  1.
    9900012    2    1    2    0    0 -0.23446498937E+02  0.30945774064E+02  0.19396968038E+02  0.47787290168E+02  0.20000087194E+02 0.  0.
         12    1    1    2    0    0  0.23446498937E+02 -0.30945774064E+02 -0.19396968038E+02  0.43400709832E+02  0.00000000000E+00 0. -1.
         11    1    3    3    0    0 -0.16472497436E+02  0.27723740230E+02  0.10977050352E+02  0.34065298749E+02  0.51100000000E-03 0. -1.
        -11    1    3    3    0    0 -0.77541792434E+01  0.45723672239E+01  0.81422363695E+01  0.12137950862E+02  0.51100000000E-03 0.  1.
         12    1    3    3    0    0  0.78017774299E+00 -0.13503333901E+01  0.27768131645E+00  0.15840405577E+01  0.00000000000E+00 0. -1.
</event>
<event>
 7    1  0.5317846E-010  0.4778727E+02  0.7816164E-02  0.1312668E+00
        -11   -1    0    0    0    0  0.00000000000E+00  0.00000000000E+00  0.45593999997E+02  0.45594000000E+02  0.51100000000E-03 0. -1.
         11   -1    0    0    0    0 -0.00000000000E+00 -0.00000000000E+00 -0.45593999997E+02  0.45594000000E+02  0.51100000000E-03 0.  1.
    9900012    2    1    2    0    0 -0.27414137739E+02  0.28633766717E+02  0.17669064785E+02  0.47787269652E+02  0.19999993651E+02 0.  0.
         12    1    1    2    0    0  0.27414137739E+02 -0.28633766717E+02 -0.17669064785E+02  0.43400730348E+02  0.00000000000E+00 0. -1.
         11    1    3    3    0    0 -0.87995079355E+01  0.58495017558E+00  0.79549464584E+01  0.11876644309E+02  0.51100000000E-03 0. -1.
        -11    1    3    3    0    0 -0.15586102720E+02  0.20417419612E+02  0.10310586307E+02  0.27678616509E+02  0.51100000000E-03 0.  1.
         12    1    3    3    0    0 -0.30285270832E+01  0.76313969297E+01 -0.59646798050E+00  0.82320088340E+01  0.00000000000E+00 0. -1.
</event>
<event>
 7    1  0.5317846E-010  0.4778727E+02  0.7816164E-02  0.1312668E+00
        -11   -1    0    0    0    0  0.00000000000E+00  0.00000000000E+00  0.45593999997E+02  0.45594000000E+02  0.51100000000E-03 0. -1.
         11   -1    0    0    0    0 -0.00000000000E+00 -0.00000000000E+00 -0.45593999997E+02  0.45594000000E+02  0.51100000000E-03 0.  1.
    9900012    2    1    2    0    0  0.11924352553E+01  0.40279601266E+02  0.16116920398E+02  0.47787270707E+02  0.19999998463E+02 0.  0.
         12    1    1    2    0    0 -0.11924352553E+01 -0.40279601266E+02 -0.16116920398E+02  0.43400729293E+02  0.00000000000E+00 0. -1.
         11    1    3    3    0    0  0.12525614752E+01  0.20862440800E+02  0.18054865271E+02  0.27618626081E+02  0.51100000000E-03 0. -1.
        -11    1    3    3    0    0 -0.22722944360E+01  0.12976721638E+02 -0.36320596924E+00  0.13179170889E+02  0.51100000000E-03 0.  1.
         12    1    3    3    0    0  0.22121682161E+01  0.64404388278E+01 -0.15747389038E+01  0.69894737374E+01  0.00000000000E+00 0. -1.
</event>
<event>
 7    1  0.5317846E-010  0.4778725E+02  0.7816164E-02  0.1312668E+00
        -11   -1    0    0    0    0  0.00000000000E+00  0.00000000000E+00  0.45593999997E+02  0.45594000000E+02  0.51100000000E-03 0.  1.
         11   -1    0    0    0    0 -0.00000000000E+00 -0.00000000000E+00 -0.45593999997E+02  0.45594000000E+02  0.51100000000E-03 0. -1.
    9900012    2    1    2    0    0 -0.14813512481E+02  0.25449226188E+02  0.31882935608E+02  0.47787252903E+02  0.19999917285E+02 0.  0.
         12    1    1    2    0    0  0.14813512481E+02 -0.25449226188E+02 -0.31882935608E+02  0.43400747097E+02  0.00000000000E+00 0. -1.
         11    1    3    3    0    0 -0.91092580121E+00 -0.24683658190E+01  0.51884903262E+01  0.58174777832E+01  0.51100000000E-03 0. -1.
        -11    1    3    3    0    0 -0.75036515559E+01  0.23242746983E+02  0.21008956586E+02  0.32216553681E+02  0.51100000000E-03 0.  1.
         12    1    3    3    0    0 -0.63989351239E+01  0.46748450242E+01  0.56854886955E+01  0.97532214384E+01  0.00000000000E+00 0. -1.
</event>
<event>
 7    1  0.5317846E-010  0.4778727E+02  0.7816164E-02  0.1312668E+00
        -11   -1    0    0    0    0  0.00000000000E+00  0.00000000000E+00  0.45593999997E+02  0.45594000000E+02  0.51100000000E-03 0.  1.
         11   -1    0    0    0    0 -0.00000000000E+00 -0.00000000000E+00 -0.45593999997E+02  0.45594000000E+02  0.51100000000E-03 0. -1.
    9900012    2    1    2    0    0  0.28988836072E+02  0.23718635405E+02  0.21924804979E+02  0.47787270103E+02  0.19999995707E+02 0.  0.
         12    1    1    2    0    0 -0.28988836072E+02 -0.23718635405E+02 -0.21924804979E+02  0.43400729897E+02  0.00000000000E+00 0. -1.
         11    1    3    3    0    0  0.47807685711E+00  0.65001109978E+00 -0.18974876467E+01  0.20619242328E+01  0.51100000000E-03 0. -1.
        -11    1    3    3    0    0  0.32904320179E+01 -0.15882582667E+01  0.13051253490E+01  0.38798014928E+01  0.51100000000E-03 0.  1.
        -12    1    3    3    0    0  0.25220327197E+02  0.24656882572E+02  0.22517167277E+02  0.41845544377E+02  0.00000000000E+00 0.  1.
</event>
<event>
 7    1  0.5317846E-010  0.4778730E+02  0.7816164E-02  0.1312668E+00
        -11   -1    0    0    0    0  0.00000000000E+00  0.00000000000E+00  0.45593999997E+02  0.45594000000E+02  0.51100000000E-03 0.  1.
         11   -1    0    0    0    0 -0.00000000000E+00 -0.00000000000E+00 -0.45593999997E+02  0.45594000000E+02  0.51100000000E-03 0. -1.
    9900012    2    1    2    0    0 -0.24888163609E+02 -0.29904786809E+02  0.19232891704E+02  0.47787296259E+02  0.20000114962E+02 0.  0.
         12    1    1    2    0    0  0.24888163609E+02  0.29904786809E+02 -0.19232891704E+02  0.43400703741E+02  0.00000000000E+00 0. -1.
         11    1    3    3    0    0 -0.78538651761E+01 -0.12514651022E+02  0.98013551134E+01  0.17730376497E+02  0.51100000000E-03 0. -1.
        -11    1    3    3    0    0 -0.19214101811E+02 -0.13536827198E+02  0.10095636221E+02  0.25580251562E+02  0.51100000000E-03 0.  1.
        -12    1    3    3    0    0  0.21798033782E+01 -0.38533085894E+01 -0.66409963033E+00  0.44766681999E+01  0.00000000000E+00 0.  1.
</event>
<event>
 7    1  0.5317846E-010  0.4778727E+02  0.7816164E-02  0.1312668E+00
        -11   -1    0    0    0    0  0.00000000000E+00  0.00000000000E+00  0.45593999997E+02  0.45594000000E+02  0.51100000000E-03 0.  1.
         11   -1    0    0    0    0 -0.00000000000E+00 -0.00000000000E+00 -0.45593999997E+02  0.45594000000E+02  0.51100000000E-03 0. -1.
    9900012    2    1    2    0    0  0.25797534960E+02 -0.24573141680E+02  0.24784499460E+02  0.47787268260E+02  0.19999987307E+02 0.  0.
         12    1    1    2    0    0 -0.25797534960E+02  0.24573141680E+02 -0.24784499460E+02  0.43400731740E+02  0.00000000000E+00 0. -1.
         11    1    3    3    0    0  0.16388918711E+02 -0.23908812037E+02  0.18554657144E+02  0.34416613017E+02  0.51100000000E-03 0. -1.
        -11    1    3    3    0    0  0.29275480193E+01 -0.24659294255E+01  0.53620634086E+01  0.65881006061E+01  0.51100000000E-03 0.  1.
         12    1    3    3    0    0  0.64810682297E+01  0.18015997833E+01  0.86777890761E+00  0.67825546375E+01  0.00000000000E+00 0. -1.
</event>
<event>
 7    1  0.5317846E-010  0.4778727E+02  0.7816164E-02  0.1312668E+00
        -11   -1    0    0    0    0  0.00000000000E+00  0.00000000000E+00  0.45593999997E+02  0.45594000000E+02  0.51100000000E-03 0.  1.
         11   -1    0    0    0    0 -0.00000000000E+00 -0.00000000000E+00 -0.45593999997E+02  0.45594000000E+02  0.51100000000E-03 0. -1.
    9900012    2    1    2    0    0  0.18759566465E+02 -0.60867315449E+01  0.38660747949E+02  0.47787273429E+02  0.20000010873E+02 0.  0.
         12    1    1    2    0    0 -0.18759566465E+02  0.60867315449E+01 -0.38660747949E+02  0.43400726571E+02  0.00000000000E+00 0. -1.
         11    1    3    3    0    0  0.28239142512E+01 -0.47072354107E+01  0.12686948616E+02  0.13823574876E+02  0.51100000000E-03 0. -1.
        -11    1    3    3    0    0 -0.14168261959E+01 -0.28367544733E+01  0.66011674278E+00  0.32388773960E+01  0.51100000000E-03 0.  1.
        -12    1    3    3    0    0  0.17352478410E+02  0.14572583392E+01  0.25313682590E+02  0.30724821157E+02  0.00000000000E+00 0.  1.
</event>
<event>
 7    1  0.5317846E-010  0.4778727E+02  0.7816164E-02  0.1312668E+00
        -11   -1    0    0    0    0  0.00000000000E+00  0.00000000000E+00  0.45593999997E+02  0.45594000000E+02  0.51100000000E-03 0.  1.
         11   -1    0    0    0    0 -0.00000000000E+00 -0.00000000000E+00 -0.45593999997E+02  0.45594000000E+02  0.51100000000E-03 0. -1.
    9900012    2    1    2    0    0  0.22067258666E+02  0.32992685032E+02 -0.17553982630E+02  0.47787268706E+02  0.19999989340E+02 0.  0.
         12    1    1    2    0    0 -0.22067258666E+02 -0.32992685032E+02  0.17553982630E+02  0.43400731294E+02  0.00000000000E+00 0. -1.
         11    1    3    3    0    0  0.10298187445E+02  0.25792732548E+02 -0.13363472404E+02  0.30820449573E+02  0.51100000000E-03 0. -1.
        -11    1    3    3    0    0  0.80254181854E+01  0.81439703523E+01 -0.23038279539E+00  0.11436112392E+02  0.51100000000E-03 0.  1.
         12    1    3    3    0    0  0.37436530359E+01 -0.94401786847E+00 -0.39601274305E+01  0.55307067410E+01  0.00000000000E+00 0. -1.
</event>
<event>
 7    1  0.5317846E-010  0.4778727E+02  0.7816164E-02  0.1312668E+00
        -11   -1    0    0    0    0  0.00000000000E+00  0.00000000000E+00  0.45593999997E+02  0.45594000000E+02  0.51100000000E-03 0.  1.
         11   -1    0    0    0    0 -0.00000000000E+00 -0.00000000000E+00 -0.45593999997E+02  0.45594000000E+02  0.51100000000E-03 0. -1.
    9900012    2    1    2    0    0 -0.10581112343E+02 -0.39744960512E+02 -0.13856465296E+02  0.47787268958E+02  0.19999990487E+02 0.  0.
         12    1    1    2    0    0  0.10581112343E+02  0.39744960512E+02  0.13856465296E+02  0.43400731042E+02  0.00000000000E+00 0. -1.
         11    1    3    3    0    0 -0.27137730968E+01  0.72485717488E+00 -0.43077242319E+01  0.51426132135E+01  0.51100000000E-03 0. -1.
        -11    1    3    3    0    0 -0.82475694713E+01 -0.30836376091E+02 -0.72342136507E+01  0.32729777574E+02  0.51100000000E-03 0.  1.
        -12    1    3    3    0    0  0.38023022508E+00 -0.96334415953E+01 -0.23145274134E+01  0.99148781708E+01  0.00000000000E+00 0.  1.
</event>
<event>
 7    1  0.5317846E-010  0.4778727E+02  0.7816164E-02  0.1312668E+00
        -11   -1    0    0    0    0  0.00000000000E+00  0.00000000000E+00  0.45593999997E+02  0.45594000000E+02  0.51100000000E-03 0.  1.
         11   -1    0    0    0    0 -0.00000000000E+00 -0.00000000000E+00 -0.45593999997E+02  0.45594000000E+02  0.51100000000E-03 0. -1.
    9900012    2    1    2    0    0  0.10390542799E+02 -0.38881237592E+01  0.41958814852E+02  0.47787273857E+02  0.20000012822E+02 0.  0.
         12    1    1    2    0    0 -0.10390542799E+02  0.38881237592E+01 -0.41958814852E+02  0.43400726143E+02  0.00000000000E+00 0. -1.
         11    1    3    3    0    0 -0.27072918940E+01 -0.76152452588E+01  0.19603812932E+02  0.21204501209E+02  0.51100000000E-03 0. -1.
        -11    1    3    3    0    0  0.69353075848E+01  0.43541415844E+01  0.12592121851E+02  0.15020604955E+02  0.51100000000E-03 0.  1.
         12    1    3    3    0    0  0.61625271080E+01 -0.62702008482E+00  0.97628800681E+01  0.11562167693E+02  0.00000000000E+00 0. -1.
</event>
<event>
 7    1  0.5317846E-010  0.4778727E+02  0.7816164E-02  0.1312668E+00
        -11   -1    0    0    0    0  0.00000000000E+00  0.00000000000E+00  0.45593999997E+02  0.45594000000E+02  0.51100000000E-03 0.  1.
         11   -1    0    0    0    0 -0.00000000000E+00 -0.00000000000E+00 -0.45593999997E+02  0.45594000000E+02  0.51100000000E-03 0. -1.
    9900012    2    1    2    0    0  0.91745384364E+01  0.35916628641E+02  0.22570939263E+02  0.47787266508E+02  0.19999979316E+02 0.  0.
         12    1    1    2    0    0 -0.91745384364E+01 -0.35916628641E+02 -0.22570939263E+02  0.43400733492E+02  0.00000000000E+00 0. -1.
         11    1    3    3    0    0 -0.46245058669E+00  0.46714461707E+00 -0.11823617966E+01  0.13527986981E+01  0.51100000000E-03 0. -1.
        -11    1    3    3    0    0  0.10367531734E+02  0.13127063197E+02  0.55579799285E+01  0.17626589108E+02  0.51100000000E-03 0.  1.
        -12    1    3    3    0    0 -0.73054271136E+00  0.22322420827E+02  0.18195321131E+02  0.28807878702E+02  0.00000000000E+00 0.  1.
</event>
<event>
 7    1  0.5317846E-010  0.4778727E+02  0.7816164E-02  0.1312668E+00
        -11   -1    0    0    0    0  0.00000000000E+00  0.00000000000E+00  0.45593999997E+02  0.45594000000E+02  0.51100000000E-03 0. -1.
         11   -1    0    0    0    0 -0.00000000000E+00 -0.00000000000E+00 -0.45593999997E+02  0.45594000000E+02  0.51100000000E-03 0.  1.
    9900012    2    1    2    0    0  0.28107801012E+02 -0.20444094055E+02 -0.25992570987E+02  0.47787271827E+02  0.20000003566E+02 0.  0.
         12    1    1    2    0    0 -0.28107801012E+02  0.20444094055E+02  0.25992570987E+02  0.43400728173E+02  0.00000000000E+00 0. -1.
         11    1    3    3    0    0  0.12177350778E+02 -0.37168391989E+01 -0.12941893823E+01  0.12797565863E+02  0.51100000000E-03 0. -1.
        -11    1    3    3    0    0 -0.48226025261E+00  0.26524549321E+00 -0.25423791572E+01  0.26012731811E+01  0.51100000000E-03 0.  1.
         12    1    3    3    0    0  0.16412710486E+02 -0.16992500350E+02 -0.22156002448E+02  0.32388432782E+02  0.00000000000E+00 0. -1.
</event>
<event>
 7    1  0.5317846E-010  0.4778727E+02  0.7816164E-02  0.1312668E+00
        -11   -1    0    0    0    0  0.00000000000E+00  0.00000000000E+00  0.45593999997E+02  0.45594000000E+02  0.51100000000E-03 0.  1.
         11   -1    0    0    0    0 -0.00000000000E+00 -0.00000000000E+00 -0.45593999997E+02  0.45594000000E+02  0.51100000000E-03 0. -1.
    9900012    2    1    2    0    0  0.22725357194E+02 -0.36650421644E+02  0.48916079994E+01  0.47787273104E+02  0.20000009389E+02 0.  0.
         12    1    1    2    0    0 -0.22725357194E+02  0.36650421644E+02 -0.48916079994E+01  0.43400726896E+02  0.00000000000E+00 0. -1.
         11    1    3    3    0    0  0.35011455961E+00 -0.21519119601E+01  0.27751206267E+01  0.35291075420E+01  0.51100000000E-03 0. -1.
        -11    1    3    3    0    0  0.27757395855E+01  0.17615114202E+00 -0.30109140480E+01  0.40989465887E+01  0.51100000000E-03 0.  1.
        -12    1    3    3    0    0  0.19599503049E+02 -0.34674660826E+02  0.51274014206E+01  0.40159218973E+02  0.00000000000E+00 0.  1.
</event>
<event>
 7    1  0.5317846E-010  0.4778727E+02  0.7816164E-02  0.1312668E+00
        -11   -1    0    0    0    0  0.00000000000E+00  0.00000000000E+00  0.45593999997E+02  0.45594000000E+02  0.51100000000E-03 0.  1.
         11   -1    0    0    0    0 -0.00000000000E+00 -0.00000000000E+00 -0.45593999997E+02  0.45594000000E+02  0.51100000000E-03 0. -1.
    9900012    2    1    2    0    0 -0.29075580205E+02 -0.15401314842E+01  0.32184810185E+02  0.47787269870E+02  0.19999994643E+02 0.  0.
         12    1    1    2    0    0  0.29075580205E+02  0.15401314842E+01 -0.32184810185E+02  0.43400730130E+02  0.00000000000E+00 0. -1.
         11    1    3    3    0    0 -0.83252559219E+01  0.69787930325E+01  0.66884531052E+01  0.12757305498E+02  0.51100000000E-03 0. -1.
        -11    1    3    3    0    0 -0.13278888511E+02 -0.22726703142E+01  0.10204523502E+02  0.16900479597E+02  0.51100000000E-03 0.  1.
         12    1    3    3    0    0 -0.74714357723E+01 -0.62462542025E+01  0.15291833577E+02  0.18129484775E+02  0.00000000000E+00 0. -1.
</event>
<event>
 7    1  0.5317846E-010  0.4778726E+02  0.7816164E-02  0.1312668E+00
        -11   -1    0    0    0    0  0.00000000000E+00  0.00000000000E+00  0.45593999997E+02  0.45594000000E+02  0.51100000000E-03 0.  1.
         11   -1    0    0    0    0 -0.00000000000E+00 -0.00000000000E+00 -0.45593999997E+02  0.45594000000E+02  0.51100000000E-03 0. -1.
    9900012    2    1    2    0    0 -0.41980269644E+02  0.68772614798E+01  0.86014117243E+01  0.47787262120E+02  0.19999959312E+02 0.  0.
         12    1    1    2    0    0  0.41980269644E+02 -0.68772614798E+01 -0.86014117243E+01  0.43400737880E+02  0.00000000000E+00 0. -1.
         11    1    3    3    0    0 -0.27858507292E+02  0.94077004094E+01  0.34927123953E+01  0.29610813830E+02  0.51100000000E-03 0. -1.
        -11    1    3    3    0    0 -0.14426783777E+01  0.12853201598E+00  0.50163073787E+01  0.52212241246E+01  0.51100000000E-03 0.  1.
        -12    1    3    3    0    0 -0.12679083974E+02 -0.26589709455E+01  0.92391950353E-01  0.12955224166E+02  0.00000000000E+00 0.  1.
</event>
<event>
 7    1  0.5317846E-010  0.4778727E+02  0.7816164E-02  0.1312668E+00
        -11   -1    0    0    0    0  0.00000000000E+00  0.00000000000E+00  0.45593999997E+02  0.45594000000E+02  0.51100000000E-03 0.  1.
         11   -1    0    0    0    0 -0.00000000000E+00 -0.00000000000E+00 -0.45593999997E+02  0.45594000000E+02  0.51100000000E-03 0. -1.
    9900012    2    1    2    0    0  0.10931999319E+02 -0.60724571504E+00  0.41996973054E+02  0.47787273022E+02  0.20000009017E+02 0.  0.
         12    1    1    2    0    0 -0.10931999319E+02  0.60724571504E+00 -0.41996973054E+02  0.43400726978E+02  0.00000000000E+00 0. -1.
         11    1    3    3    0    0  0.66004173238E+01 -0.16038539277E+01  0.33971944783E+01  0.75946551504E+01  0.51100000000E-03 0. -1.
        -11    1    3    3    0    0  0.57077731962E+01 -0.19081403008E+01  0.34301364505E+02  0.34825325288E+02  0.51100000000E-03 0.  1.
         12    1    3    3    0    0 -0.13761912006E+01  0.29047485135E+01  0.42984140713E+01  0.53672925834E+01  0.00000000000E+00 0. -1.
</event>
<event>
 7    1  0.5317846E-010  0.4778727E+02  0.7816164E-02  0.1312668E+00
        -11   -1    0    0    0    0  0.00000000000E+00  0.00000000000E+00  0.45593999997E+02  0.45594000000E+02  0.51100000000E-03 0.  1.
         11   -1    0    0    0    0 -0.00000000000E+00 -0.00000000000E+00 -0.45593999997E+02  0.45594000000E+02  0.51100000000E-03 0. -1.
    9900012    2    1    2    0    0 -0.22666092271E+02 -0.31369735044E+02  0.19642081270E+02  0.47787269912E+02  0.19999994838E+02 0.  0.
         12    1    1    2    0    0  0.22666092271E+02  0.31369735044E+02 -0.19642081270E+02  0.43400730088E+02  0.00000000000E+00 0. -1.
         11    1    3    3    0    0 -0.20251983927E+02 -0.24919644414E+02  0.79712756012E+01  0.33085839353E+02  0.51100000000E-03 0.  1.
        -11    1    3    3    0    0  0.13204395298E+01 -0.10183272844E+01  0.52143038722E+01  0.54744420850E+01  0.51100000000E-03 0. -1.
         12    1    3    3    0    0 -0.37345478737E+01 -0.54317633448E+01  0.64565017963E+01  0.92269884740E+01  0.00000000000E+00 0. -1.
</event>
<event>
 7    1  0.5317846E-010  0.4778727E+02  0.7816164E-02  0.1312668E+00
        -11   -1    0    0    0    0  0.00000000000E+00  0.00000000000E+00  0.45593999997E+02  0.45594000000E+02  0.51100000000E-03 0.  1.
         11   -1    0    0    0    0 -0.00000000000E+00 -0.00000000000E+00 -0.45593999997E+02  0.45594000000E+02  0.51100000000E-03 0. -1.
    9900012    2    1    2    0    0  0.38304461230E+02 -0.17623393716E+01 -0.20329425937E+02  0.47787272481E+02  0.20000006551E+02 0.  0.
         12    1    1    2    0    0 -0.38304461230E+02  0.17623393716E+01  0.20329425937E+02  0.43400727519E+02  0.00000000000E+00 0. -1.
         11    1    3    3    0    0  0.30949747561E+02  0.22143874060E+01 -0.19683986456E+02  0.36745744090E+02  0.51100000000E-03 0.  1.
        -11    1    3    3    0    0  0.10995434324E+01  0.94648519110E+00 -0.24794902596E+01  0.28727516748E+01  0.51100000000E-03 0. -1.
         12    1    3    3    0    0  0.62551702375E+01 -0.49232119687E+01  0.18340507787E+01  0.81687767167E+01  0.00000000000E+00 0. -1.
</event>
<event>
 7    1  0.5317846E-010  0.4778727E+02  0.7816164E-02  0.1312668E+00
        -11   -1    0    0    0    0  0.00000000000E+00  0.00000000000E+00  0.45593999997E+02  0.45594000000E+02  0.51100000000E-03 0.  1.
         11   -1    0    0    0    0 -0.00000000000E+00 -0.00000000000E+00 -0.45593999997E+02  0.45594000000E+02  0.51100000000E-03 0. -1.
    9900012    2    1    2    0    0  0.10463712148E+02 -0.35262676724E+02  0.23036442082E+02  0.47787270680E+02  0.19999998339E+02 0.  0.
         12    1    1    2    0    0 -0.10463712148E+02  0.35262676724E+02 -0.23036442082E+02  0.43400729320E+02  0.00000000000E+00 0. -1.
         11    1    3    3    0    0  0.55728224585E+01 -0.12732924314E+01  0.78072656886E+01  0.96763123949E+01  0.51100000000E-03 0. -1.
        -11    1    3    3    0    0  0.11198747130E+01 -0.33705609071E+01  0.38268006194E+01  0.52210347100E+01  0.51100000000E-03 0.  1.
         12    1    3    3    0    0  0.37710149767E+01 -0.30618823386E+02  0.11402375774E+02  0.32889923575E+02  0.00000000000E+00 0. -1.
</event>
<event>
 7    1  0.5317846E-010  0.4778725E+02  0.7816164E-02  0.1312668E+00
        -11   -1    0    0    0    0  0.00000000000E+00  0.00000000000E+00  0.45593999997E+02  0.45594000000E+02  0.51100000000E-03 0.  1.
         11   -1    0    0    0    0 -0.00000000000E+00 -0.00000000000E+00 -0.45593999997E+02  0.45594000000E+02  0.51100000000E-03 0. -1.
    9900012    2    1    2    0    0  0.15674011527E+02  0.30239187773E+02  0.26898728786E+02  0.47787254329E+02  0.19999923786E+02 0.  0.
         12    1    1    2    0    0 -0.15674011527E+02 -0.30239187773E+02 -0.26898728786E+02  0.43400745671E+02  0.00000000000E+00 0. -1.
         11    1    3    3    0    0 -0.28119244319E+01 -0.23626169655E+00  0.12978906507E+00  0.28248157573E+01  0.51100000000E-03 0. -1.
        -11    1    3    3    0    0  0.14099633932E+02  0.25426475788E+02  0.19099762418E+02  0.34786581790E+02  0.51100000000E-03 0.  1.
        -12    1    3    3    0    0  0.43863020277E+01  0.50489736819E+01  0.76691773032E+01  0.10175856781E+02  0.00000000000E+00 0.  1.
</event>
<event>
 7    1  0.5317846E-010  0.4778727E+02  0.7816164E-02  0.1312668E+00
        -11   -1    0    0    0    0  0.00000000000E+00  0.00000000000E+00  0.45593999997E+02  0.45594000000E+02  0.51100000000E-03 0.  1.
         11   -1    0    0    0    0 -0.00000000000E+00 -0.00000000000E+00 -0.45593999997E+02  0.45594000000E+02  0.51100000000E-03 0. -1.
    9900012    2    1    2    0    0 -0.31419732910E+02  0.23802463133E+02  0.18162230033E+02  0.47787268819E+02  0.19999989852E+02 0.  0.
         12    1    1    2    0    0  0.31419732910E+02 -0.23802463133E+02 -0.18162230033E+02  0.43400731181E+02  0.00000000000E+00 0. -1.
         11    1    3    3    0    0 -0.64044723508E+01 -0.13966157274E+01  0.73355077278E+01  0.98375543438E+01  0.51100000000E-03 0. -1.
        -11    1    3    3    0    0 -0.23105205246E+02  0.20486224024E+02  0.72111709103E+01  0.31710201362E+02  0.51100000000E-03 0.  1.
         12    1    3    3    0    0 -0.19100553126E+01  0.47128548362E+01  0.36155513945E+01  0.62395131133E+01  0.00000000000E+00 0. -1.
</event>
<event>
 7    1  0.5317846E-010  0.4778728E+02  0.7816164E-02  0.1312668E+00
        -11   -1    0    0    0    0  0.00000000000E+00  0.00000000000E+00  0.45593999997E+02  0.45594000000E+02  0.51100000000E-03 0.  1.
         11   -1    0    0    0    0 -0.00000000000E+00 -0.00000000000E+00 -0.45593999997E+02  0.45594000000E+02  0.51100000000E-03 0. -1.
    9900012    2    1    2    0    0 -0.13331459127E+01  0.24684888391E+02  0.35672142908E+02  0.47787276820E+02  0.20000026334E+02 0.  0.
         12    1    1    2    0    0  0.13331459127E+01 -0.24684888391E+02 -0.35672142908E+02  0.43400723180E+02  0.00000000000E+00 0. -1.
         11    1    3    3    0    0  0.54675189746E+00 -0.20882304940E+01  0.33445130085E+00  0.21843768373E+01  0.51100000000E-03 0. -1.
        -11    1    3    3    0    0 -0.56495795109E+01  0.17633472037E+02  0.19172619973E+02  0.26654201200E+02  0.51100000000E-03 0.  1.
         12    1    3    3    0    0  0.37696817007E+01  0.91396468477E+01  0.16165071634E+02  0.18948698783E+02  0.00000000000E+00 0. -1.
</event>
<event>
 7    1  0.5317846E-010  0.4778727E+02  0.7816164E-02  0.1312668E+00
        -11   -1    0    0    0    0  0.00000000000E+00  0.00000000000E+00  0.45593999997E+02  0.45594000000E+02  0.51100000000E-03 0.  1.
         11   -1    0    0    0    0 -0.00000000000E+00 -0.00000000000E+00 -0.45593999997E+02  0.45594000000E+02  0.51100000000E-03 0. -1.
    9900012    2    1    2    0    0 -0.15316845015E+02  0.15051935739E+01  0.40580192153E+02  0.47787270236E+02  0.19999996312E+02 0.  0.
         12    1    1    2    0    0  0.15316845015E+02 -0.15051935739E+01 -0.40580192153E+02  0.43400729764E+02  0.00000000000E+00 0. -1.
         11    1    3    3    0    0 -0.64971870158E+01 -0.21655415947E+01  0.94151393765E+00  0.69129919913E+01  0.51100000000E-03 0. -1.
        -11    1    3    3    0    0 -0.47709368600E+01  0.19812562225E+01  0.27158849035E+02  0.27645800692E+02  0.51100000000E-03 0.  1.
         12    1    3    3    0    0 -0.40487211394E+01  0.16894789461E+01  0.12479829180E+02  0.13228477552E+02  0.00000000000E+00 0. -1.
</event>
<event>
 7    1  0.5317846E-010  0.4778727E+02  0.7816164E-02  0.1312668E+00
        -11   -1    0    0    0    0  0.00000000000E+00  0.00000000000E+00  0.45593999997E+02  0.45594000000E+02  0.51100000000E-03 0.  1.
         11   -1    0    0    0    0 -0.00000000000E+00 -0.00000000000E+00 -0.45593999997E+02  0.45594000000E+02  0.51100000000E-03 0. -1.
    9900012    2    1    2    0    0 -0.29924951849E+02  0.63468367818E+01  0.30786984974E+02  0.47787268162E+02  0.19999986858E+02 0.  0.
         12    1    1    2    0    0  0.29924951849E+02 -0.63468367818E+01 -0.30786984974E+02  0.43400731838E+02  0.00000000000E+00 0. -1.
         11    1    3    3    0    0 -0.41296390409E+01 -0.41622176519E+01  0.66490677447E+01  0.88649916257E+01  0.51100000000E-03 0. -1.
        -11    1    3    3    0    0 -0.18356621980E+02  0.88587302748E+01  0.23744066061E+02  0.31292544575E+02  0.51100000000E-03 0.  1.
        -12    1    3    3    0    0 -0.74386908280E+01  0.16503241589E+01  0.39385116831E+00  0.76297319616E+01  0.00000000000E+00 0.  1.
</event>
<event>
 7    1  0.5317846E-010  0.4778729E+02  0.7816164E-02  0.1312668E+00
        -11   -1    0    0    0    0  0.00000000000E+00  0.00000000000E+00  0.45593999997E+02  0.45594000000E+02  0.51100000000E-03 0.  1.
         11   -1    0    0    0    0 -0.00000000000E+00 -0.00000000000E+00 -0.45593999997E+02  0.45594000000E+02  0.51100000000E-03 0. -1.
    9900012    2    1    2    0    0 -0.25080222363E+01  0.18433297090E+02  0.39211542506E+02  0.47787289374E+02  0.20000083571E+02 0.  0.
         12    1    1    2    0    0  0.25080222363E+01 -0.18433297090E+02 -0.39211542506E+02  0.43400710626E+02  0.00000000000E+00 0. -1.
         11    1    3    3    0    0  0.13075777593E+01  0.15947509195E+01 -0.13462428130E+01  0.24627951731E+01  0.51100000000E-03 0. -1.
        -11    1    3    3    0    0 -0.49858222023E+01  0.62053799889E+01  0.26435872977E+02  0.27608341930E+02  0.51100000000E-03 0.  1.
         12    1    3    3    0    0  0.11702222067E+01  0.10633166182E+02  0.14121912342E+02  0.17716152270E+02  0.00000000000E+00 0. -1.
</event>
<event>
 7    1  0.5317846E-010  0.4778728E+02  0.7816164E-02  0.1312668E+00
        -11   -1    0    0    0    0  0.00000000000E+00  0.00000000000E+00  0.45593999997E+02  0.45594000000E+02  0.51100000000E-03 0. -1.
         11   -1    0    0    0    0 -0.00000000000E+00 -0.00000000000E+00 -0.45593999997E+02  0.45594000000E+02  0.51100000000E-03 0.  1.
    9900012    2    1    2    0    0  0.41925034387E+01  0.42024969264E+02  0.99973876442E+01  0.47787275508E+02  0.20000020351E+02 0.  0.
         12    1    1    2    0    0 -0.41925034387E+01 -0.42024969264E+02 -0.99973876442E+01  0.43400724492E+02  0.00000000000E+00 0. -1.
         11    1    3    3    0    0  0.29580280976E+01  0.72056094212E+00 -0.71621336553E+00  0.31276349122E+01  0.51100000000E-03 0. -1.
        -11    1    3    3    0    0 -0.10229993904E+01  0.36033580238E+02  0.13228188189E+02  0.38398572833E+02  0.51100000000E-03 0.  1.
        -12    1    3    3    0    0  0.22574747315E+01  0.52708280836E+01 -0.25145871797E+01  0.62610677631E+01  0.00000000000E+00 0.  1.
</event>
<event>
 7    1  0.5317846E-010  0.4778727E+02  0.7816164E-02  0.1312668E+00
        -11   -1    0    0    0    0  0.00000000000E+00  0.00000000000E+00  0.45593999997E+02  0.45594000000E+02  0.51100000000E-03 0. -1.
         11   -1    0    0    0    0 -0.00000000000E+00 -0.00000000000E+00 -0.45593999997E+02  0.45594000000E+02  0.51100000000E-03 0.  1.
    9900012    2    1    2    0    0  0.38229971907E+02 -0.87565091014E+01 -0.18585379105E+02  0.47787268208E+02  0.19999987066E+02 0.  0.
         12    1    1    2    0    0 -0.38229971907E+02  0.87565091014E+01  0.18585379105E+02  0.43400731792E+02  0.00000000000E+00 0. -1.
         11    1    3    3    0    0  0.19716397392E+02 -0.13275557749E+02 -0.69146171998E+01  0.24754569092E+02  0.51100000000E-03 0. -1.
        -11    1    3    3    0    0  0.70141690451E+01 -0.93216111818E+00 -0.50012730344E+01  0.86648845329E+01  0.51100000000E-03 0.  1.
         12    1    3    3    0    0  0.11499405470E+02  0.54512097659E+01 -0.66694888707E+01  0.14367814582E+02  0.00000000000E+00 0. -1.
</event>
<event>
 7    1  0.5317846E-010  0.4778726E+02  0.7816164E-02  0.1312668E+00
        -11   -1    0    0    0    0  0.00000000000E+00  0.00000000000E+00  0.45593999997E+02  0.45594000000E+02  0.51100000000E-03 0. -1.
         11   -1    0    0    0    0 -0.00000000000E+00 -0.00000000000E+00 -0.45593999997E+02  0.45594000000E+02  0.51100000000E-03 0.  1.
    9900012    2    1    2    0    0  0.38058992323E+02  0.20022188129E+02  0.58523248512E+01  0.47787255533E+02  0.19999929278E+02 0.  0.
         12    1    1    2    0    0 -0.38058992323E+02 -0.20022188129E+02 -0.58523248512E+01  0.43400744467E+02  0.00000000000E+00 0. -1.
         11    1    3    3    0    0  0.77424462773E+01  0.60949871616E+01 -0.16213789911E+00  0.98549800515E+01  0.51100000000E-03 0. -1.
        -11    1    3    3    0    0  0.20951355637E+02  0.11393651928E+02 -0.37793722137E+01  0.24146599385E+02  0.51100000000E-03 0.  1.
        -12    1    3    3    0    0  0.93651904086E+01  0.25335490393E+01  0.97938349640E+01  0.13785676096E+02  0.00000000000E+00 0.  1.
</event>
<event>
 7    1  0.5317846E-010  0.4778727E+02  0.7816164E-02  0.1312668E+00
        -11   -1    0    0    0    0  0.00000000000E+00  0.00000000000E+00  0.45593999997E+02  0.45594000000E+02  0.51100000000E-03 0. -1.
         11   -1    0    0    0    0 -0.00000000000E+00 -0.00000000000E+00 -0.45593999997E+02  0.45594000000E+02  0.51100000000E-03 0.  1.
    9900012    2    1    2    0    0  0.36718812552E+02  0.22982258457E+02  0.26772326040E+01  0.47787274506E+02  0.20000015782E+02 0.  0.
         12    1    1    2    0    0 -0.36718812552E+02 -0.22982258457E+02 -0.26772326040E+01  0.43400725494E+02  0.00000000000E+00 0. -1.
         11    1    3    3    0    0  0.79916156973E+01 -0.12849799255E+01  0.12618832833E+01  0.81920354336E+01  0.51100000000E-03 0. -1.
        -11    1    3    3    0    0  0.21175481583E+02  0.15544544211E+02 -0.44655928495E+01  0.26645363476E+02  0.51100000000E-03 0.  1.
        -12    1    3    3    0    0  0.75517152712E+01  0.87226941713E+01  0.58809421702E+01  0.12949875596E+02  0.00000000000E+00 0.  1.
</event>
<event>
 7    1  0.5317846E-010  0.4778729E+02  0.7816164E-02  0.1312668E+00
        -11   -1    0    0    0    0  0.00000000000E+00  0.00000000000E+00  0.45593999997E+02  0.45594000000E+02  0.51100000000E-03 0.  1.
         11   -1    0    0    0    0 -0.00000000000E+00 -0.00000000000E+00 -0.45593999997E+02  0.45594000000E+02  0.51100000000E-03 0. -1.
    9900012    2    1    2    0    0  0.27407874116E+02  0.33321694940E+02 -0.47005396743E+01  0.47787285830E+02  0.20000067415E+02 0.  0.
         12    1    1    2    0    0 -0.27407874116E+02 -0.33321694940E+02  0.47005396743E+01  0.43400714170E+02  0.00000000000E+00 0. -1.
         11    1    3    3    0    0  0.15467963217E+02  0.86393896310E+01  0.13575177651E+01  0.17769068463E+02  0.51100000000E-03 0. -1.
        -11    1    3    3    0    0  0.10244912945E+01  0.14216974584E+02 -0.23223133664E+01  0.14441782728E+02  0.51100000000E-03 0.  1.
        -12    1    3    3    0    0  0.10915419604E+02  0.10465330725E+02 -0.37357440729E+01  0.15576434640E+02  0.00000000000E+00 0.  1.
</event>
<event>
 7    1  0.5394604E-010  0.4778728E+02  0.7816164E-02  0.1312668E+00
        -11   -1    0    0    0    0  0.00000000000E+00  0.00000000000E+00  0.45593999997E+02  0.45594000000E+02  0.51100000000E-03 0.  1.
         11   -1    0    0    0    0 -0.00000000000E+00 -0.00000000000E+00 -0.45593999997E+02  0.45594000000E+02  0.51100000000E-03 0. -1.
    9900012    2    1    2    0    0 -0.27839200483E+02 -0.24227144177E+02 -0.22839595640E+02  0.47787277339E+02  0.20000028698E+02 0.  0.
         12    1    1    2    0    0  0.27839200483E+02  0.24227144177E+02  0.22839595640E+02  0.43400722661E+02  0.00000000000E+00 0. -1.
         11    1    3    3    0    0 -0.48765918762E+01  0.23895624188E+00 -0.43888464068E+01  0.65650758912E+01  0.51100000000E-03 0. -1.
        -11    1    3    3    0    0 -0.24382368753E+02 -0.20457944152E+02 -0.18782904368E+02  0.36957068089E+02  0.51100000000E-03 0.  1.
        -12    1    3    3    0    0  0.14197601464E+01 -0.40081562673E+01  0.33215513490E+00  0.42651333590E+01  0.00000000000E+00 0.  1.
</event>
<event>
 7    1  0.5317846E-010  0.4778727E+02  0.7816164E-02  0.1312668E+00
        -11   -1    0    0    0    0  0.00000000000E+00  0.00000000000E+00  0.45593999997E+02  0.45594000000E+02  0.51100000000E-03 0.  1.
         11   -1    0    0    0    0 -0.00000000000E+00 -0.00000000000E+00 -0.45593999997E+02  0.45594000000E+02  0.51100000000E-03 0. -1.
    9900012    2    1    2    0    0 -0.26329522806E+02  0.88799504655E+01  0.33339554697E+02  0.47787271908E+02  0.20000003939E+02 0.  0.
         12    1    1    2    0    0  0.26329522806E+02 -0.88799504655E+01 -0.33339554697E+02  0.43400728092E+02  0.00000000000E+00 0. -1.
         11    1    3    3    0    0 -0.16324243895E+02  0.13864812836E+02  0.19405978165E+02  0.28901660204E+02  0.51100000000E-03 0. -1.
        -11    1    3    3    0    0 -0.99086740432E+01 -0.54220415953E+01  0.14358231767E+02  0.18268529665E+02  0.51100000000E-03 0.  1.
         12    1    3    3    0    0 -0.96604868085E-01  0.43717922463E+00 -0.42465523547E+00  0.61708203993E+00  0.00000000000E+00 0. -1.
</event>
<event>
 7    1  0.5317846E-010  0.4778727E+02  0.7816164E-02  0.1312668E+00
        -11   -1    0    0    0    0  0.00000000000E+00  0.00000000000E+00  0.45593999997E+02  0.45594000000E+02  0.51100000000E-03 0.  1.
         11   -1    0    0    0    0 -0.00000000000E+00 -0.00000000000E+00 -0.45593999997E+02  0.45594000000E+02  0.51100000000E-03 0. -1.
    9900012    2    1    2    0    0  0.12121392539E+02 -0.40497526443E+02  0.98308404613E+01  0.47787271558E+02  0.20000002344E+02 0.  0.
         12    1    1    2    0    0 -0.12121392539E+02  0.40497526443E+02 -0.98308404613E+01  0.43400728442E+02  0.00000000000E+00 0. -1.
         11    1    3    3    0    0 -0.47759723511E+01 -0.58793828264E+01  0.43061235899E+01  0.87131943023E+01  0.51100000000E-03 0. -1.
        -11    1    3    3    0    0  0.24732689426E+01 -0.32944368143E+01  0.13605349214E+01  0.43383670568E+01  0.51100000000E-03 0.  1.
         12    1    3    3    0    0  0.14424095948E+02 -0.31323706802E+02  0.41641819500E+01  0.34735710199E+02  0.00000000000E+00 0. -1.
</event>
<event>
 7    1  0.5317846E-010  0.4778727E+02  0.7816164E-02  0.1312668E+00
        -11   -1    0    0    0    0  0.00000000000E+00  0.00000000000E+00  0.45593999997E+02  0.45594000000E+02  0.51100000000E-03 0.  1.
         11   -1    0    0    0    0 -0.00000000000E+00 -0.00000000000E+00 -0.45593999997E+02  0.45594000000E+02  0.51100000000E-03 0. -1.
    9900012    2    1    2    0    0  0.48159533432E+00  0.39439447454E+02  0.18108602605E+02  0.47787269156E+02  0.19999991388E+02 0.  0.
         12    1    1    2    0    0 -0.48159533432E+00 -0.39439447454E+02 -0.18108602605E+02  0.43400730844E+02  0.00000000000E+00 0. -1.
         11    1    3    3    0    0  0.15129527365E+01  0.65142275607E+01  0.79847660049E+01  0.10415405662E+02  0.51100000000E-03 0. -1.
        -11    1    3    3    0    0  0.22111138538E+01  0.11815887164E+02 -0.28884193263E+01  0.12363137968E+02  0.51100000000E-03 0.  1.
        -12    1    3    3    0    0 -0.32424712560E+01  0.21109332729E+02  0.13012255927E+02  0.25008725526E+02  0.00000000000E+00 0.  1.
</event>
<event>
 7    1  0.5317846E-010  0.4778727E+02  0.7816164E-02  0.1312668E+00
        -11   -1    0    0    0    0  0.00000000000E+00  0.00000000000E+00  0.45593999997E+02  0.45594000000E+02  0.51100000000E-03 0.  1.
         11   -1    0    0    0    0 -0.00000000000E+00 -0.00000000000E+00 -0.45593999997E+02  0.45594000000E+02  0.51100000000E-03 0. -1.
    9900012    2    1    2    0    0  0.94902490702E+01  0.27415770674E+02  0.32279007175E+02  0.47787267135E+02  0.19999982174E+02 0.  0.
         12    1    1    2    0    0 -0.94902490702E+01 -0.27415770674E+02 -0.32279007175E+02  0.43400732865E+02  0.00000000000E+00 0. -1.
         11    1    3    3    0    0  0.45640753568E+01  0.58875346548E+01  0.48310611237E+00  0.74650679803E+01  0.51100000000E-03 0. -1.
        -11    1    3    3    0    0  0.40138372791E+01  0.18971779227E+02  0.32189643809E+02  0.37579415449E+02  0.51100000000E-03 0.  1.
        -12    1    3    3    0    0  0.91233643435E+00  0.25564567926E+01 -0.39374274642E+00  0.27427837050E+01  0.00000000000E+00 0.  1.
</event>
<event>
 7    1  0.5317846E-010  0.4778727E+02  0.7816164E-02  0.1312668E+00
        -11   -1    0    0    0    0  0.00000000000E+00  0.00000000000E+00  0.45593999997E+02  0.45594000000E+02  0.51100000000E-03 0.  1.
         11   -1    0    0    0    0 -0.00000000000E+00 -0.00000000000E+00 -0.45593999997E+02  0.45594000000E+02  0.51100000000E-03 0. -1.
    9900012    2    1    2    0    0 -0.24540905705E+02 -0.23240539861E+02  0.27225804761E+02  0.47787272002E+02  0.20000004367E+02 0.  0.
         12    1    1    2    0    0  0.24540905705E+02  0.23240539861E+02 -0.27225804761E+02  0.43400727998E+02  0.00000000000E+00 0. -1.
         11    1    3    3    0    0  0.22314901413E+01 -0.38260480656E+01  0.86634599730E+00  0.45131749024E+01  0.51100000000E-03 0. -1.
        -11    1    3    3    0    0 -0.20221505818E+02 -0.18844011756E+02  0.22568288809E+02  0.35683802161E+02  0.51100000000E-03 0.  1.
        -12    1    3    3    0    0 -0.65508900285E+01 -0.57048003965E+00  0.37911699545E+01  0.75902949393E+01  0.00000000000E+00 0.  1.
</event>
<event>
 7    1  0.5317846E-010  0.4778727E+02  0.7816164E-02  0.1312668E+00
        -11   -1    0    0    0    0  0.00000000000E+00  0.00000000000E+00  0.45593999997E+02  0.45594000000E+02  0.51100000000E-03 0. -1.
         11   -1    0    0    0    0 -0.00000000000E+00 -0.00000000000E+00 -0.45593999997E+02  0.45594000000E+02  0.51100000000E-03 0.  1.
    9900012    2    1    2    0    0  0.30615262773E+02  0.13643625601E+02 -0.27571366987E+02  0.47787272912E+02  0.20000008515E+02 0.  0.
         12    1    1    2    0    0 -0.30615262773E+02 -0.13643625601E+02  0.27571366987E+02  0.43400727088E+02  0.00000000000E+00 0. -1.
         11    1    3    3    0    0  0.48351117779E+01 -0.15204277519E+01  0.15202798307E+00  0.50708105094E+01  0.51100000000E-03 0. -1.
        -11    1    3    3    0    0  0.17145382621E+02  0.45743052793E+01 -0.20983142874E+02  0.27480551289E+02  0.51100000000E-03 0.  1.
        -12    1    3    3    0    0  0.86347683744E+01  0.10589748074E+02 -0.67402520964E+01  0.15235911114E+02  0.00000000000E+00 0.  1.
</event>
<event>
 7    1  0.5317846E-010  0.4778727E+02  0.7816164E-02  0.1312668E+00
        -11   -1    0    0    0    0  0.00000000000E+00  0.00000000000E+00  0.45593999997E+02  0.45594000000E+02  0.51100000000E-03 0. -1.
         11   -1    0    0    0    0 -0.00000000000E+00 -0.00000000000E+00 -0.45593999997E+02  0.45594000000E+02  0.51100000000E-03 0.  1.
    9900012    2    1    2    0    0 -0.40030395364E+02 -0.74937831717E+01 -0.15001126508E+02  0.47787272636E+02  0.20000007257E+02 0.  0.
         12    1    1    2    0    0  0.40030395364E+02  0.74937831717E+01  0.15001126508E+02  0.43400727364E+02  0.00000000000E+00 0. -1.
         11    1    3    3    0    0  0.84158400456E+00  0.12046886942E+01  0.12698543935E+01  0.19421814870E+01  0.51100000000E-03 0. -1.
        -11    1    3    3    0    0 -0.15964272312E+02 -0.34336711889E+01 -0.11426521805E+02  0.19930215481E+02  0.51100000000E-03 0.  1.
         12    1    3    3    0    0 -0.24907707056E+02 -0.52648006770E+01 -0.48444590971E+01  0.25914875668E+02  0.00000000000E+00 0. -1.
</event>
<event>
 7    1  0.5317846E-010  0.4778726E+02  0.7816164E-02  0.1312668E+00
        -11   -1    0    0    0    0  0.00000000000E+00  0.00000000000E+00  0.45593999997E+02  0.45594000000E+02  0.51100000000E-03 0.  1.
         11   -1    0    0    0    0 -0.00000000000E+00 -0.00000000000E+00 -0.45593999997E+02  0.45594000000E+02  0.51100000000E-03 0. -1.
    9900012    2    1    2    0    0 -0.53028054574E+01 -0.29471327844E+02  0.31415680971E+02  0.47787263584E+02  0.19999965986E+02 0.  0.
         12    1    1    2    0    0  0.53028054574E+01  0.29471327844E+02 -0.31415680971E+02  0.43400736416E+02  0.00000000000E+00 0. -1.
         11    1    3    3    0    0 -0.45556853343E+00 -0.93884100244E+00 -0.81780768751E+00  0.13258109938E+01  0.51100000000E-03 0. -1.
        -11    1    3    3    0    0 -0.23044456805E+00 -0.24442717554E+02  0.16311162757E+02  0.29386282120E+02  0.51100000000E-03 0.  1.
        -12    1    3    3    0    0 -0.46167923559E+01 -0.40897692877E+01  0.15922325901E+02  0.17075170470E+02  0.00000000000E+00 0.  1.
</event>
<event>
 7    1  0.5317846E-010  0.4778727E+02  0.7816164E-02  0.1312668E+00
        -11   -1    0    0    0    0  0.00000000000E+00  0.00000000000E+00  0.45593999997E+02  0.45594000000E+02  0.51100000000E-03 0.  1.
         11   -1    0    0    0    0 -0.00000000000E+00 -0.00000000000E+00 -0.45593999997E+02  0.45594000000E+02  0.51100000000E-03 0. -1.
    9900012    2    1    2    0    0 -0.13786595742E+02  0.22495015870E+02  0.34460520765E+02  0.47787268986E+02  0.19999990616E+02 0.  0.
         12    1    1    2    0    0  0.13786595742E+02 -0.22495015870E+02 -0.34460520765E+02  0.43400731014E+02  0.00000000000E+00 0. -1.
         11    1    3    3    0    0 -0.11643575450E+01 -0.27145811931E+01  0.44166128635E+01  0.53132992569E+01  0.51100000000E-03 0. -1.
        -11    1    3    3    0    0 -0.10324056437E+02  0.20769726129E+02  0.17763408181E+02  0.29214830742E+02  0.51100000000E-03 0.  1.
        -12    1    3    3    0    0 -0.22981817599E+01  0.44398709331E+01  0.12280499720E+02  0.13259138987E+02  0.00000000000E+00 0.  1.
</event>
<event>
 7    1  0.5317846E-010  0.4778727E+02  0.7816164E-02  0.1312668E+00
        -11   -1    0    0    0    0  0.00000000000E+00  0.00000000000E+00  0.45593999997E+02  0.45594000000E+02  0.51100000000E-03 0.  1.
         11   -1    0    0    0    0 -0.00000000000E+00 -0.00000000000E+00 -0.45593999997E+02  0.45594000000E+02  0.51100000000E-03 0. -1.
    9900012    2    1    2    0    0  0.93496340586E+01 -0.85759759956E+01  0.41504942171E+02  0.47787271366E+02  0.20000001466E+02 0.  0.
         12    1    1    2    0    0 -0.93496340586E+01  0.85759759956E+01 -0.41504942171E+02  0.43400728634E+02  0.00000000000E+00 0. -1.
         11    1    3    3    0    0  0.12323694501E+02 -0.60749115571E+01  0.24835251194E+02  0.28382524531E+02  0.51100000000E-03 0. -1.
        -11    1    3    3    0    0 -0.55261948340E+01 -0.27469451171E+01  0.66931098247E+01  0.91039692556E+01  0.51100000000E-03 0.  1.
        -12    1    3    3    0    0  0.25521343920E+01  0.24588067855E+00  0.99765811523E+01  0.10300777580E+02  0.00000000000E+00 0.  1.
</event>
<event>
 7    1  0.5317846E-010  0.4778727E+02  0.7816164E-02  0.1312668E+00
        -11   -1    0    0    0    0  0.00000000000E+00  0.00000000000E+00  0.45593999997E+02  0.45594000000E+02  0.51100000000E-03 0.  1.
         11   -1    0    0    0    0 -0.00000000000E+00 -0.00000000000E+00 -0.45593999997E+02  0.45594000000E+02  0.51100000000E-03 0. -1.
    9900012    2    1    2    0    0  0.81332450437E+01 -0.39285810613E+02  0.16555935167E+02  0.47787267521E+02  0.19999983934E+02 0.  0.
         12    1    1    2    0    0 -0.81332450437E+01  0.39285810613E+02 -0.16555935167E+02  0.43400732479E+02  0.00000000000E+00 0. -1.
         11    1    3    3    0    0  0.83566666245E+01 -0.39464421333E+01  0.30772325709E+01  0.97405155480E+01  0.51100000000E-03 0. -1.
        -11    1    3    3    0    0  0.15495707711E+00 -0.35125007644E+02  0.13168871497E+02  0.37512789159E+02  0.51100000000E-03 0.  1.
        -12    1    3    3    0    0 -0.37837865794E+00 -0.21436083569E+00  0.30983109894E+00  0.53396281381E+00  0.00000000000E+00 0.  1.
</event>
<event>
 7    1  0.5317846E-010  0.4778727E+02  0.7816164E-02  0.1312668E+00
        -11   -1    0    0    0    0  0.00000000000E+00  0.00000000000E+00  0.45593999997E+02  0.45594000000E+02  0.51100000000E-03 0. -1.
         11   -1    0    0    0    0 -0.00000000000E+00 -0.00000000000E+00 -0.45593999997E+02  0.45594000000E+02  0.51100000000E-03 0.  1.
    9900012    2    1    2    0    0 -0.15551082132E+02  0.15445972335E+02 -0.37459432906E+02  0.47787270392E+02  0.19999997025E+02 0.  0.
         12    1    1    2    0    0  0.15551082132E+02 -0.15445972335E+02  0.37459432906E+02  0.43400729608E+02  0.00000000000E+00 0. -1.
         11    1    3    3    0    0 -0.12251017267E+02  0.13378554169E+02 -0.21666091030E+02  0.28257612010E+02  0.51100000000E-03 0. -1.
        -11    1    3    3    0    0  0.20515524124E+01 -0.36658474227E+00  0.55470821088E+00  0.21566068567E+01  0.51100000000E-03 0.  1.
        -12    1    3    3    0    0 -0.53516172780E+01  0.24340029081E+01 -0.16348050088E+02  0.17373051526E+02  0.00000000000E+00 0.  1.
</event>
<event>
 7    1  0.5317846E-010  0.4778727E+02  0.7816164E-02  0.1312668E+00
        -11   -1    0    0    0    0  0.00000000000E+00  0.00000000000E+00  0.45593999997E+02  0.45594000000E+02  0.51100000000E-03 0.  1.
         11   -1    0    0    0    0 -0.00000000000E+00 -0.00000000000E+00 -0.45593999997E+02  0.45594000000E+02  0.51100000000E-03 0. -1.
    9900012    2    1    2    0    0 -0.72129450695E+01  0.22031740308E+02  0.36690586951E+02  0.47787270417E+02  0.19999997139E+02 0.  0.
         12    1    1    2    0    0  0.72129450695E+01 -0.22031740308E+02 -0.36690586951E+02  0.43400729583E+02  0.00000000000E+00 0. -1.
         11    1    3    3    0    0 -0.65790042959E+01  0.19598771666E+02  0.26935605062E+02  0.33954704662E+02  0.51100000000E-03 0. -1.
        -11    1    3    3    0    0 -0.66102940420E+00  0.60880789354E+01  0.55955757192E+01  0.82953078838E+01  0.51100000000E-03 0.  1.
         12    1    3    3    0    0  0.27088630542E-01 -0.36551102937E+01  0.41594061692E+01  0.55372578713E+01  0.00000000000E+00 0. -1.
</event>
<event>
 7    1  0.5317846E-010  0.4778727E+02  0.7816164E-02  0.1312668E+00
        -11   -1    0    0    0    0  0.00000000000E+00  0.00000000000E+00  0.45593999997E+02  0.45594000000E+02  0.51100000000E-03 0.  1.
         11   -1    0    0    0    0 -0.00000000000E+00 -0.00000000000E+00 -0.45593999997E+02  0.45594000000E+02  0.51100000000E-03 0. -1.
    9900012    2    1    2    0    0  0.43441536219E+01 -0.32726841843E+02  0.28172781932E+02  0.47787268560E+02  0.19999988673E+02 0.  0.
         12    1    1    2    0    0 -0.43441536219E+01  0.32726841843E+02 -0.28172781932E+02  0.43400731440E+02  0.00000000000E+00 0. -1.
         11    1    3    3    0    0 -0.35288049104E+01  0.96478749338E-01  0.70252385996E+01  0.78622992748E+01  0.51100000000E-03 0. -1.
        -11    1    3    3    0    0  0.67287553228E+01 -0.30389084973E+02  0.20024589344E+02  0.37010225781E+02  0.51100000000E-03 0.  1.
         12    1    3    3    0    0  0.11442032094E+01 -0.24342356195E+01  0.11229539882E+01  0.29147435042E+01  0.00000000000E+00 0. -1.
</event>
<event>
 7    1  0.5317846E-010  0.4778727E+02  0.7816164E-02  0.1312668E+00
        -11   -1    0    0    0    0  0.00000000000E+00  0.00000000000E+00  0.45593999997E+02  0.45594000000E+02  0.51100000000E-03 0. -1.
         11   -1    0    0    0    0 -0.00000000000E+00 -0.00000000000E+00 -0.45593999997E+02  0.45594000000E+02  0.51100000000E-03 0.  1.
    9900012    2    1    2    0    0  0.31652994774E+02 -0.19604005404E+02 -0.22302340631E+02  0.47787268397E+02  0.19999987932E+02 0.  0.
         12    1    1    2    0    0 -0.31652994774E+02  0.19604005404E+02  0.22302340631E+02  0.43400731603E+02  0.00000000000E+00 0. -1.
         11    1    3    3    0    0  0.79033076523E+01 -0.12478904929E+01 -0.92439382235E+00  0.80544401872E+01  0.51100000000E-03 0. -1.
        -11    1    3    3    0    0 -0.13088027979E+01  0.49649254201E+00 -0.31851792369E+01  0.34792005749E+01  0.51100000000E-03 0.  1.
        -12    1    3    3    0    0  0.25058489919E+02 -0.18852607453E+02 -0.18192767571E+02  0.36253627635E+02  0.00000000000E+00 0.  1.
</event>
<event>
 7    1  0.5317846E-010  0.4778727E+02  0.7816164E-02  0.1312668E+00
        -11   -1    0    0    0    0  0.00000000000E+00  0.00000000000E+00  0.45593999997E+02  0.45594000000E+02  0.51100000000E-03 0.  1.
         11   -1    0    0    0    0 -0.00000000000E+00 -0.00000000000E+00 -0.45593999997E+02  0.45594000000E+02  0.51100000000E-03 0. -1.
    9900012    2    1    2    0    0  0.20323104067E+02 -0.30446593664E+02  0.23315225998E+02  0.47787269729E+02  0.19999994004E+02 0.  0.
         12    1    1    2    0    0 -0.20323104067E+02  0.30446593664E+02 -0.23315225998E+02  0.43400730271E+02  0.00000000000E+00 0. -1.
         11    1    3    3    0    0  0.74527409741E+01 -0.13505882552E+02  0.16861759976E+02  0.22853252750E+02  0.51100000000E-03 0.  1.
        -11    1    3    3    0    0 -0.10245144724E+00 -0.41425126842E+01 -0.22761121405E+01  0.47277472833E+01  0.51100000000E-03 0. -1.
         12    1    3    3    0    0  0.12972814541E+02 -0.12798198428E+02  0.87295781629E+01  0.20206269696E+02  0.00000000000E+00 0. -1.
</event>
<event>
 7    1  0.5317846E-010  0.4778726E+02  0.7816164E-02  0.1312668E+00
        -11   -1    0    0    0    0  0.00000000000E+00  0.00000000000E+00  0.45593999997E+02  0.45594000000E+02  0.51100000000E-03 0. -1.
         11   -1    0    0    0    0 -0.00000000000E+00 -0.00000000000E+00 -0.45593999997E+02  0.45594000000E+02  0.51100000000E-03 0.  1.
    9900012    2    1    2    0    0 -0.12041443075E+01  0.23181782075E+01 -0.43322048759E+02  0.47787264725E+02  0.19999971187E+02 0.  0.
         12    1    1    2    0    0  0.12041443075E+01 -0.23181782075E+01  0.43322048759E+02  0.43400735275E+02  0.00000000000E+00 0. -1.
         11    1    3    3    0    0  0.19461775842E+01  0.47533217082E+01 -0.70339115190E+01  0.87096260522E+01  0.51100000000E-03 0. -1.
        -11    1    3    3    0    0 -0.64421021261E+01 -0.18516597889E+01 -0.34762582165E+02  0.35402915739E+02  0.51100000000E-03 0.  1.
        -12    1    3    3    0    0  0.32917802343E+01 -0.58348371182E+00 -0.15255550756E+01  0.36747229340E+01  0.00000000000E+00 0.  1.
</event>
<event>
 7    1  0.5317846E-010  0.4778727E+02  0.7816164E-02  0.1312668E+00
        -11   -1    0    0    0    0  0.00000000000E+00  0.00000000000E+00  0.45593999997E+02  0.45594000000E+02  0.51100000000E-03 0. -1.
         11   -1    0    0    0    0 -0.00000000000E+00 -0.00000000000E+00 -0.45593999997E+02  0.45594000000E+02  0.51100000000E-03 0.  1.
    9900012    2    1    2    0    0  0.28657572657E+01  0.42739894072E+01 -0.43094586492E+02  0.47787274948E+02  0.20000017798E+02 0.  0.
         12    1    1    2    0    0 -0.28657572657E+01 -0.42739894072E+01  0.43094586492E+02  0.43400725052E+02  0.00000000000E+00 0. -1.
         11    1    3    3    0    0  0.25997912979E+01 -0.31026116121E+01 -0.30657577525E-01  0.40479690904E+01  0.51100000000E-03 0. -1.
        -11    1    3    3    0    0 -0.32602473154E+00  0.25293247831E+01 -0.20154380833E+02  0.20315089047E+02  0.51100000000E-03 0.  1.
         12    1    3    3    0    0  0.59199069938E+00  0.48472762363E+01 -0.22909548081E+02  0.23424216810E+02  0.00000000000E+00 0. -1.
</event>
<event>
 7    1  0.5317846E-010  0.4778727E+02  0.7816164E-02  0.1312668E+00
        -11   -1    0    0    0    0  0.00000000000E+00  0.00000000000E+00  0.45593999997E+02  0.45594000000E+02  0.51100000000E-03 0. -1.
         11   -1    0    0    0    0 -0.00000000000E+00 -0.00000000000E+00 -0.45593999997E+02  0.45594000000E+02  0.51100000000E-03 0.  1.
    9900012    2    1    2    0    0 -0.25540114004E+02 -0.20919419998E+02 -0.28172745595E+02  0.47787272463E+02  0.20000006468E+02 0.  0.
         12    1    1    2    0    0  0.25540114004E+02  0.20919419998E+02  0.28172745595E+02  0.43400727537E+02  0.00000000000E+00 0. -1.
         11    1    3    3    0    0 -0.25788386523E+02 -0.19742007627E+02 -0.17492242731E+02  0.36888565987E+02  0.51100000000E-03 0. -1.
        -11    1    3    3    0    0  0.47967777874E+00 -0.15544986517E+01 -0.67450286812E+01  0.69384413956E+01  0.51100000000E-03 0.  1.
         12    1    3    3    0    0 -0.23140525967E+00  0.37708628094E+00 -0.39354741832E+01  0.39602650800E+01  0.00000000000E+00 0. -1.
</event>
<event>
 7    1  0.5317846E-010  0.4778729E+02  0.7816164E-02  0.1312668E+00
        -11   -1    0    0    0    0  0.00000000000E+00  0.00000000000E+00  0.45593999997E+02  0.45594000000E+02  0.51100000000E-03 0.  1.
         11   -1    0    0    0    0 -0.00000000000E+00 -0.00000000000E+00 -0.45593999997E+02  0.45594000000E+02  0.51100000000E-03 0. -1.
    9900012    2    1    2    0    0  0.30492330798E+02  0.20217250395E+02  0.23347422461E+02  0.47787290483E+02  0.20000088628E+02 0.  0.
         12    1    1    2    0    0 -0.30492330798E+02 -0.20217250395E+02 -0.23347422461E+02  0.43400709517E+02  0.00000000000E+00 0. -1.
         11    1    3    3    0    0  0.29773890258E+01  0.50851021090E+01  0.51387838251E+01  0.78185809666E+01  0.51100000000E-03 0. -1.
        -11    1    3    3    0    0 -0.90889445664E+00  0.65050732404E+00 -0.19393899544E+01  0.22384107238E+01  0.51100000000E-03 0.  1.
        -12    1    3    3    0    0  0.28423836229E+02  0.14481640962E+02  0.20148028590E+02  0.37730298793E+02  0.00000000000E+00 0.  1.
</event>
<event>
 7    1  0.5317846E-010  0.4778727E+02  0.7816164E-02  0.1312668E+00
        -11   -1    0    0    0    0  0.00000000000E+00  0.00000000000E+00  0.45593999997E+02  0.45594000000E+02  0.51100000000E-03 0. -1.
         11   -1    0    0    0    0 -0.00000000000E+00 -0.00000000000E+00 -0.45593999997E+02  0.45594000000E+02  0.51100000000E-03 0.  1.
    9900012    2    1    2    0    0 -0.23636413976E+02 -0.14406929941E+02 -0.33427290888E+02  0.47787268761E+02  0.19999989591E+02 0.  0.
         12    1    1    2    0    0  0.23636413976E+02  0.14406929941E+02  0.33427290888E+02  0.43400731239E+02  0.00000000000E+00 0. -1.
         11    1    3    3    0    0  0.85904305001E+00 -0.32899846338E+01 -0.27556871673E+01  0.43767300439E+01  0.51100000000E-03 0. -1.
        -11    1    3    3    0    0 -0.18920058183E+02 -0.69094879267E+01 -0.30340600893E+02  0.36417875939E+02  0.51100000000E-03 0.  1.
        -12    1    3    3    0    0 -0.55753988432E+01 -0.42074573803E+01 -0.33100282693E+00  0.69926627789E+01  0.00000000000E+00 0.  1.
</event>
<event>
 7    1  0.5317846E-010  0.4778728E+02  0.7816164E-02  0.1312668E+00
        -11   -1    0    0    0    0  0.00000000000E+00  0.00000000000E+00  0.45593999997E+02  0.45594000000E+02  0.51100000000E-03 0.  1.
         11   -1    0    0    0    0 -0.00000000000E+00 -0.00000000000E+00 -0.45593999997E+02  0.45594000000E+02  0.51100000000E-03 0. -1.
    9900012    2    1    2    0    0 -0.12920075087E+02  0.28878075581E+02  0.29711129461E+02  0.47787276465E+02  0.20000024717E+02 0.  0.
         12    1    1    2    0    0  0.12920075087E+02 -0.28878075581E+02 -0.29711129461E+02  0.43400723535E+02  0.00000000000E+00 0. -1.
         11    1    3    3    0    0 -0.48609073833E+01  0.92762141850E+00  0.35305515119E+00  0.49612045197E+01  0.51100000000E-03 0. -1.
        -11    1    3    3    0    0 -0.27439556637E+01  0.21798066019E+02  0.25973776835E+02  0.34019436476E+02  0.51100000000E-03 0.  1.
        -12    1    3    3    0    0 -0.53152120399E+01  0.61523881435E+01  0.33842974749E+01  0.88066354697E+01  0.00000000000E+00 0.  1.
</event>
<event>
 7    1  0.5317846E-010  0.4778727E+02  0.7816164E-02  0.1312668E+00
        -11   -1    0    0    0    0  0.00000000000E+00  0.00000000000E+00  0.45593999997E+02  0.45594000000E+02  0.51100000000E-03 0. -1.
         11   -1    0    0    0    0 -0.00000000000E+00 -0.00000000000E+00 -0.45593999997E+02  0.45594000000E+02  0.51100000000E-03 0.  1.
    9900012    2    1    2    0    0  0.26261367023E+02 -0.34553223306E+02  0.19666123903E+00  0.47787270578E+02  0.19999997871E+02 0.  0.
         12    1    1    2    0    0 -0.26261367023E+02  0.34553223306E+02 -0.19666123903E+00  0.43400729422E+02  0.00000000000E+00 0. -1.
         11    1    3    3    0    0  0.64614091503E+01 -0.12435853287E+01 -0.18198304815E+01  0.68270122249E+01  0.51100000000E-03 0. -1.
        -11    1    3    3    0    0  0.46586110932E+01 -0.19557888388E+02  0.36781739381E+01  0.20438752880E+02  0.51100000000E-03 0.  1.
        -12    1    3    3    0    0  0.15141346779E+02 -0.13751749590E+02 -0.16616822176E+01  0.20521505473E+02  0.00000000000E+00 0.  1.
</event>
<event>
 7    1  0.5317846E-010  0.4778727E+02  0.7816164E-02  0.1312668E+00
        -11   -1    0    0    0    0  0.00000000000E+00  0.00000000000E+00  0.45593999997E+02  0.45594000000E+02  0.51100000000E-03 0.  1.
         11   -1    0    0    0    0 -0.00000000000E+00 -0.00000000000E+00 -0.45593999997E+02  0.45594000000E+02  0.51100000000E-03 0. -1.
    9900012    2    1    2    0    0 -0.23649619287E+02 -0.15965118504E+01  0.36356159415E+02  0.47787266481E+02  0.19999979195E+02 0.  0.
         12    1    1    2    0    0  0.23649619287E+02  0.15965118504E+01 -0.36356159415E+02  0.43400733519E+02  0.00000000000E+00 0. -1.
         11    1    3    3    0    0 -0.77152439212E+00  0.20800059028E+01 -0.45228136842E+00  0.22641186233E+01  0.51100000000E-03 0. -1.
        -11    1    3    3    0    0 -0.20181732505E+02 -0.70848000514E+01  0.24784199548E+02  0.32737642953E+02  0.51100000000E-03 0.  1.
        -12    1    3    3    0    0 -0.26963623901E+01  0.34082822983E+01  0.12024241236E+02  0.12785504905E+02  0.00000000000E+00 0.  1.
</event>
<event>
 7    1  0.5317846E-010  0.4778727E+02  0.7816164E-02  0.1312668E+00
        -11   -1    0    0    0    0  0.00000000000E+00  0.00000000000E+00  0.45593999997E+02  0.45594000000E+02  0.51100000000E-03 0.  1.
         11   -1    0    0    0    0 -0.00000000000E+00 -0.00000000000E+00 -0.45593999997E+02  0.45594000000E+02  0.51100000000E-03 0. -1.
    9900012    2    1    2    0    0  0.33101524622E+01 -0.40366595536E+02  0.15595005459E+02  0.47787270286E+02  0.19999996540E+02 0.  0.
         12    1    1    2    0    0 -0.33101524622E+01  0.40366595536E+02 -0.15595005459E+02  0.43400729714E+02  0.00000000000E+00 0. -1.
         11    1    3    3    0    0 -0.35318096753E+01 -0.27103126783E+02  0.60526367675E+01  0.27994420392E+02  0.51100000000E-03 0.  1.
        -11    1    3    3    0    0  0.19787778956E+01  0.70067113015E+00 -0.16304048695E+00  0.21054891247E+01  0.51100000000E-03 0. -1.
        -12    1    3    3    0    0  0.48631842419E+01 -0.13964139883E+02  0.97054091787E+01  0.17687360769E+02  0.00000000000E+00 0.  1.
</event>
<event>
 7    1  0.5317846E-010  0.4778727E+02  0.7816164E-02  0.1312668E+00
        -11   -1    0    0    0    0  0.00000000000E+00  0.00000000000E+00  0.45593999997E+02  0.45594000000E+02  0.51100000000E-03 0.  1.
         11   -1    0    0    0    0 -0.00000000000E+00 -0.00000000000E+00 -0.45593999997E+02  0.45594000000E+02  0.51100000000E-03 0. -1.
    9900012    2    1    2    0    0 -0.28060773254E+02  0.15083831859E+01  0.33074777955E+02  0.47787272446E+02  0.20000006390E+02 0.  0.
         12    1    1    2    0    0  0.28060773254E+02 -0.15083831859E+01 -0.33074777955E+02  0.43400727554E+02  0.00000000000E+00 0. -1.
         11    1    3    3    0    0 -0.25637459019E+02  0.40317894809E+01  0.28299123800E+02  0.38397591584E+02  0.51100000000E-03 0. -1.
        -11    1    3    3    0    0 -0.46068028578E+01  0.15809329458E+00  0.24264728365E+01  0.52091646882E+01  0.51100000000E-03 0.  1.
         12    1    3    3    0    0  0.21834886222E+01 -0.26814995896E+01  0.23491813181E+01  0.41805161736E+01  0.00000000000E+00 0. -1.
</event>
<event>
 7    1  0.5317846E-010  0.4778727E+02  0.7816164E-02  0.1312668E+00
        -11   -1    0    0    0    0  0.00000000000E+00  0.00000000000E+00  0.45593999997E+02  0.45594000000E+02  0.51100000000E-03 0.  1.
         11   -1    0    0    0    0 -0.00000000000E+00 -0.00000000000E+00 -0.45593999997E+02  0.45594000000E+02  0.51100000000E-03 0. -1.
    9900012    2    1    2    0    0  0.15894047989E+02 -0.39720917040E+02  0.72973430909E+01  0.47787271571E+02  0.20000002400E+02 0.  0.
         12    1    1    2    0    0 -0.15894047989E+02  0.39720917040E+02 -0.72973430909E+01  0.43400728429E+02  0.00000000000E+00 0. -1.
         11    1    3    3    0    0  0.56617769687E+01 -0.11309284197E+02 -0.64833369001E+01  0.14212293450E+02  0.51100000000E-03 0. -1.
        -11    1    3    3    0    0  0.64277812509E+01 -0.22814208215E+02  0.93183633410E+01  0.25468340423E+02  0.51100000000E-03 0.  1.
         12    1    3    3    0    0  0.38044897690E+01 -0.55974246280E+01  0.44623166500E+01  0.81066376972E+01  0.00000000000E+00 0. -1.
</event>
<event>
 7    1  0.5317846E-010  0.4778727E+02  0.7816164E-02  0.1312668E+00
        -11   -1    0    0    0    0  0.00000000000E+00  0.00000000000E+00  0.45593999997E+02  0.45594000000E+02  0.51100000000E-03 0.  1.
         11   -1    0    0    0    0 -0.00000000000E+00 -0.00000000000E+00 -0.45593999997E+02  0.45594000000E+02  0.51100000000E-03 0. -1.
    9900012    2    1    2    0    0 -0.22208768890E+02 -0.30208333532E+02  0.21859784625E+02  0.47787274036E+02  0.20000013639E+02 0.  0.
         12    1    1    2    0    0  0.22208768890E+02  0.30208333532E+02 -0.21859784625E+02  0.43400725964E+02  0.00000000000E+00 0. -1.
         11    1    3    3    0    0 -0.86626380372E+01 -0.24622800297E+02  0.19600410525E+02  0.32641992667E+02  0.51100000000E-03 0. -1.
        -11    1    3    3    0    0 -0.74059323675E+01 -0.44871810183E+01  0.54533286220E+00  0.86764057025E+01  0.51100000000E-03 0.  1.
         12    1    3    3    0    0 -0.61401984851E+01 -0.10983522166E+01  0.17140412371E+01  0.64688756666E+01  0.00000000000E+00 0. -1.
</event>
<event>
 7    1  0.5317846E-010  0.4778727E+02  0.7816164E-02  0.1312668E+00
        -11   -1    0    0    0    0  0.00000000000E+00  0.00000000000E+00  0.45593999997E+02  0.45594000000E+02  0.51100000000E-03 0.  1.
         11   -1    0    0    0    0 -0.00000000000E+00 -0.00000000000E+00 -0.45593999997E+02  0.45594000000E+02  0.51100000000E-03 0. -1.
    9900012    2    1    2    0    0 -0.29259815134E+02 -0.25043460238E+02  0.20007781952E+02  0.47787273957E+02  0.20000013281E+02 0.  0.
         12    1    1    2    0    0  0.29259815134E+02  0.25043460238E+02 -0.20007781952E+02  0.43400726043E+02  0.00000000000E+00 0. -1.
         11    1    3    3    0    0 -0.64836276541E+01 -0.63871828465E+01  0.15378565262E+02  0.17869913319E+02  0.51100000000E-03 0. -1.
        -11    1    3    3    0    0 -0.96359547465E+01 -0.62660843246E+01  0.19851127137E+01  0.11664309212E+02  0.51100000000E-03 0.  1.
         12    1    3    3    0    0 -0.13140232733E+02 -0.12390193067E+02  0.26441039769E+01  0.18253051426E+02  0.00000000000E+00 0. -1.
</event>
<event>
 7    1  0.5317846E-010  0.4778727E+02  0.7816164E-02  0.1312668E+00
        -11   -1    0    0    0    0  0.00000000000E+00  0.00000000000E+00  0.45593999997E+02  0.45594000000E+02  0.51100000000E-03 0. -1.
         11   -1    0    0    0    0 -0.00000000000E+00 -0.00000000000E+00 -0.45593999997E+02  0.45594000000E+02  0.51100000000E-03 0.  1.
    9900012    2    1    2    0    0  0.15954453926E+02 -0.16315635925E+02 -0.36917187416E+02  0.47787270715E+02  0.19999998500E+02 0.  0.
         12    1    1    2    0    0 -0.15954453926E+02  0.16315635925E+02  0.36917187416E+02  0.43400729285E+02  0.00000000000E+00 0. -1.
         11    1    3    3    0    0 -0.13740934627E+01 -0.56390648981E+01 -0.11827900827E+01  0.59233587102E+01  0.51100000000E-03 0. -1.
        -11    1    3    3    0    0  0.15257902430E+02 -0.11137950240E+02 -0.27518284335E+02  0.33378338711E+02  0.51100000000E-03 0.  1.
        -12    1    3    3    0    0  0.20706449580E+01  0.46137921272E+00 -0.82161129987E+01  0.84855732939E+01  0.00000000000E+00 0.  1.
</event>
<event>
 7    1  0.5317846E-010  0.4778727E+02  0.7816164E-02  0.1312668E+00
        -11   -1    0    0    0    0  0.00000000000E+00  0.00000000000E+00  0.45593999997E+02  0.45594000000E+02  0.51100000000E-03 0.  1.
         11   -1    0    0    0    0 -0.00000000000E+00 -0.00000000000E+00 -0.45593999997E+02  0.45594000000E+02  0.51100000000E-03 0. -1.
    9900012    2    1    2    0    0  0.21594053027E+02  0.37412724869E+02  0.41962170430E+01  0.47787270216E+02  0.19999996224E+02 0.  0.
         12    1    1    2    0    0 -0.21594053027E+02 -0.37412724869E+02 -0.41962170430E+01  0.43400729784E+02  0.00000000000E+00 0. -1.
         11    1    3    3    0    0  0.66210386000E+01  0.64003531346E+01 -0.42353682997E+01  0.10136124372E+02  0.51100000000E-03 0. -1.
        -11    1    3    3    0    0  0.16215689162E+02  0.25608253075E+02  0.99498579617E+01  0.31901894524E+02  0.51100000000E-03 0.  1.
        -12    1    3    3    0    0 -0.12426747348E+01  0.54041186603E+01 -0.15182726190E+01  0.57492513196E+01  0.00000000000E+00 0.  1.
</event>
<event>
 7    1  0.5317846E-010  0.4778727E+02  0.7816164E-02  0.1312668E+00
        -11   -1    0    0    0    0  0.00000000000E+00  0.00000000000E+00  0.45593999997E+02  0.45594000000E+02  0.51100000000E-03 0. -1.
         11   -1    0    0    0    0 -0.00000000000E+00 -0.00000000000E+00 -0.45593999997E+02  0.45594000000E+02  0.51100000000E-03 0.  1.
    9900012    2    1    2    0    0  0.28729404433E+02 -0.59375732064E+01  0.31984216114E+02  0.47787268035E+02  0.19999986280E+02 0.  0.
         12    1    1    2    0    0 -0.28729404433E+02  0.59375732064E+01 -0.31984216114E+02  0.43400731965E+02  0.00000000000E+00 0. -1.
         11    1    3    3    0    0 -0.17814020305E+01  0.73065078116E+00  0.21511168864E+01  0.28869617036E+01  0.51100000000E-03 0. -1.
        -11    1    3    3    0    0  0.18854923471E+02 -0.61245408727E+01  0.10801315428E+02  0.22576238731E+02  0.51100000000E-03 0.  1.
        -12    1    3    3    0    0  0.11655882993E+02 -0.54368311489E+00  0.19031783799E+02  0.22324067601E+02  0.00000000000E+00 0.  1.
</event>
<event>
 7    1  0.5317846E-010  0.4778726E+02  0.7816164E-02  0.1312668E+00
        -11   -1    0    0    0    0  0.00000000000E+00  0.00000000000E+00  0.45593999997E+02  0.45594000000E+02  0.51100000000E-03 0. -1.
         11   -1    0    0    0    0 -0.00000000000E+00 -0.00000000000E+00 -0.45593999997E+02  0.45594000000E+02  0.51100000000E-03 0.  1.
    9900012    2    1    2    0    0  0.48438752340E+01  0.22505231472E+02 -0.36792327359E+02  0.47787263562E+02  0.19999965885E+02 0.  0.
         12    1    1    2    0    0 -0.48438752340E+01 -0.22505231472E+02  0.36792327359E+02  0.43400736438E+02  0.00000000000E+00 0. -1.
         11    1    3    3    0    0  0.87558780703E+01  0.94838842169E+01 -0.19866979839E+02  0.23691904710E+02  0.51100000000E-03 0.  1.
        -11    1    3    3    0    0 -0.23060438037E+01  0.12026176207E+02 -0.72358161957E+01  0.14223353629E+02  0.51100000000E-03 0. -1.
         12    1    3    3    0    0 -0.16059590326E+01  0.99517104804E+00 -0.96895313243E+01  0.98720052226E+01  0.00000000000E+00 0. -1.
</event>
<event>
 7    1  0.5317846E-010  0.4778727E+02  0.7816164E-02  0.1312668E+00
        -11   -1    0    0    0    0  0.00000000000E+00  0.00000000000E+00  0.45593999997E+02  0.45594000000E+02  0.51100000000E-03 0.  1.
         11   -1    0    0    0    0 -0.00000000000E+00 -0.00000000000E+00 -0.45593999997E+02  0.45594000000E+02  0.51100000000E-03 0. -1.
    9900012    2    1    2    0    0 -0.40962067794E+02 -0.10840942732E+00  0.14342957437E+02  0.47787272141E+02  0.20000005002E+02 0.  0.
         12    1    1    2    0    0  0.40962067794E+02  0.10840942732E+00 -0.14342957437E+02  0.43400727859E+02  0.00000000000E+00 0. -1.
         11    1    3    3    0    0 -0.34910983877E+00  0.36498449602E+01  0.22733135663E+01  0.43140700904E+01  0.51100000000E-03 0. -1.
        -11    1    3    3    0    0 -0.30391028471E+02 -0.16848456226E+01  0.49320753580E+01  0.30834699348E+02  0.51100000000E-03 0.  1.
         12    1    3    3    0    0 -0.10221929485E+02 -0.20734087649E+01  0.71375685129E+01  0.12638502703E+02  0.00000000000E+00 0. -1.
</event>
<event>
 7    1  0.5317846E-010  0.4778728E+02  0.7816164E-02  0.1312668E+00
        -11   -1    0    0    0    0  0.00000000000E+00  0.00000000000E+00  0.45593999997E+02  0.45594000000E+02  0.51100000000E-03 0.  1.
         11   -1    0    0    0    0 -0.00000000000E+00 -0.00000000000E+00 -0.45593999997E+02  0.45594000000E+02  0.51100000000E-03 0. -1.
    9900012    2    1    2    0    0  0.20610716510E+02  0.36418137834E+02 -0.11512624036E+02  0.47787275230E+02  0.20000019082E+02 0.  0.
         12    1    1    2    0    0 -0.20610716510E+02 -0.36418137834E+02  0.11512624036E+02  0.43400724770E+02  0.00000000000E+00 0. -1.
         11    1    3    3    0    0  0.54774639173E+00  0.24823112436E+01 -0.31388754431E+01  0.40391130868E+01  0.51100000000E-03 0. -1.
        -11    1    3    3    0    0 -0.54365783456E+00  0.11721958120E+02  0.16127898139E+01  0.11844870504E+02  0.51100000000E-03 0.  1.
        -12    1    3    3    0    0  0.20606627953E+02  0.22213868471E+02 -0.99865384073E+01  0.31903291639E+02  0.00000000000E+00 0.  1.
</event>
<event>
 7    1  0.5317846E-010  0.4778726E+02  0.7816164E-02  0.1312668E+00
        -11   -1    0    0    0    0  0.00000000000E+00  0.00000000000E+00  0.45593999997E+02  0.45594000000E+02  0.51100000000E-03 0.  1.
         11   -1    0    0    0    0 -0.00000000000E+00 -0.00000000000E+00 -0.45593999997E+02  0.45594000000E+02  0.51100000000E-03 0. -1.
    9900012    2    1    2    0    0 -0.40523010062E+02  0.86090258332E+00  0.15516730861E+02  0.47787257675E+02  0.19999939042E+02 0.  0.
         12    1    1    2    0    0  0.40523010062E+02 -0.86090258332E+00 -0.15516730861E+02  0.43400742325E+02  0.00000000000E+00 0. -1.
         11    1    3    3    0    0 -0.79599463711E+00  0.24100864690E-01 -0.24923950783E+01  0.26165285784E+01  0.51100000000E-03 0. -1.
        -11    1    3    3    0    0 -0.32871811891E+02 -0.24627337886E+01  0.10795664193E+02  0.34686704086E+02  0.51100000000E-03 0.  1.
        -12    1    3    3    0    0 -0.68552035346E+01  0.32995355073E+01  0.72134617462E+01  0.10484025011E+02  0.00000000000E+00 0.  1.
</event>
<event>
 7    1  0.6047635E-010  0.4778729E+02  0.7816164E-02  0.1312668E+00
        -11   -1    0    0    0    0  0.00000000000E+00  0.00000000000E+00  0.45593999997E+02  0.45594000000E+02  0.51100000000E-03 0. -1.
         11   -1    0    0    0    0 -0.00000000000E+00 -0.00000000000E+00 -0.45593999997E+02  0.45594000000E+02  0.51100000000E-03 0.  1.
    9900012    2    1    2    0    0 -0.32695408674E+02  0.15785317978E+02 -0.23779308693E+02  0.47787291089E+02  0.20000091393E+02 0.  0.
         12    1    1    2    0    0  0.32695408674E+02 -0.15785317978E+02  0.23779308693E+02  0.43400708911E+02  0.00000000000E+00 0. -1.
         11    1    3    3    0    0 -0.11736103846E+02 -0.16425561670E+01 -0.11578548063E+02  0.16567947965E+02  0.51100000000E-03 0. -1.
        -11    1    3    3    0    0 -0.18294319408E+02  0.10940602260E+02 -0.11364349808E+02  0.24156310712E+02  0.51100000000E-03 0.  1.
         12    1    3    3    0    0 -0.26649854198E+01  0.64872718851E+01 -0.83641082240E+00  0.70630324127E+01  0.00000000000E+00 0. -1.
</event>
<event>
 7    1  0.5317846E-010  0.4778727E+02  0.7816164E-02  0.1312668E+00
        -11   -1    0    0    0    0  0.00000000000E+00  0.00000000000E+00  0.45593999997E+02  0.45594000000E+02  0.51100000000E-03 0.  1.
         11   -1    0    0    0    0 -0.00000000000E+00 -0.00000000000E+00 -0.45593999997E+02  0.45594000000E+02  0.51100000000E-03 0. -1.
    9900012    2    1    2    0    0  0.42244698747E+01 -0.19154608946E+02  0.38715348432E+02  0.47787269663E+02  0.19999993702E+02 0.  0.
         12    1    1    2    0    0 -0.42244698747E+01  0.19154608946E+02 -0.38715348432E+02  0.43400730337E+02  0.00000000000E+00 0. -1.
         11    1    3    3    0    0 -0.11521897035E+01 -0.57710632769E+01  0.55657185299E+00  0.59112168754E+01  0.51100000000E-03 0. -1.
        -11    1    3    3    0    0 -0.24210662604E+01 -0.51776060594E+01  0.16057990203E+02  0.17044888265E+02  0.51100000000E-03 0.  1.
         12    1    3    3    0    0  0.77977258387E+01 -0.82059396093E+01  0.22100786376E+02  0.24831164523E+02  0.00000000000E+00 0. -1.
</event>
<event>
 7    1  0.5317846E-010  0.4778727E+02  0.7816164E-02  0.1312668E+00
        -11   -1    0    0    0    0  0.00000000000E+00  0.00000000000E+00  0.45593999997E+02  0.45594000000E+02  0.51100000000E-03 0.  1.
         11   -1    0    0    0    0 -0.00000000000E+00 -0.00000000000E+00 -0.45593999997E+02  0.45594000000E+02  0.51100000000E-03 0. -1.
    9900012    2    1    2    0    0 -0.62150149959E+00  0.37904276441E+02  0.21130615781E+02  0.47787270054E+02  0.19999995482E+02 0.  0.
         12    1    1    2    0    0  0.62150149959E+00 -0.37904276441E+02 -0.21130615781E+02  0.43400729946E+02  0.00000000000E+00 0. -1.
         11    1    3    3    0    0  0.54139351196E+00  0.95938779390E+01  0.21644473722E+00  0.96115789249E+01  0.51100000000E-03 0. -1.
        -11    1    3    3    0    0  0.26204105046E+01  0.15898113770E+02  0.19234318671E+02  0.25091344875E+02  0.51100000000E-03 0.  1.
        -12    1    3    3    0    0 -0.37833055162E+01  0.12412284732E+02  0.16798523732E+01  0.13084346254E+02  0.00000000000E+00 0.  1.
</event>
<event>
 7    1  0.5317846E-010  0.4778727E+02  0.7816164E-02  0.1312668E+00
        -11   -1    0    0    0    0  0.00000000000E+00  0.00000000000E+00  0.45593999997E+02  0.45594000000E+02  0.51100000000E-03 0.  1.
         11   -1    0    0    0    0 -0.00000000000E+00 -0.00000000000E+00 -0.45593999997E+02  0.45594000000E+02  0.51100000000E-03 0. -1.
    9900012    2    1    2    0    0  0.28134412234E+02  0.22101768762E+02  0.24568074809E+02  0.47787266895E+02  0.19999981083E+02 0.  0.
         12    1    1    2    0    0 -0.28134412234E+02 -0.22101768762E+02 -0.24568074809E+02  0.43400733105E+02  0.00000000000E+00 0. -1.
         11    1    3    3    0    0  0.63570405932E+00  0.45534834989E+01  0.22853136079E+01  0.51342954895E+01  0.51100000000E-03 0.  1.
        -11    1    3    3    0    0  0.73452085372E+01  0.86904692747E+01  0.16230740830E+02  0.19822040582E+02  0.51100000000E-03 0. -1.
        -12    1    3    3    0    0  0.20153499638E+02  0.88578159886E+01  0.60520203713E+01  0.22830930824E+02  0.00000000000E+00 0.  1.
</event>
<event>
 7    1  0.5317846E-010  0.4778727E+02  0.7816164E-02  0.1312668E+00
        -11   -1    0    0    0    0  0.00000000000E+00  0.00000000000E+00  0.45593999997E+02  0.45594000000E+02  0.51100000000E-03 0.  1.
         11   -1    0    0    0    0 -0.00000000000E+00 -0.00000000000E+00 -0.45593999997E+02  0.45594000000E+02  0.51100000000E-03 0. -1.
    9900012    2    1    2    0    0 -0.34087377050E+02 -0.24260005386E+02 -0.11538029081E+02  0.47787271313E+02  0.20000001226E+02 0.  0.
         12    1    1    2    0    0  0.34087377050E+02  0.24260005386E+02  0.11538029081E+02  0.43400728687E+02  0.00000000000E+00 0. -1.
         11    1    3    3    0    0  0.24380040464E+00 -0.40176105608E+01 -0.50594885890E+01  0.64652191222E+01  0.51100000000E-03 0. -1.
        -11    1    3    3    0    0 -0.20124025797E+02 -0.67716197807E+01 -0.34093775885E+01  0.21504769344E+02  0.51100000000E-03 0.  1.
         12    1    3    3    0    0 -0.14207151657E+02 -0.13470775045E+02 -0.30691629038E+01  0.19817282847E+02  0.00000000000E+00 0. -1.
</event>
<event>
 7    1  0.5317846E-010  0.4778727E+02  0.7816164E-02  0.1312668E+00
        -11   -1    0    0    0    0  0.00000000000E+00  0.00000000000E+00  0.45593999997E+02  0.45594000000E+02  0.51100000000E-03 0.  1.
         11   -1    0    0    0    0 -0.00000000000E+00 -0.00000000000E+00 -0.45593999997E+02  0.45594000000E+02  0.51100000000E-03 0. -1.
    9900012    2    1    2    0    0 -0.10642503868E+02 -0.40058584123E+02  0.12871285192E+02  0.47787273820E+02  0.20000012653E+02 0.  0.
         12    1    1    2    0    0  0.10642503868E+02  0.40058584123E+02 -0.12871285192E+02  0.43400726180E+02  0.00000000000E+00 0. -1.
         11    1    3    3    0    0  0.20012800506E+01 -0.24935345378E+02  0.18941783358E+01  0.25087137795E+02  0.51100000000E-03 0. -1.
        -11    1    3    3    0    0 -0.70231200619E+01 -0.98235833846E+01  0.76050362145E+01  0.14271075012E+02  0.51100000000E-03 0.  1.
         12    1    3    3    0    0 -0.56206638565E+01 -0.52996553604E+01  0.33720706421E+01  0.84290610119E+01  0.00000000000E+00 0. -1.
</event>
<event>
 7    1  0.5317846E-010  0.4778727E+02  0.7816164E-02  0.1312668E+00
        -11   -1    0    0    0    0  0.00000000000E+00  0.00000000000E+00  0.45593999997E+02  0.45594000000E+02  0.51100000000E-03 0. -1.
         11   -1    0    0    0    0 -0.00000000000E+00 -0.00000000000E+00 -0.45593999997E+02  0.45594000000E+02  0.51100000000E-03 0.  1.
    9900012    2    1    2    0    0  0.27905900043E+02 -0.26100756173E+02  0.20582388836E+02  0.47787268898E+02  0.19999990213E+02 0.  0.
         12    1    1    2    0    0 -0.27905900043E+02  0.26100756173E+02 -0.20582388836E+02  0.43400731102E+02  0.00000000000E+00 0. -1.
         11    1    3    3    0    0  0.80685609154E+01 -0.14684612436E+02  0.10884261231E+02  0.19980156667E+02  0.51100000000E-03 0. -1.
        -11    1    3    3    0    0  0.10708102332E+01  0.24766173873E+01  0.73480702518E+00  0.27964638142E+01  0.51100000000E-03 0.  1.
        -12    1    3    3    0    0  0.18766528894E+02 -0.13892761124E+02  0.89633205798E+01  0.25010648417E+02  0.00000000000E+00 0.  1.
</event>
<event>
 7    1  0.5317846E-010  0.4778727E+02  0.7816164E-02  0.1312668E+00
        -11   -1    0    0    0    0  0.00000000000E+00  0.00000000000E+00  0.45593999997E+02  0.45594000000E+02  0.51100000000E-03 0.  1.
         11   -1    0    0    0    0 -0.00000000000E+00 -0.00000000000E+00 -0.45593999997E+02  0.45594000000E+02  0.51100000000E-03 0. -1.
    9900012    2    1    2    0    0  0.35888021502E+02  0.24394257506E+02 -0.77034259096E+00  0.47787270579E+02  0.19999997877E+02 0.  0.
         12    1    1    2    0    0 -0.35888021502E+02 -0.24394257506E+02  0.77034259096E+00  0.43400729421E+02  0.00000000000E+00 0. -1.
         11    1    3    3    0    0 -0.12160489112E+01  0.68650856634E+00 -0.24617176682E+01  0.28302160881E+01  0.51100000000E-03 0. -1.
        -11    1    3    3    0    0  0.28047793743E+02  0.19031712433E+02  0.49540978565E+01  0.34255333859E+02  0.51100000000E-03 0.  1.
         12    1    3    3    0    0  0.90562766699E+01  0.46760365068E+01 -0.32627227792E+01  0.10701720631E+02  0.00000000000E+00 0. -1.
</event>
<event>
 7    1  0.5317846E-010  0.4778727E+02  0.7816164E-02  0.1312668E+00
        -11   -1    0    0    0    0  0.00000000000E+00  0.00000000000E+00  0.45593999997E+02  0.45594000000E+02  0.51100000000E-03 0.  1.
         11   -1    0    0    0    0 -0.00000000000E+00 -0.00000000000E+00 -0.45593999997E+02  0.45594000000E+02  0.51100000000E-03 0. -1.
    9900012    2    1    2    0    0  0.11202580605E+01  0.10859401134E+02  0.42005258293E+02  0.47787270797E+02  0.19999998871E+02 0.  0.
         12    1    1    2    0    0 -0.11202580605E+01 -0.10859401134E+02 -0.42005258293E+02  0.43400729203E+02  0.00000000000E+00 0. -1.
         11    1    3    3    0    0  0.43321466766E+01  0.11587644335E+02  0.17862136523E+02  0.21727791362E+02  0.51100000000E-03 0. -1.
        -11    1    3    3    0    0 -0.25086911930E+01 -0.34664667962E+01  0.44838285135E+01  0.61979546586E+01  0.51100000000E-03 0.  1.
        -12    1    3    3    0    0 -0.70319742315E+00  0.27382235951E+01  0.19659293257E+02  0.19861524776E+02  0.00000000000E+00 0.  1.
</event>
<event>
 7    1  0.5317846E-010  0.4778728E+02  0.7816164E-02  0.1312668E+00
        -11   -1    0    0    0    0  0.00000000000E+00  0.00000000000E+00  0.45593999997E+02  0.45594000000E+02  0.51100000000E-03 0.  1.
         11   -1    0    0    0    0 -0.00000000000E+00 -0.00000000000E+00 -0.45593999997E+02  0.45594000000E+02  0.51100000000E-03 0. -1.
    9900012    2    1    2    0    0  0.41981292596E+02 -0.91358754952E+01 -0.61424084485E+01  0.47787281911E+02  0.20000049544E+02 0.  0.
         12    1    1    2    0    0 -0.41981292596E+02  0.91358754952E+01  0.61424084485E+01  0.43400718089E+02  0.00000000000E+00 0. -1.
         11    1    3    3    0    0  0.32699880289E+01  0.14913927418E+01 -0.55831204986E+01  0.66399027691E+01  0.51100000000E-03 0. -1.
        -11    1    3    3    0    0  0.22890149382E+02 -0.26414616691E+01  0.24478173169E+01  0.23171708361E+02  0.51100000000E-03 0.  1.
         12    1    3    3    0    0  0.15821155186E+02 -0.79858065679E+01 -0.30071052668E+01  0.17975670781E+02  0.00000000000E+00 0. -1.
</event>
<event>
 7    1  0.5317846E-010  0.4778727E+02  0.7816164E-02  0.1312668E+00
        -11   -1    0    0    0    0  0.00000000000E+00  0.00000000000E+00  0.45593999997E+02  0.45594000000E+02  0.51100000000E-03 0.  1.
         11   -1    0    0    0    0 -0.00000000000E+00 -0.00000000000E+00 -0.45593999997E+02  0.45594000000E+02  0.51100000000E-03 0. -1.
    9900012    2    1    2    0    0  0.33653606374E+01  0.20093037320E+02  0.38321891243E+02  0.47787272478E+02  0.20000006537E+02 0.  0.
         12    1    1    2    0    0 -0.33653606374E+01 -0.20093037320E+02 -0.38321891243E+02  0.43400727522E+02  0.00000000000E+00 0. -1.
         11    1    3    3    0    0  0.65903375283E+01  0.15779082162E+02  0.15194620820E+02  0.22875499661E+02  0.51100000000E-03 0. -1.
        -11    1    3    3    0    0 -0.41654677265E+01  0.58941528400E+01  0.16025766915E+02  0.17576045191E+02  0.51100000000E-03 0.  1.
         12    1    3    3    0    0  0.94049083560E+00 -0.15801976820E+01  0.71015035087E+01  0.73357276265E+01  0.00000000000E+00 0. -1.
</event>
<event>
 7    1  0.5317846E-010  0.4778728E+02  0.7816164E-02  0.1312668E+00
        -11   -1    0    0    0    0  0.00000000000E+00  0.00000000000E+00  0.45593999997E+02  0.45594000000E+02  0.51100000000E-03 0.  1.
         11   -1    0    0    0    0 -0.00000000000E+00 -0.00000000000E+00 -0.45593999997E+02  0.45594000000E+02  0.51100000000E-03 0. -1.
    9900012    2    1    2    0    0 -0.23294540164E+01  0.39926652830E+02 -0.16854041749E+02  0.47787277823E+02  0.20000030906E+02 0.  0.
         12    1    1    2    0    0  0.23294540164E+01 -0.39926652830E+02  0.16854041749E+02  0.43400722177E+02  0.00000000000E+00 0. -1.
         11    1    3    3    0    0 -0.39430190116E+01  0.34333734525E+02 -0.16238424489E+02  0.38184278905E+02  0.51100000000E-03 0. -1.
        -11    1    3    3    0    0  0.42150794308E+00  0.46950994683E+01  0.30708065815E+01  0.56259649203E+01  0.51100000000E-03 0.  1.
         12    1    3    3    0    0  0.11920570521E+01  0.89781883698E+00 -0.36864238416E+01  0.39770339978E+01  0.00000000000E+00 0. -1.
</event>
<event>
 7    1  0.5317846E-010  0.4778727E+02  0.7816164E-02  0.1312668E+00
        -11   -1    0    0    0    0  0.00000000000E+00  0.00000000000E+00  0.45593999997E+02  0.45594000000E+02  0.51100000000E-03 0.  1.
         11   -1    0    0    0    0 -0.00000000000E+00 -0.00000000000E+00 -0.45593999997E+02  0.45594000000E+02  0.51100000000E-03 0. -1.
    9900012    2    1    2    0    0  0.19478104225E+01  0.11385926474E+02  0.41835271414E+02  0.47787271649E+02  0.20000002756E+02 0.  0.
         12    1    1    2    0    0 -0.19478104225E+01 -0.11385926474E+02 -0.41835271414E+02  0.43400728351E+02  0.00000000000E+00 0. -1.
         11    1    3    3    0    0  0.24605857717E+01  0.15504454588E+02  0.32494412255E+02  0.36087801575E+02  0.51100000000E-03 0. -1.
        -11    1    3    3    0    0 -0.29367515994E+01 -0.30906801505E+01  0.68900474246E+01  0.81024420716E+01  0.51100000000E-03 0.  1.
         12    1    3    3    0    0  0.24239762502E+01 -0.10278479630E+01  0.24508117340E+01  0.35970280027E+01  0.00000000000E+00 0. -1.
</event>
<event>
 7    1  0.5317846E-010  0.4778727E+02  0.7816164E-02  0.1312668E+00
        -11   -1    0    0    0    0  0.00000000000E+00  0.00000000000E+00  0.45593999997E+02  0.45594000000E+02  0.51100000000E-03 0. -1.
         11   -1    0    0    0    0 -0.00000000000E+00 -0.00000000000E+00 -0.45593999997E+02  0.45594000000E+02  0.51100000000E-03 0.  1.
    9900012    2    1    2    0    0 -0.16402325846E+02 -0.40171046546E+02 -0.93514497569E+00  0.47787265330E+02  0.19999973945E+02 0.  0.
         12    1    1    2    0    0  0.16402325846E+02  0.40171046546E+02  0.93514497569E+00  0.43400734670E+02  0.00000000000E+00 0. -1.
         11    1    3    3    0    0 -0.30464715110E+01 -0.43726562991E+01 -0.67820558035E+01  0.86253923366E+01  0.51100000000E-03 0. -1.
        -11    1    3    3    0    0 -0.64313697517E+01 -0.20844392851E+02  0.44108225297E+00  0.21818473458E+02  0.51100000000E-03 0.  1.
         12    1    3    3    0    0 -0.69244845836E+01 -0.14953997396E+02  0.54058285748E+01  0.17343399535E+02  0.00000000000E+00 0. -1.
</event>
<event>
 7    1  0.5317846E-010  0.4778727E+02  0.7816164E-02  0.1312668E+00
        -11   -1    0    0    0    0  0.00000000000E+00  0.00000000000E+00  0.45593999997E+02  0.45594000000E+02  0.51100000000E-03 0.  1.
         11   -1    0    0    0    0 -0.00000000000E+00 -0.00000000000E+00 -0.45593999997E+02  0.45594000000E+02  0.51100000000E-03 0. -1.
    9900012    2    1    2    0    0 -0.71166205345E+01 -0.12090586753E+02  0.41070606366E+02  0.47787270938E+02  0.19999999515E+02 0.  0.
         12    1    1    2    0    0  0.71166205345E+01  0.12090586753E+02 -0.41070606366E+02  0.43400729062E+02  0.00000000000E+00 0. -1.
         11    1    3    3    0    0 -0.56970764369E+01  0.47226523444E+00  0.20645344911E+01  0.60779945135E+01  0.51100000000E-03 0. -1.
        -11    1    3    3    0    0 -0.13650598785E+01 -0.13284050949E+02  0.38671709168E+02  0.40912473506E+02  0.51100000000E-03 0.  1.
        -12    1    3    3    0    0 -0.54484219062E-01  0.72119896158E+00  0.33436270609E+00  0.79680291888E+00  0.00000000000E+00 0.  1.
</event>
<event>
 7    1  0.5317846E-010  0.4778727E+02  0.7816164E-02  0.1312668E+00
        -11   -1    0    0    0    0  0.00000000000E+00  0.00000000000E+00  0.45593999997E+02  0.45594000000E+02  0.51100000000E-03 0. -1.
         11   -1    0    0    0    0 -0.00000000000E+00 -0.00000000000E+00 -0.45593999997E+02  0.45594000000E+02  0.51100000000E-03 0.  1.
    9900012    2    1    2    0    0 -0.20991373905E+02 -0.37555643371E+02 -0.57060534621E+01  0.47787272201E+02  0.20000005272E+02 0.  0.
         12    1    1    2    0    0  0.20991373905E+02  0.37555643371E+02  0.57060534621E+01  0.43400727799E+02  0.00000000000E+00 0. -1.
         11    1    3    3    0    0 -0.16126677829E+02 -0.16950683875E+02  0.35106040563E+01  0.23658397298E+02  0.51100000000E-03 0. -1.
        -11    1    3    3    0    0 -0.42167047465E+01 -0.20032373326E+02 -0.68144311576E+01  0.21575751488E+02  0.51100000000E-03 0.  1.
         12    1    3    3    0    0 -0.64799132953E+00 -0.57258616996E+00 -0.24022263608E+01  0.25531234153E+01  0.00000000000E+00 0. -1.
</event>
<event>
 7    1  0.5317846E-010  0.4778725E+02  0.7816164E-02  0.1312668E+00
        -11   -1    0    0    0    0  0.00000000000E+00  0.00000000000E+00  0.45593999997E+02  0.45594000000E+02  0.51100000000E-03 0. -1.
         11   -1    0    0    0    0 -0.00000000000E+00 -0.00000000000E+00 -0.45593999997E+02  0.45594000000E+02  0.51100000000E-03 0.  1.
    9900012    2    1    2    0    0  0.22749585825E+02  0.34549942019E+02 -0.13129464412E+02  0.47787251337E+02  0.19999910147E+02 0.  0.
         12    1    1    2    0    0 -0.22749585825E+02 -0.34549942019E+02  0.13129464412E+02  0.43400748663E+02  0.00000000000E+00 0. -1.
         11    1    3    3    0    0 -0.80942474286E+00  0.61382002261E+00  0.19403113483E+01  0.21901488132E+01  0.51100000000E-03 0. -1.
        -11    1    3    3    0    0  0.16896024476E+02  0.31346582908E+02 -0.14420418721E+02  0.38419166824E+02  0.51100000000E-03 0.  1.
         12    1    3    3    0    0  0.66629860918E+01  0.25895390884E+01 -0.64935703904E+00  0.71779357000E+01  0.00000000000E+00 0. -1.
</event>
<event>
 7    1  0.5317846E-010  0.4778727E+02  0.7816164E-02  0.1312668E+00
        -11   -1    0    0    0    0  0.00000000000E+00  0.00000000000E+00  0.45593999997E+02  0.45594000000E+02  0.51100000000E-03 0.  1.
         11   -1    0    0    0    0 -0.00000000000E+00 -0.00000000000E+00 -0.45593999997E+02  0.45594000000E+02  0.51100000000E-03 0. -1.
    9900012    2    1    2    0    0 -0.18962046998E+02 -0.18757576216E+02  0.34237663511E+02  0.47787268502E+02  0.19999988408E+02 0.  0.
         12    1    1    2    0    0  0.18962046998E+02  0.18757576216E+02 -0.34237663511E+02  0.43400731498E+02  0.00000000000E+00 0. -1.
         11    1    3    3    0    0 -0.13384170340E+02  0.39956887512E-01  0.11854933555E+02  0.17879515153E+02  0.51100000000E-03 0. -1.
        -11    1    3    3    0    0 -0.40513378361E+01 -0.86018445989E+01  0.11393890999E+02  0.14840007450E+02  0.51100000000E-03 0.  1.
         12    1    3    3    0    0 -0.15265388224E+01 -0.10195688504E+02  0.10988838957E+02  0.15067745899E+02  0.00000000000E+00 0. -1.
</event>
<event>
 7    1  0.5317846E-010  0.4778727E+02  0.7816164E-02  0.1312668E+00
        -11   -1    0    0    0    0  0.00000000000E+00  0.00000000000E+00  0.45593999997E+02  0.45594000000E+02  0.51100000000E-03 0. -1.
         11   -1    0    0    0    0 -0.00000000000E+00 -0.00000000000E+00 -0.45593999997E+02  0.45594000000E+02  0.51100000000E-03 0.  1.
    9900012    2    1    2    0    0  0.10497982737E+02  0.17407234822E+02 -0.38345845992E+02  0.47787269931E+02  0.19999994922E+02 0.  0.
         12    1    1    2    0    0 -0.10497982737E+02 -0.17407234822E+02  0.38345845992E+02  0.43400730069E+02  0.00000000000E+00 0. -1.
         11    1    3    3    0    0  0.29285956793E+01  0.73150074931E+01 -0.77095287730E+00  0.79170939035E+01  0.51100000000E-03 0. -1.
        -11    1    3    3    0    0  0.76224597495E+01  0.10465849050E+02 -0.36717326590E+02  0.38933250072E+02  0.51100000000E-03 0.  1.
         12    1    3    3    0    0 -0.53072691905E-01 -0.37362172158E+00 -0.85756652472E+00  0.93692595533E+00  0.00000000000E+00 0. -1.
</event>
<event>
 7    1  0.5317846E-010  0.4778726E+02  0.7816164E-02  0.1312668E+00
        -11   -1    0    0    0    0  0.00000000000E+00  0.00000000000E+00  0.45593999997E+02  0.45594000000E+02  0.51100000000E-03 0.  1.
         11   -1    0    0    0    0 -0.00000000000E+00 -0.00000000000E+00 -0.45593999997E+02  0.45594000000E+02  0.51100000000E-03 0. -1.
    9900012    2    1    2    0    0 -0.35471659427E+02 -0.20670250083E+01  0.24922131767E+02  0.47787264215E+02  0.19999968860E+02 0.  0.
         12    1    1    2    0    0  0.35471659427E+02  0.20670250083E+01 -0.24922131767E+02  0.43400735785E+02  0.00000000000E+00 0. -1.
         11    1    3    3    0    0 -0.96397332196E+01  0.16871197694E+01  0.16394631799E+01  0.99226341987E+01  0.51100000000E-03 0. -1.
        -11    1    3    3    0    0 -0.25313228151E+02 -0.39680087880E+01  0.25157120288E+02  0.35908011845E+02  0.51100000000E-03 0.  1.
        -12    1    3    3    0    0 -0.51869805630E+00  0.21386401028E+00 -0.18744517011E+01  0.19566181713E+01  0.00000000000E+00 0.  1.
</event>
<event>
 7    1  0.5317846E-010  0.4778727E+02  0.7816164E-02  0.1312668E+00
        -11   -1    0    0    0    0  0.00000000000E+00  0.00000000000E+00  0.45593999997E+02  0.45594000000E+02  0.51100000000E-03 0. -1.
         11   -1    0    0    0    0 -0.00000000000E+00 -0.00000000000E+00 -0.45593999997E+02  0.45594000000E+02  0.51100000000E-03 0.  1.
    9900012    2    1    2    0    0  0.16669490995E+02  0.34479207599E+02 -0.20419013430E+02  0.47787265028E+02  0.19999972567E+02 0.  0.
         12    1    1    2    0    0 -0.16669490995E+02 -0.34479207599E+02  0.20419013430E+02  0.43400734972E+02  0.00000000000E+00 0. -1.
         11    1    3    3    0    0 -0.20168561638E+01  0.51625269622E+00  0.79633533210E+00  0.22289853867E+01  0.51100000000E-03 0. -1.
        -11    1    3    3    0    0  0.13183295860E+02  0.29094568057E+02 -0.20962929666E+02  0.38206512542E+02  0.51100000000E-03 0.  1.
        -12    1    3    3    0    0  0.55030512988E+01  0.48683868463E+01 -0.25241909533E+00  0.73517670993E+01  0.00000000000E+00 0.  1.
</event>
<event>
 7    1  0.5317846E-010  0.4778727E+02  0.7816164E-02  0.1312668E+00
        -11   -1    0    0    0    0  0.00000000000E+00  0.00000000000E+00  0.45593999997E+02  0.45594000000E+02  0.51100000000E-03 0.  1.
         11   -1    0    0    0    0 -0.00000000000E+00 -0.00000000000E+00 -0.45593999997E+02  0.45594000000E+02  0.51100000000E-03 0. -1.
    9900012    2    1    2    0    0 -0.11861441784E+02 -0.39187579138E+02  0.14396652739E+02  0.47787265330E+02  0.19999973944E+02 0.  0.
         12    1    1    2    0    0  0.11861441784E+02  0.39187579138E+02 -0.14396652739E+02  0.43400734670E+02  0.00000000000E+00 0. -1.
         11    1    3    3    0    0  0.25404847749E+01  0.26573325059E-01 -0.21315099942E+00  0.25495494980E+01  0.51100000000E-03 0. -1.
        -11    1    3    3    0    0  0.12157854171E+01 -0.51631264190E+01  0.25273089445E+01  0.58756531008E+01  0.51100000000E-03 0.  1.
         12    1    3    3    0    0 -0.15617711975E+02 -0.34051026044E+02  0.12082494794E+02  0.39362062731E+02  0.00000000000E+00 0. -1.
</event>
<event>
 7    1  0.5317846E-010  0.4778727E+02  0.7816164E-02  0.1312668E+00
        -11   -1    0    0    0    0  0.00000000000E+00  0.00000000000E+00  0.45593999997E+02  0.45594000000E+02  0.51100000000E-03 0.  1.
         11   -1    0    0    0    0 -0.00000000000E+00 -0.00000000000E+00 -0.45593999997E+02  0.45594000000E+02  0.51100000000E-03 0. -1.
    9900012    2    1    2    0    0  0.27595308131E+02  0.33454537961E+02 -0.17075981151E+01  0.47787273827E+02  0.20000012688E+02 0.  0.
         12    1    1    2    0    0 -0.27595308131E+02 -0.33454537961E+02  0.17075981151E+01  0.43400726173E+02  0.00000000000E+00 0. -1.
         11    1    3    3    0    0  0.19861781240E+01  0.58569271767E+01 -0.60231848888E+01  0.86329170018E+01  0.51100000000E-03 0. -1.
        -11    1    3    3    0    0  0.12976393897E+02  0.19355375535E+02  0.57525761274E+01  0.24002280997E+02  0.51100000000E-03 0.  1.
        -12    1    3    3    0    0  0.12632736110E+02  0.82422352486E+01 -0.14369893538E+01  0.15152075829E+02  0.00000000000E+00 0.  1.
</event>
<event>
 7    1  0.5317846E-010  0.4778727E+02  0.7816164E-02  0.1312668E+00
        -11   -1    0    0    0    0  0.00000000000E+00  0.00000000000E+00  0.45593999997E+02  0.45594000000E+02  0.51100000000E-03 0. -1.
         11   -1    0    0    0    0 -0.00000000000E+00 -0.00000000000E+00 -0.45593999997E+02  0.45594000000E+02  0.51100000000E-03 0.  1.
    9900012    2    1    2    0    0 -0.41161503972E+02 -0.13531508939E+02  0.25004000267E+01  0.47787272544E+02  0.20000006836E+02 0.  0.
         12    1    1    2    0    0  0.41161503972E+02  0.13531508939E+02 -0.25004000267E+01  0.43400727456E+02  0.00000000000E+00 0. -1.
         11    1    3    3    0    0 -0.90644477497E+01 -0.68364940024E+00 -0.54711114812E+01  0.10609648939E+02  0.51100000000E-03 0. -1.
        -11    1    3    3    0    0 -0.18574687396E+02 -0.45643616495E+01 -0.62913917484E+00  0.19137612847E+02  0.51100000000E-03 0.  1.
         12    1    3    3    0    0 -0.13522368827E+02 -0.82834978896E+01  0.86006506828E+01  0.18040010758E+02  0.00000000000E+00 0. -1.
</event>
<event>
 7    1  0.5317846E-010  0.4778728E+02  0.7816164E-02  0.1312668E+00
        -11   -1    0    0    0    0  0.00000000000E+00  0.00000000000E+00  0.45593999997E+02  0.45594000000E+02  0.51100000000E-03 0. -1.
         11   -1    0    0    0    0 -0.00000000000E+00 -0.00000000000E+00 -0.45593999997E+02  0.45594000000E+02  0.51100000000E-03 0.  1.
    9900012    2    1    2    0    0 -0.27308098456E+02  0.16583411218E+02 -0.29374838395E+02  0.47787275355E+02  0.20000019655E+02 0.  0.
         12    1    1    2    0    0  0.27308098456E+02 -0.16583411218E+02  0.29374838395E+02  0.43400724645E+02  0.00000000000E+00 0. -1.
         11    1    3    3    0    0 -0.84450517900E+00 -0.29589614336E+01 -0.60274704586E+01  0.67674989585E+01  0.51100000000E-03 0. -1.
        -11    1    3    3    0    0 -0.24596758998E+02  0.19866774522E+02 -0.20804576818E+02  0.37848641983E+02  0.51100000000E-03 0.  1.
         12    1    3    3    0    0 -0.18668342797E+01 -0.32440187005E+00 -0.25427911182E+01  0.31711344140E+01  0.00000000000E+00 0. -1.
</event>
<event>
 7    1  0.5317846E-010  0.4778728E+02  0.7816164E-02  0.1312668E+00
        -11   -1    0    0    0    0  0.00000000000E+00  0.00000000000E+00  0.45593999997E+02  0.45594000000E+02  0.51100000000E-03 0.  1.
         11   -1    0    0    0    0 -0.00000000000E+00 -0.00000000000E+00 -0.45593999997E+02  0.45594000000E+02  0.51100000000E-03 0. -1.
    9900012    2    1    2    0    0 -0.43041762263E+01 -0.95380651596E+00  0.43176232518E+02  0.47787277261E+02  0.20000028342E+02 0.  0.
         12    1    1    2    0    0  0.43041762263E+01  0.95380651596E+00 -0.43176232518E+02  0.43400722739E+02  0.00000000000E+00 0. -1.
         11    1    3    3    0    0 -0.66857612737E+01 -0.19801604823E+01  0.62251174618E+01  0.93473272660E+01  0.51100000000E-03 0. -1.
        -11    1    3    3    0    0 -0.16831360415E+00 -0.37403015669E+01  0.64038728514E+01  0.74180707086E+01  0.51100000000E-03 0.  1.
         12    1    3    3    0    0  0.25498986516E+01  0.47666555332E+01  0.30547242205E+02  0.31021879286E+02  0.00000000000E+00 0. -1.
</event>
<event>
 7    1  0.5317846E-010  0.4778728E+02  0.7816164E-02  0.1312668E+00
        -11   -1    0    0    0    0  0.00000000000E+00  0.00000000000E+00  0.45593999997E+02  0.45594000000E+02  0.51100000000E-03 0. -1.
         11   -1    0    0    0    0 -0.00000000000E+00 -0.00000000000E+00 -0.45593999997E+02  0.45594000000E+02  0.51100000000E-03 0.  1.
    9900012    2    1    2    0    0  0.20092295019E+02  0.30869172392E+02  0.22956846105E+02  0.47787275279E+02  0.20000019305E+02 0.  0.
         12    1    1    2    0    0 -0.20092295019E+02 -0.30869172392E+02 -0.22956846105E+02  0.43400724721E+02  0.00000000000E+00 0. -1.
         11    1    3    3    0    0  0.35883177424E+01  0.49295204108E+01  0.10435119927E+02  0.12085856356E+02  0.51100000000E-03 0. -1.
        -11    1    3    3    0    0  0.15253305750E+02  0.26571524322E+02  0.13981676087E+02  0.33677834069E+02  0.51100000000E-03 0.  1.
        -12    1    3    3    0    0  0.12506715259E+01 -0.63187234126E+00 -0.14599499096E+01  0.20235848536E+01  0.00000000000E+00 0.  1.
</event>
<event>
 7    1  0.5317846E-010  0.4778727E+02  0.7816164E-02  0.1312668E+00
        -11   -1    0    0    0    0  0.00000000000E+00  0.00000000000E+00  0.45593999997E+02  0.45594000000E+02  0.51100000000E-03 0. -1.
         11   -1    0    0    0    0 -0.00000000000E+00 -0.00000000000E+00 -0.45593999997E+02  0.45594000000E+02  0.51100000000E-03 0.  1.
    9900012    2    1    2    0    0  0.36712885305E+02 -0.21475761258E+02 -0.86359154699E+01  0.47787270685E+02  0.19999998360E+02 0.  0.
         12    1    1    2    0    0 -0.36712885305E+02  0.21475761258E+02  0.86359154699E+01  0.43400729315E+02  0.00000000000E+00 0. -1.
         11    1    3    3    0    0  0.51150349994E+01  0.34190949375E+00 -0.22602980266E+01  0.56026272924E+01  0.51100000000E-03 0. -1.
        -11    1    3    3    0    0  0.15687460863E+02 -0.13087726043E+01 -0.22449360777E+01  0.15901228013E+02  0.51100000000E-03 0.  1.
        -12    1    3    3    0    0  0.15910389443E+02 -0.20508898148E+02 -0.41306813656E+01  0.26283415379E+02  0.00000000000E+00 0.  1.
</event>
<event>
 7    1  0.5317846E-010  0.4778728E+02  0.7816164E-02  0.1312668E+00
        -11   -1    0    0    0    0  0.00000000000E+00  0.00000000000E+00  0.45593999997E+02  0.45594000000E+02  0.51100000000E-03 0.  1.
         11   -1    0    0    0    0 -0.00000000000E+00 -0.00000000000E+00 -0.45593999997E+02  0.45594000000E+02  0.51100000000E-03 0. -1.
    9900012    2    1    2    0    0 -0.40264406431E+02  0.40832762357E+00  0.16193631435E+02  0.47787275862E+02  0.20000021963E+02 0.  0.
         12    1    1    2    0    0  0.40264406431E+02 -0.40832762357E+00 -0.16193631435E+02  0.43400724138E+02  0.00000000000E+00 0. -1.
         11    1    3    3    0    0 -0.70391287681E+01 -0.43361388827E+01  0.93720625746E+01  0.12497479401E+02  0.51100000000E-03 0. -1.
        -11    1    3    3    0    0 -0.69812487828E+01  0.32373911191E+01  0.44655253541E+01  0.88971598151E+01  0.51100000000E-03 0.  1.
         12    1    3    3    0    0 -0.26244028880E+02  0.15070753871E+01  0.23560435067E+01  0.26392636645E+02  0.00000000000E+00 0. -1.
</event>
<event>
 7    1  0.5317846E-010  0.4778724E+02  0.7816164E-02  0.1312668E+00
        -11   -1    0    0    0    0  0.00000000000E+00  0.00000000000E+00  0.45593999997E+02  0.45594000000E+02  0.51100000000E-03 0. -1.
         11   -1    0    0    0    0 -0.00000000000E+00 -0.00000000000E+00 -0.45593999997E+02  0.45594000000E+02  0.51100000000E-03 0.  1.
    9900012    2    1    2    0    0 -0.17338013801E+02 -0.95333797938E+01 -0.38628154331E+02  0.47787235492E+02  0.19999837902E+02 0.  0.
         12    1    1    2    0    0  0.17338013801E+02  0.95333797938E+01  0.38628154331E+02  0.43400764508E+02  0.00000000000E+00 0. -1.
         11    1    3    3    0    0 -0.29532478700E+01 -0.10898950892E+02 -0.11596973737E+02  0.16186370922E+02  0.51100000000E-03 0. -1.
        -11    1    3    3    0    0 -0.12529446715E+02  0.38401167667E+01 -0.19893826137E+02  0.23822213381E+02  0.51100000000E-03 0.  1.
        -12    1    3    3    0    0 -0.18553192161E+01 -0.24745456686E+01 -0.71373544574E+01  0.77786511883E+01  0.00000000000E+00 0.  1.
</event>
<event>
 7    1  0.5317846E-010  0.4778727E+02  0.7816164E-02  0.1312668E+00
        -11   -1    0    0    0    0  0.00000000000E+00  0.00000000000E+00  0.45593999997E+02  0.45594000000E+02  0.51100000000E-03 0.  1.
         11   -1    0    0    0    0 -0.00000000000E+00 -0.00000000000E+00 -0.45593999997E+02  0.45594000000E+02  0.51100000000E-03 0. -1.
    9900012    2    1    2    0    0  0.21954761200E+02 -0.12403403263E+02  0.35323749254E+02  0.47787271743E+02  0.20000003185E+02 0.  0.
         12    1    1    2    0    0 -0.21954761200E+02  0.12403403263E+02 -0.35323749254E+02  0.43400728257E+02  0.00000000000E+00 0. -1.
         11    1    3    3    0    0  0.16509055650E+02 -0.13440373815E+02  0.29236442276E+02  0.36165758999E+02  0.51100000000E-03 0.  1.
        -11    1    3    3    0    0  0.66614213296E+01  0.30269456074E+01  0.34144019438E+01  0.80743467064E+01  0.51100000000E-03 0. -1.
         12    1    3    3    0    0 -0.12157157792E+01 -0.19899750558E+01  0.26729050344E+01  0.35471660380E+01  0.00000000000E+00 0. -1.
</event>
<event>
 7    1  0.5317846E-010  0.4778727E+02  0.7816164E-02  0.1312668E+00
        -11   -1    0    0    0    0  0.00000000000E+00  0.00000000000E+00  0.45593999997E+02  0.45594000000E+02  0.51100000000E-03 0.  1.
         11   -1    0    0    0    0 -0.00000000000E+00 -0.00000000000E+00 -0.45593999997E+02  0.45594000000E+02  0.51100000000E-03 0. -1.
    9900012    2    1    2    0    0  0.25441292450E+02 -0.74403982122E+01  0.34365741321E+02  0.47787273466E+02  0.20000011042E+02 0.  0.
         12    1    1    2    0    0 -0.25441292450E+02  0.74403982122E+01 -0.34365741321E+02  0.43400726534E+02  0.00000000000E+00 0. -1.
         11    1    3    3    0    0  0.16494772453E+02  0.52163821951E+01  0.21754167213E+02  0.27794459032E+02  0.51100000000E-03 0. -1.
        -11    1    3    3    0    0  0.35874152516E+01 -0.55761603122E+01  0.52058566699E+01  0.84299499372E+01  0.51100000000E-03 0.  1.
         12    1    3    3    0    0  0.53591047462E+01 -0.70806200951E+01  0.74057174379E+01  0.11562864497E+02  0.00000000000E+00 0. -1.
</event>
<event>
 7    1  0.5317846E-010  0.4778726E+02  0.7816164E-02  0.1312668E+00
        -11   -1    0    0    0    0  0.00000000000E+00  0.00000000000E+00  0.45593999997E+02  0.45594000000E+02  0.51100000000E-03 0.  1.
         11   -1    0    0    0    0 -0.00000000000E+00 -0.00000000000E+00 -0.45593999997E+02  0.45594000000E+02  0.51100000000E-03 0. -1.
    9900012    2    1    2    0    0  0.41577380835E+02  0.88081537119E+01  0.87955463222E+01  0.47787264937E+02  0.19999972155E+02 0.  0.
         12    1    1    2    0    0 -0.41577380835E+02 -0.88081537119E+01 -0.87955463222E+01  0.43400735063E+02  0.00000000000E+00 0. -1.
         11    1    3    3    0    0  0.37256415347E+02  0.80891790569E+01  0.89109119468E+01  0.39152007028E+02  0.51100000000E-03 0. -1.
        -11    1    3    3    0    0  0.54200177153E+01  0.28715324576E+01  0.45963097750E+00  0.61508984373E+01  0.51100000000E-03 0.  1.
         12    1    3    3    0    0 -0.10990522279E+01 -0.21525578026E+01 -0.57499660216E+00  0.24843594719E+01  0.00000000000E+00 0. -1.
</event>
<event>
 7    1  0.5317846E-010  0.4778727E+02  0.7816164E-02  0.1312668E+00
        -11   -1    0    0    0    0  0.00000000000E+00  0.00000000000E+00  0.45593999997E+02  0.45594000000E+02  0.51100000000E-03 0.  1.
         11   -1    0    0    0    0 -0.00000000000E+00 -0.00000000000E+00 -0.45593999997E+02  0.45594000000E+02  0.51100000000E-03 0. -1.
    9900012    2    1    2    0    0 -0.42862198822E+01 -0.19966447627E+01  0.43142384722E+02  0.47787266934E+02  0.19999981257E+02 0.  0.
         12    1    1    2    0    0  0.42862198822E+01  0.19966447627E+01 -0.43142384722E+02  0.43400733066E+02  0.00000000000E+00 0. -1.
         11    1    3    3    0    0 -0.28029217799E+01 -0.43413474128E+01  0.27487281039E+02  0.27968809181E+02  0.51100000000E-03 0. -1.
        -11    1    3    3    0    0 -0.94676158117E+00  0.68253438978E+01  0.59051498047E+01  0.90748262403E+01  0.51100000000E-03 0.  1.
        -12    1    3    3    0    0 -0.53653652117E+00 -0.44806412477E+01  0.97499538786E+01  0.10743631512E+02  0.00000000000E+00 0.  1.
</event>
<event>
 7    1  0.5317846E-010  0.4778727E+02  0.7816164E-02  0.1312668E+00
        -11   -1    0    0    0    0  0.00000000000E+00  0.00000000000E+00  0.45593999997E+02  0.45594000000E+02  0.51100000000E-03 0.  1.
         11   -1    0    0    0    0 -0.00000000000E+00 -0.00000000000E+00 -0.45593999997E+02  0.45594000000E+02  0.51100000000E-03 0. -1.
    9900012    2    1    2    0    0  0.59163985642E+01  0.12240668364E+02  0.41216326896E+02  0.47787270320E+02  0.19999996695E+02 0.  0.
         12    1    1    2    0    0 -0.59163985642E+01 -0.12240668364E+02 -0.41216326896E+02  0.43400729680E+02  0.00000000000E+00 0. -1.
         11    1    3    3    0    0 -0.53125800724E+01  0.27525667975E+01  0.31318233845E+01  0.67534027700E+01  0.51100000000E-03 0. -1.
        -11    1    3    3    0    0  0.61250646277E+01  0.29301286535E+01  0.14080205445E+02  0.15631834706E+02  0.51100000000E-03 0.  1.
         12    1    3    3    0    0  0.51039140089E+01  0.65579729128E+01  0.24004298066E+02  0.25402032844E+02  0.00000000000E+00 0. -1.
</event>
<event>
 7    1  0.5317846E-010  0.4778726E+02  0.7816164E-02  0.1312668E+00
        -11   -1    0    0    0    0  0.00000000000E+00  0.00000000000E+00  0.45593999997E+02  0.45594000000E+02  0.51100000000E-03 0.  1.
         11   -1    0    0    0    0 -0.00000000000E+00 -0.00000000000E+00 -0.45593999997E+02  0.45594000000E+02  0.51100000000E-03 0. -1.
    9900012    2    1    2    0    0  0.39575269567E+02 -0.10466294492E+02  0.14418019749E+02  0.47787256053E+02  0.19999931647E+02 0.  0.
         12    1    1    2    0    0 -0.39575269567E+02  0.10466294492E+02 -0.14418019749E+02  0.43400743947E+02  0.00000000000E+00 0. -1.
         11    1    3    3    0    0  0.67102442155E+01  0.71400557963E+00 -0.42631812026E+01  0.79819731662E+01  0.51100000000E-03 0. -1.
        -11    1    3    3    0    0  0.33062832150E+02 -0.11237009840E+02  0.18673171340E+02  0.39599350854E+02  0.51100000000E-03 0.  1.
        -12    1    3    3    0    0 -0.19780679849E+00  0.56709768106E-01  0.80296117339E-02  0.20593203246E+00  0.00000000000E+00 0.  1.
</event>
<event>
 7    1  0.5317846E-010  0.4778727E+02  0.7816164E-02  0.1312668E+00
        -11   -1    0    0    0    0  0.00000000000E+00  0.00000000000E+00  0.45593999997E+02  0.45594000000E+02  0.51100000000E-03 0. -1.
         11   -1    0    0    0    0 -0.00000000000E+00 -0.00000000000E+00 -0.45593999997E+02  0.45594000000E+02  0.51100000000E-03 0.  1.
    9900012    2    1    2    0    0  0.20869537252E+02  0.53505695584E+01 -0.37675681251E+02  0.47787272616E+02  0.20000007165E+02 0.  0.
         12    1    1    2    0    0 -0.20869537252E+02 -0.53505695584E+01  0.37675681251E+02  0.43400727384E+02  0.00000000000E+00 0. -1.
         11    1    3    3    0    0  0.12396380193E+02 -0.45124480106E+00 -0.26870453101E+02  0.29595525234E+02  0.51100000000E-03 0.  1.
        -11    1    3    3    0    0  0.56500969174E+01  0.10030208571E+00  0.18874744265E-02  0.56509874808E+01  0.51100000000E-03 0. -1.
         12    1    3    3    0    0  0.28230601418E+01  0.57015122738E+01 -0.10807115624E+02  0.12540759901E+02  0.00000000000E+00 0. -1.
</event>
<event>
 7    1  0.5317846E-010  0.4778728E+02  0.7816164E-02  0.1312668E+00
        -11   -1    0    0    0    0  0.00000000000E+00  0.00000000000E+00  0.45593999997E+02  0.45594000000E+02  0.51100000000E-03 0.  1.
         11   -1    0    0    0    0 -0.00000000000E+00 -0.00000000000E+00 -0.45593999997E+02  0.45594000000E+02  0.51100000000E-03 0. -1.
    9900012    2    1    2    0    0 -0.28317468898E+02  0.32888011621E+02  0.34989762704E+00  0.47787276717E+02  0.20000025862E+02 0.  0.
         12    1    1    2    0    0  0.28317468898E+02 -0.32888011621E+02 -0.34989762704E+00  0.43400723283E+02  0.00000000000E+00 0. -1.
         11    1    3    3    0    0 -0.44252693583E+01  0.15655473874E+02 -0.31705730544E+01  0.16574963194E+02  0.51100000000E-03 0. -1.
        -11    1    3    3    0    0 -0.13900504918E+02  0.41301721970E+01  0.23835203649E+01  0.14695697634E+02  0.51100000000E-03 0.  1.
        -12    1    3    3    0    0 -0.99916946219E+01  0.13102365549E+02  0.11369503166E+01  0.16516615889E+02  0.00000000000E+00 0.  1.
</event>
<event>
 7    1  0.5317846E-010  0.4778728E+02  0.7816164E-02  0.1312668E+00
        -11   -1    0    0    0    0  0.00000000000E+00  0.00000000000E+00  0.45593999997E+02  0.45594000000E+02  0.51100000000E-03 0.  1.
         11   -1    0    0    0    0 -0.00000000000E+00 -0.00000000000E+00 -0.45593999997E+02  0.45594000000E+02  0.51100000000E-03 0. -1.
    9900012    2    1    2    0    0  0.19004893910E+02  0.17436852102E+02  0.34905479560E+02  0.47787282182E+02  0.20000050782E+02 0.  0.
         12    1    1    2    0    0 -0.19004893910E+02 -0.17436852102E+02 -0.34905479560E+02  0.43400717818E+02  0.00000000000E+00 0. -1.
         11    1    3    3    0    0 -0.16389040630E+01  0.77377385779E-01  0.11221347957E+01  0.19877576684E+01  0.51100000000E-03 0. -1.
        -11    1    3    3    0    0  0.21094108277E+02  0.15797512835E+02  0.23257034535E+02  0.35148434835E+02  0.51100000000E-03 0.  1.
        -12    1    3    3    0    0 -0.45031030356E+00  0.15619618813E+01  0.10526310230E+02  0.10651089679E+02  0.00000000000E+00 0.  1.
</event>
<event>
 7    1  0.5317846E-010  0.4778727E+02  0.7816164E-02  0.1312668E+00
        -11   -1    0    0    0    0  0.00000000000E+00  0.00000000000E+00  0.45593999997E+02  0.45594000000E+02  0.51100000000E-03 0. -1.
         11   -1    0    0    0    0 -0.00000000000E+00 -0.00000000000E+00 -0.45593999997E+02  0.45594000000E+02  0.51100000000E-03 0.  1.
    9900012    2    1    2    0    0  0.12425493542E+02 -0.40825917490E+02 -0.79040889468E+01  0.47787273615E+02  0.20000011719E+02 0.  0.
         12    1    1    2    0    0 -0.12425493542E+02  0.40825917490E+02  0.79040889468E+01  0.43400726385E+02  0.00000000000E+00 0. -1.
         11    1    3    3    0    0  0.41524640776E+01 -0.98562985264E+01  0.47337704517E+01  0.11696074620E+02  0.51100000000E-03 0. -1.
        -11    1    3    3    0    0  0.62905511115E+01 -0.25841240118E+02 -0.14493035061E+02  0.30288426663E+02  0.51100000000E-03 0.  1.
        -12    1    3    3    0    0  0.19824783529E+01 -0.51283788455E+01  0.18551756628E+01  0.58027723325E+01  0.00000000000E+00 0.  1.
</event>
<event>
 7    1  0.5317846E-010  0.4778727E+02  0.7816164E-02  0.1312668E+00
        -11   -1    0    0    0    0  0.00000000000E+00  0.00000000000E+00  0.45593999997E+02  0.45594000000E+02  0.51100000000E-03 0.  1.
         11   -1    0    0    0    0 -0.00000000000E+00 -0.00000000000E+00 -0.45593999997E+02  0.45594000000E+02  0.51100000000E-03 0. -1.
    9900012    2    1    2    0    0 -0.18548280701E+02  0.77464308748E+01  0.38465275053E+02  0.47787270822E+02  0.19999998985E+02 0.  0.
         12    1    1    2    0    0  0.18548280701E+02 -0.77464308748E+01 -0.38465275053E+02  0.43400729178E+02  0.00000000000E+00 0. -1.
         11    1    3    3    0    0 -0.69204596739E+00 -0.45809241725E+01  0.19344332920E+01  0.50205404408E+01  0.51100000000E-03 0. -1.
        -11    1    3    3    0    0 -0.13492083144E+02  0.93137690893E+01  0.23098730178E+02  0.28325499789E+02  0.51100000000E-03 0.  1.
         12    1    3    3    0    0 -0.43641515903E+01  0.30135859580E+01  0.13432111583E+02  0.14441230592E+02  0.00000000000E+00 0. -1.
</event>
<event>
 7    1  0.5317846E-010  0.4778727E+02  0.7816164E-02  0.1312668E+00
        -11   -1    0    0    0    0  0.00000000000E+00  0.00000000000E+00  0.45593999997E+02  0.45594000000E+02  0.51100000000E-03 0.  1.
         11   -1    0    0    0    0 -0.00000000000E+00 -0.00000000000E+00 -0.45593999997E+02  0.45594000000E+02  0.51100000000E-03 0. -1.
    9900012    2    1    2    0    0 -0.40945245843E+02 -0.10576641447E+02  0.97593365234E+01  0.47787272462E+02  0.20000006464E+02 0.  0.
         12    1    1    2    0    0  0.40945245843E+02  0.10576641447E+02 -0.97593365234E+01  0.43400727538E+02  0.00000000000E+00 0. -1.
         11    1    3    3    0    0 -0.43963632598E+01  0.12752271944E+01  0.48374842794E+01  0.66599901445E+01  0.51100000000E-03 0. -1.
        -11    1    3    3    0    0 -0.25953570997E+02 -0.18670627028E+01  0.53382760335E+01  0.26562585753E+02  0.51100000000E-03 0.  1.
        -12    1    3    3    0    0 -0.10595311586E+02 -0.99848059389E+01 -0.41642378957E+00  0.14564696564E+02  0.00000000000E+00 0.  1.
</event>
<event>
 7    1  0.5317846E-010  0.4778728E+02  0.7816164E-02  0.1312668E+00
        -11   -1    0    0    0    0  0.00000000000E+00  0.00000000000E+00  0.45593999997E+02  0.45594000000E+02  0.51100000000E-03 0. -1.
         11   -1    0    0    0    0 -0.00000000000E+00 -0.00000000000E+00 -0.45593999997E+02  0.45594000000E+02  0.51100000000E-03 0.  1.
    9900012    2    1    2    0    0 -0.30847247543E+02  0.11757773255E+02 -0.28174898521E+02  0.47787276279E+02  0.20000023864E+02 0.  0.
         12    1    1    2    0    0  0.30847247543E+02 -0.11757773255E+02  0.28174898521E+02  0.43400723721E+02  0.00000000000E+00 0. -1.
         11    1    3    3    0    0 -0.74927245926E+01 -0.40947233544E+00 -0.74172801377E+01  0.10551048968E+02  0.51100000000E-03 0. -1.
        -11    1    3    3    0    0 -0.25766586169E+02  0.11524641889E+02 -0.17818466878E+02  0.33380115272E+02  0.51100000000E-03 0.  1.
        -12    1    3    3    0    0  0.24120632180E+01  0.64260370083E+00 -0.29391515051E+01  0.38561120386E+01  0.00000000000E+00 0.  1.
</event>
<event>
 7    1  0.5317846E-010  0.4778727E+02  0.7816164E-02  0.1312668E+00
        -11   -1    0    0    0    0  0.00000000000E+00  0.00000000000E+00  0.45593999997E+02  0.45594000000E+02  0.51100000000E-03 0.  1.
         11   -1    0    0    0    0 -0.00000000000E+00 -0.00000000000E+00 -0.45593999997E+02  0.45594000000E+02  0.51100000000E-03 0. -1.
    9900012    2    1    2    0    0  0.10347530871E+02 -0.41129867874E+02 -0.92133450931E+01  0.47787272423E+02  0.20000006284E+02 0.  0.
         12    1    1    2    0    0 -0.10347530871E+02  0.41129867874E+02  0.92133450931E+01  0.43400727577E+02  0.00000000000E+00 0. -1.
         11    1    3    3    0    0  0.25878646814E+01 -0.18710110254E+01 -0.45281437594E+01  0.55409215870E+01  0.51100000000E-03 0. -1.
        -11    1    3    3    0    0  0.88271402040E+01 -0.33218896949E+02  0.25190589811E+00  0.34372619562E+02  0.51100000000E-03 0.  1.
         12    1    3    3    0    0 -0.10674740142E+01 -0.60399598991E+01 -0.49371072318E+01  0.78737312738E+01  0.00000000000E+00 0. -1.
</event>
<event>
 7    1  0.5317846E-010  0.4778730E+02  0.7816164E-02  0.1312668E+00
        -11   -1    0    0    0    0  0.00000000000E+00  0.00000000000E+00  0.45593999997E+02  0.45594000000E+02  0.51100000000E-03 0. -1.
         11   -1    0    0    0    0 -0.00000000000E+00 -0.00000000000E+00 -0.45593999997E+02  0.45594000000E+02  0.51100000000E-03 0.  1.
    9900012    2    1    2    0    0  0.14543545691E+02  0.67709162175E+00 -0.40885788623E+02  0.47787298558E+02  0.20000125445E+02 0.  0.
         12    1    1    2    0    0 -0.14543545691E+02 -0.67709162175E+00  0.40885788623E+02  0.43400701442E+02  0.00000000000E+00 0. -1.
         11    1    3    3    0    0 -0.97231891279E+00 -0.22778629869E+01 -0.30820884023E+01  0.39539009897E+01  0.51100000000E-03 0. -1.
        -11    1    3    3    0    0  0.63379251818E+01 -0.44816200671E+01 -0.26000615359E+02  0.27134594401E+02  0.51100000000E-03 0.  1.
        -12    1    3    3    0    0  0.91779394223E+01  0.74365746758E+01 -0.11803084862E+02  0.16698803167E+02  0.00000000000E+00 0.  1.
</event>
<event>
 7    1  0.5317846E-010  0.4778727E+02  0.7816164E-02  0.1312668E+00
        -11   -1    0    0    0    0  0.00000000000E+00  0.00000000000E+00  0.45593999997E+02  0.45594000000E+02  0.51100000000E-03 0.  1.
         11   -1    0    0    0    0 -0.00000000000E+00 -0.00000000000E+00 -0.45593999997E+02  0.45594000000E+02  0.51100000000E-03 0. -1.
    9900012    2    1    2    0    0  0.16708097192E+02 -0.12116627081E+01  0.40037415103E+02  0.47787271361E+02  0.20000001443E+02 0.  0.
         12    1    1    2    0    0 -0.16708097192E+02  0.12116627081E+01 -0.40037415103E+02  0.43400728639E+02  0.00000000000E+00 0. -1.
         11    1    3    3    0    0  0.62213324282E+01 -0.10549976944E+01  0.58828394283E+01  0.86270387340E+01  0.51100000000E-03 0. -1.
        -11    1    3    3    0    0  0.55905610913E+01 -0.80523652924E+01  0.19125572410E+02  0.21491451333E+02  0.51100000000E-03 0.  1.
        -12    1    3    3    0    0  0.48962036720E+01  0.78957002786E+01  0.15029003265E+02  0.17668781294E+02  0.00000000000E+00 0.  1.
</event>
<event>
 7    1  0.5317846E-010  0.4778727E+02  0.7816164E-02  0.1312668E+00
        -11   -1    0    0    0    0  0.00000000000E+00  0.00000000000E+00  0.45593999997E+02  0.45594000000E+02  0.51100000000E-03 0.  1.
         11   -1    0    0    0    0 -0.00000000000E+00 -0.00000000000E+00 -0.45593999997E+02  0.45594000000E+02  0.51100000000E-03 0. -1.
    9900012    2    1    2    0    0  0.36246944802E+02 -0.12635134945E+02  0.20251816965E+02  0.47787265756E+02  0.19999975886E+02 0.  0.
         12    1    1    2    0    0 -0.36246944802E+02  0.12635134945E+02 -0.20251816965E+02  0.43400734244E+02  0.00000000000E+00 0. -1.
         11    1    3    3    0    0 -0.17656940177E+01 -0.15897437235E+01  0.39772488180E+01  0.46328683223E+01  0.51100000000E-03 0. -1.
        -11    1    3    3    0    0  0.21182844897E+02 -0.60782630731E+01  0.12003223649E+02  0.25094532834E+02  0.51100000000E-03 0.  1.
         12    1    3    3    0    0  0.16829793923E+02 -0.49671281483E+01  0.42713444981E+01  0.18059864599E+02  0.00000000000E+00 0. -1.
</event>
<event>
 7    1  0.5317846E-010  0.4778728E+02  0.7816164E-02  0.1312668E+00
        -11   -1    0    0    0    0  0.00000000000E+00  0.00000000000E+00  0.45593999997E+02  0.45594000000E+02  0.51100000000E-03 0.  1.
         11   -1    0    0    0    0 -0.00000000000E+00 -0.00000000000E+00 -0.45593999997E+02  0.45594000000E+02  0.51100000000E-03 0. -1.
    9900012    2    1    2    0    0  0.16371958405E+02 -0.40041397818E+02 -0.35025745712E+01  0.47787278924E+02  0.20000035927E+02 0.  0.
         12    1    1    2    0    0 -0.16371958405E+02  0.40041397818E+02  0.35025745712E+01  0.43400721076E+02  0.00000000000E+00 0. -1.
         11    1    3    3    0    0  0.20404737412E+02 -0.36636280286E+02 -0.24436988661E+01  0.42006451962E+02  0.51100000000E-03 0. -1.
        -11    1    3    3    0    0 -0.30126552043E+01 -0.35397660013E+01 -0.76542744326E+00  0.47108294552E+01  0.51100000000E-03 0.  1.
         12    1    3    3    0    0 -0.10201238022E+01  0.13464846892E+00 -0.29344826180E+00  0.10699975067E+01  0.00000000000E+00 0. -1.
</event>
<event>
 7    1  0.5317846E-010  0.4778727E+02  0.7816164E-02  0.1312668E+00
        -11   -1    0    0    0    0  0.00000000000E+00  0.00000000000E+00  0.45593999997E+02  0.45594000000E+02  0.51100000000E-03 0.  1.
         11   -1    0    0    0    0 -0.00000000000E+00 -0.00000000000E+00 -0.45593999997E+02  0.45594000000E+02  0.51100000000E-03 0. -1.
    9900012    2    1    2    0    0 -0.17758860764E+02 -0.13960297239E+02  0.37058821473E+02  0.47787270932E+02  0.19999999487E+02 0.  0.
         12    1    1    2    0    0  0.17758860764E+02  0.13960297239E+02 -0.37058821473E+02  0.43400729068E+02  0.00000000000E+00 0. -1.
         11    1    3    3    0    0 -0.13831543503E+02 -0.66270240220E+01  0.10275389506E+02  0.18461112448E+02  0.51100000000E-03 0.  1.
        -11    1    3    3    0    0 -0.53224081972E+01 -0.85419772354E+01  0.23384043305E+02  0.25457943469E+02  0.51100000000E-03 0. -1.
        -12    1    3    3    0    0  0.13950909363E+01  0.12087040181E+01  0.33993886623E+01  0.38682150149E+01  0.00000000000E+00 0.  1.
</event>
<event>
 7    1  0.5317846E-010  0.4778725E+02  0.7816164E-02  0.1312668E+00
        -11   -1    0    0    0    0  0.00000000000E+00  0.00000000000E+00  0.45593999997E+02  0.45594000000E+02  0.51100000000E-03 0. -1.
         11   -1    0    0    0    0 -0.00000000000E+00 -0.00000000000E+00 -0.45593999997E+02  0.45594000000E+02  0.51100000000E-03 0.  1.
    9900012    2    1    2    0    0 -0.28222483498E+02  0.29817607178E+02 -0.14072196208E+02  0.47787251404E+02  0.19999910450E+02 0.  0.
         12    1    1    2    0    0  0.28222483498E+02 -0.29817607178E+02  0.14072196208E+02  0.43400748596E+02  0.00000000000E+00 0. -1.
         11    1    3    3    0    0 -0.65508319778E+01 -0.10237525122E+01  0.13204444207E+01  0.67605504611E+01  0.51100000000E-03 0. -1.
        -11    1    3    3    0    0 -0.63831295579E+01  0.12051461529E+02 -0.74144742983E+01  0.15522773506E+02  0.51100000000E-03 0.  1.
         12    1    3    3    0    0 -0.15288521962E+02  0.18789898161E+02 -0.79781663301E+01  0.25503927436E+02  0.00000000000E+00 0. -1.
</event>
<event>
 7    1  0.7074469E-010  0.4778727E+02  0.7816164E-02  0.1312668E+00
        -11   -1    0    0    0    0  0.00000000000E+00  0.00000000000E+00  0.45593999997E+02  0.45594000000E+02  0.51100000000E-03 0. -1.
         11   -1    0    0    0    0 -0.00000000000E+00 -0.00000000000E+00 -0.45593999997E+02  0.45594000000E+02  0.51100000000E-03 0.  1.
    9900012    2    1    2    0    0 -0.27623240810E+02  0.15699884577E+02 -0.29565072989E+02  0.47787270174E+02  0.19999996033E+02 0.  0.
         12    1    1    2    0    0  0.27623240810E+02 -0.15699884577E+02  0.29565072989E+02  0.43400729826E+02  0.00000000000E+00 0. -1.
         11    1    3    3    0    0 -0.22627422952E+02  0.15776499828E+02 -0.22708015527E+02  0.35728870479E+02  0.51100000000E-03 0.  1.
        -11    1    3    3    0    0 -0.63339193644E+01  0.18395173875E+01 -0.71212343705E+01  0.97064070569E+01  0.51100000000E-03 0. -1.
         12    1    3    3    0    0  0.13381015067E+01 -0.19161326387E+01  0.26417690909E+00  0.23519926383E+01  0.00000000000E+00 0. -1.
</event>
<event>
 7    1  0.5317846E-010  0.4778727E+02  0.7816164E-02  0.1312668E+00
        -11   -1    0    0    0    0  0.00000000000E+00  0.00000000000E+00  0.45593999997E+02  0.45594000000E+02  0.51100000000E-03 0.  1.
         11   -1    0    0    0    0 -0.00000000000E+00 -0.00000000000E+00 -0.45593999997E+02  0.45594000000E+02  0.51100000000E-03 0. -1.
    9900012    2    1    2    0    0  0.11657991799E+02  0.15314864304E+02  0.38899477312E+02  0.47787272165E+02  0.20000005111E+02 0.  0.
         12    1    1    2    0    0 -0.11657991799E+02 -0.15314864304E+02 -0.38899477312E+02  0.43400727835E+02  0.00000000000E+00 0. -1.
         11    1    3    3    0    0  0.72870933793E+01  0.92011655686E+01  0.11200136564E+02  0.16223632055E+02  0.51100000000E-03 0. -1.
        -11    1    3    3    0    0 -0.82453112507E+00  0.60197191129E+01  0.24961266158E+02  0.25690108568E+02  0.51100000000E-03 0.  1.
        -12    1    3    3    0    0  0.51954295445E+01  0.93979622729E-01  0.27380745903E+01  0.58735315427E+01  0.00000000000E+00 0.  1.
</event>
<event>
 7    1  0.5317846E-010  0.4778727E+02  0.7816164E-02  0.1312668E+00
        -11   -1    0    0    0    0  0.00000000000E+00  0.00000000000E+00  0.45593999997E+02  0.45594000000E+02  0.51100000000E-03 0.  1.
         11   -1    0    0    0    0 -0.00000000000E+00 -0.00000000000E+00 -0.45593999997E+02  0.45594000000E+02  0.51100000000E-03 0. -1.
    9900012    2    1    2    0    0 -0.28680162367E+02  0.25322294319E+02  0.20490315935E+02  0.47787270166E+02  0.19999995997E+02 0.  0.
         12    1    1    2    0    0  0.28680162367E+02 -0.25322294319E+02 -0.20490315935E+02  0.43400729834E+02  0.00000000000E+00 0. -1.
         11    1    3    3    0    0 -0.37340727742E+01  0.11460418819E+02  0.10968934201E+01  0.12103209261E+02  0.51100000000E-03 0. -1.
        -11    1    3    3    0    0 -0.24525397099E+02  0.12367013479E+02  0.15606637183E+02  0.31591221086E+02  0.51100000000E-03 0.  1.
         12    1    3    3    0    0 -0.42069249319E+00  0.14948620214E+01  0.37867853319E+01  0.40928398193E+01  0.00000000000E+00 0. -1.
</event>
<event>
 7    1 -0.5317846E-010  0.4778727E+02  0.7816164E-02  0.1312668E+00
        -11   -1    0    0    0    0  0.00000000000E+00  0.00000000000E+00  0.45593999997E+02  0.45594000000E+02  0.51100000000E-03 0.  1.
         11   -1    0    0    0    0 -0.00000000000E+00 -0.00000000000E+00 -0.45593999997E+02  0.45594000000E+02  0.51100000000E-03 0. -1.
    9900012    2    1    2    0    0 -0.53407619875E+01  0.27827917447E+02  0.32874106668E+02  0.47787267089E+02  0.19999981964E+02 0.  0.
         12    1    1    2    0    0  0.53407619875E+01 -0.27827917447E+02 -0.32874106668E+02  0.43400732911E+02  0.00000000000E+00 0. -1.
         11    1    3    3    0    0  0.24777735342E+01  0.19960822120E+02  0.19991004390E+02  0.28358667778E+02  0.51100000000E-03 0. -1.
        -11    1    3    3    0    0 -0.26692653727E+01  0.62999637519E+01  0.17495748052E+01  0.70622611935E+01  0.51100000000E-03 0.  1.
         12    1    3    3    0    0 -0.51492701489E+01  0.15671315756E+01  0.11133527473E+02  0.12366338117E+02  0.00000000000E+00 0. -1.
</event>
<event>
 7    1  0.5317846E-010  0.4778726E+02  0.7816164E-02  0.1312668E+00
        -11   -1    0    0    0    0  0.00000000000E+00  0.00000000000E+00  0.45593999997E+02  0.45594000000E+02  0.51100000000E-03 0.  1.
         11   -1    0    0    0    0 -0.00000000000E+00 -0.00000000000E+00 -0.45593999997E+02  0.45594000000E+02  0.51100000000E-03 0. -1.
    9900012    2    1    2    0    0  0.12677006957E+02 -0.10407672970E+01  0.41494999060E+02  0.47787255203E+02  0.19999927772E+02 0.  0.
         12    1    1    2    0    0 -0.12677006957E+02  0.10407672970E+01 -0.41494999060E+02  0.43400744797E+02  0.00000000000E+00 0. -1.
         11    1    3    3    0    0  0.18670449915E+01 -0.31063982180E+01  0.26257197588E+02  0.26506150085E+02  0.51100000000E-03 0. -1.
        -11    1    3    3    0    0  0.11098388550E+02 -0.21691796394E+00  0.15389745740E+02  0.18975393435E+02  0.51100000000E-03 0.  1.
         12    1    3    3    0    0 -0.28842658450E+00  0.22825488850E+01 -0.15194426756E+00  0.23057116835E+01  0.00000000000E+00 0. -1.
</event>
<event>
 7    1  0.5317846E-010  0.4778728E+02  0.7816164E-02  0.1312668E+00
        -11   -1    0    0    0    0  0.00000000000E+00  0.00000000000E+00  0.45593999997E+02  0.45594000000E+02  0.51100000000E-03 0.  1.
         11   -1    0    0    0    0 -0.00000000000E+00 -0.00000000000E+00 -0.45593999997E+02  0.45594000000E+02  0.51100000000E-03 0. -1.
    9900012    2    1    2    0    0  0.12772128536E+02 -0.15850570223E+02  0.38330863346E+02  0.47787275022E+02  0.20000018137E+02 0.  0.
         12    1    1    2    0    0 -0.12772128536E+02  0.15850570223E+02 -0.38330863346E+02  0.43400724978E+02  0.00000000000E+00 0. -1.
         11    1    3    3    0    0 -0.27763599951E+01 -0.42333784417E+01  0.18949880881E+02  0.19614475612E+02  0.51100000000E-03 0. -1.
        -11    1    3    3    0    0  0.71420176124E+01 -0.92289860180E+01  0.11929145477E+02  0.16687933083E+02  0.51100000000E-03 0.  1.
         12    1    3    3    0    0  0.84064709186E+01 -0.23882057632E+01  0.74518369878E+01  0.11484866328E+02  0.00000000000E+00 0. -1.
</event>
<event>
 7    1  0.5317846E-010  0.4778727E+02  0.7816164E-02  0.1312668E+00
        -11   -1    0    0    0    0  0.00000000000E+00  0.00000000000E+00  0.45593999997E+02  0.45594000000E+02  0.51100000000E-03 0. -1.
         11   -1    0    0    0    0 -0.00000000000E+00 -0.00000000000E+00 -0.45593999997E+02  0.45594000000E+02  0.51100000000E-03 0.  1.
    9900012    2    1    2    0    0 -0.10802449834E+02 -0.33428711222E+02 -0.25484335404E+02  0.47787274115E+02  0.20000013999E+02 0.  0.
         12    1    1    2    0    0  0.10802449834E+02  0.33428711222E+02  0.25484335404E+02  0.43400725885E+02  0.00000000000E+00 0. -1.
         11    1    3    3    0    0 -0.47554730416E+01  0.71729521979E+00 -0.32197572053E+01  0.57875619222E+01  0.51100000000E-03 0. -1.
        -11    1    3    3    0    0 -0.57323745655E+01 -0.20062674166E+02 -0.17163513302E+02  0.27017720147E+02  0.51100000000E-03 0.  1.
         12    1    3    3    0    0 -0.31460222671E+00 -0.14083332276E+02 -0.51010648971E+01  0.14981992045E+02  0.00000000000E+00 0. -1.
</event>
<event>
 7    1  0.5317846E-010  0.4778727E+02  0.7816164E-02  0.1312668E+00
        -11   -1    0    0    0    0  0.00000000000E+00  0.00000000000E+00  0.45593999997E+02  0.45594000000E+02  0.51100000000E-03 0.  1.
         11   -1    0    0    0    0 -0.00000000000E+00 -0.00000000000E+00 -0.45593999997E+02  0.45594000000E+02  0.51100000000E-03 0. -1.
    9900012    2    1    2    0    0  0.30810743800E+02 -0.30136783760E+02  0.51083919167E+01  0.47787270319E+02  0.19999996692E+02 0.  0.
         12    1    1    2    0    0 -0.30810743800E+02  0.30136783760E+02 -0.51083919167E+01  0.43400729681E+02  0.00000000000E+00 0. -1.
         11    1    3    3    0    0  0.21259306242E+02 -0.11744133333E+02 -0.39405891183E+01  0.24605101351E+02  0.51100000000E-03 0. -1.
        -11    1    3    3    0    0  0.55000579880E+01 -0.95326569908E+01  0.74983842563E+01  0.13317205183E+02  0.51100000000E-03 0.  1.
         12    1    3    3    0    0  0.40513795700E+01 -0.88599934364E+01  0.15505967787E+01  0.98649637852E+01  0.00000000000E+00 0. -1.
</event>
<event>
 7    1  0.5317846E-010  0.4778727E+02  0.7816164E-02  0.1312668E+00
        -11   -1    0    0    0    0  0.00000000000E+00  0.00000000000E+00  0.45593999997E+02  0.45594000000E+02  0.51100000000E-03 0.  1.
         11   -1    0    0    0    0 -0.00000000000E+00 -0.00000000000E+00 -0.45593999997E+02  0.45594000000E+02  0.51100000000E-03 0. -1.
    9900012    2    1    2    0    0 -0.24128292751E+02 -0.23983288832E+02  0.26949032870E+02  0.47787273889E+02  0.20000012971E+02 0.  0.
         12    1    1    2    0    0  0.24128292751E+02  0.23983288832E+02 -0.26949032870E+02  0.43400726111E+02  0.00000000000E+00 0. -1.
         11    1    3    3    0    0 -0.89338180798E+01 -0.15604520647E+02  0.15586533245E+02  0.23796096087E+02  0.51100000000E-03 0. -1.
        -11    1    3    3    0    0 -0.78213998326E+01  0.22500456264E+01  0.52407454210E+01  0.96800006969E+01  0.51100000000E-03 0.  1.
         12    1    3    3    0    0 -0.73730748387E+01 -0.10628813812E+02  0.61217542042E+01  0.14311177106E+02  0.00000000000E+00 0. -1.
</event>
<event>
 7    1  0.5317846E-010  0.4778727E+02  0.7816164E-02  0.1312668E+00
        -11   -1    0    0    0    0  0.00000000000E+00  0.00000000000E+00  0.45593999997E+02  0.45594000000E+02  0.51100000000E-03 0.  1.
         11   -1    0    0    0    0 -0.00000000000E+00 -0.00000000000E+00 -0.45593999997E+02  0.45594000000E+02  0.51100000000E-03 0. -1.
    9900012    2    1    2    0    0  0.15110832538E+02  0.24047425933E+02  0.32817788937E+02  0.47787271610E+02  0.20000002580E+02 0.  0.
         12    1    1    2    0    0 -0.15110832538E+02 -0.24047425933E+02 -0.32817788937E+02  0.43400728390E+02  0.00000000000E+00 0. -1.
         11    1    3    3    0    0  0.13966622737E+02  0.92537807366E+01  0.84234820104E+01  0.18752441389E+02  0.51100000000E-03 0. -1.
        -11    1    3    3    0    0 -0.14516294634E+01  0.84000365823E+01  0.10528416534E+02  0.13546785510E+02  0.51100000000E-03 0.  1.
         12    1    3    3    0    0  0.25958392650E+01  0.63936086141E+01  0.13865890393E+02  0.15488044711E+02  0.00000000000E+00 0. -1.
</event>
<event>
 7    1  0.5317846E-010  0.4778727E+02  0.7816164E-02  0.1312668E+00
        -11   -1    0    0    0    0  0.00000000000E+00  0.00000000000E+00  0.45593999997E+02  0.45594000000E+02  0.51100000000E-03 0.  1.
         11   -1    0    0    0    0 -0.00000000000E+00 -0.00000000000E+00 -0.45593999997E+02  0.45594000000E+02  0.51100000000E-03 0. -1.
    9900012    2    1    2    0    0 -0.91222130332E+00 -0.30703850025E+01  0.43282373325E+02  0.47787271291E+02  0.20000001126E+02 0.  0.
         12    1    1    2    0    0  0.91222130332E+00  0.30703850025E+01 -0.43282373325E+02  0.43400728709E+02  0.00000000000E+00 0. -1.
         11    1    3    3    0    0  0.18197309272E+00 -0.55978240255E+01  0.26489606705E+02  0.27075228746E+02  0.51100000000E-03 0. -1.
        -11    1    3    3    0    0 -0.30822187144E+01  0.66300080783E+01  0.12315218333E+02  0.14322069759E+02  0.51100000000E-03 0.  1.
         12    1    3    3    0    0  0.19880243184E+01 -0.41025690553E+01  0.44775482875E+01  0.63899727864E+01  0.00000000000E+00 0. -1.
</event>
<event>
 7    1  0.5317846E-010  0.4778727E+02  0.7816164E-02  0.1312668E+00
        -11   -1    0    0    0    0  0.00000000000E+00  0.00000000000E+00  0.45593999997E+02  0.45594000000E+02  0.51100000000E-03 0. -1.
         11   -1    0    0    0    0 -0.00000000000E+00 -0.00000000000E+00 -0.45593999997E+02  0.45594000000E+02  0.51100000000E-03 0.  1.
    9900012    2    1    2    0    0  0.37601486265E+02  0.21551789280E+02 -0.22960398587E+01  0.47787272016E+02  0.20000004428E+02 0.  0.
         12    1    1    2    0    0 -0.37601486265E+02 -0.21551789280E+02  0.22960398587E+01  0.43400727984E+02  0.00000000000E+00 0. -1.
         11    1    3    3    0    0  0.15184509661E+01 -0.10848213039E+01 -0.33446982549E+01  0.38300831943E+01  0.51100000000E-03 0. -1.
        -11    1    3    3    0    0  0.20972709341E+02  0.11615964320E+02  0.57885468627E+01  0.24663585288E+02  0.51100000000E-03 0.  1.
        -12    1    3    3    0    0  0.15110325958E+02  0.11020646264E+02 -0.47398884665E+01  0.19293603534E+02  0.00000000000E+00 0.  1.
</event>
<event>
 7    1  0.5317846E-010  0.4778727E+02  0.7816164E-02  0.1312668E+00
        -11   -1    0    0    0    0  0.00000000000E+00  0.00000000000E+00  0.45593999997E+02  0.45594000000E+02  0.51100000000E-03 0.  1.
         11   -1    0    0    0    0 -0.00000000000E+00 -0.00000000000E+00 -0.45593999997E+02  0.45594000000E+02  0.51100000000E-03 0. -1.
    9900012    2    1    2    0    0 -0.16197918781E+02 -0.25494622930E+02  0.31165281341E+02  0.47787272676E+02  0.20000007439E+02 0.  0.
         12    1    1    2    0    0  0.16197918781E+02  0.25494622930E+02 -0.31165281341E+02  0.43400727324E+02  0.00000000000E+00 0. -1.
         11    1    3    3    0    0 -0.79442899120E+01 -0.80150634815E+00  0.42152107459E+01  0.90289620958E+01  0.51100000000E-03 0. -1.
        -11    1    3    3    0    0 -0.10430662634E+02 -0.19834258405E+02  0.20279501008E+02  0.30223412958E+02  0.51100000000E-03 0.  1.
        -12    1    3    3    0    0  0.21770337653E+01 -0.48588581764E+01  0.66705695875E+01  0.85348976218E+01  0.00000000000E+00 0.  1.
</event>
<event>
 7    1  0.5317846E-010  0.4778730E+02  0.7816164E-02  0.1312668E+00
        -11   -1    0    0    0    0  0.00000000000E+00  0.00000000000E+00  0.45593999997E+02  0.45594000000E+02  0.51100000000E-03 0.  1.
         11   -1    0    0    0    0 -0.00000000000E+00 -0.00000000000E+00 -0.45593999997E+02  0.45594000000E+02  0.51100000000E-03 0. -1.
    9900012    2    1    2    0    0 -0.43363922372E+01 -0.32046103214E+02  0.28945877587E+02  0.47787298875E+02  0.20000126890E+02 0.  0.
         12    1    1    2    0    0  0.43363922372E+01  0.32046103214E+02 -0.28945877587E+02  0.43400701125E+02  0.00000000000E+00 0. -1.
         11    1    3    3    0    0  0.35867948672E+01 -0.30434746257E+01  0.11747337760E+01  0.48484879006E+01  0.51100000000E-03 0. -1.
        -11    1    3    3    0    0 -0.76026698682E+01 -0.27755375801E+02  0.29212147549E+02  0.41006231717E+02  0.51100000000E-03 0.  1.
        -12    1    3    3    0    0 -0.32051723618E+00 -0.12472527878E+01 -0.14410037373E+01  0.19325792574E+01  0.00000000000E+00 0.  1.
</event>
<event>
 7    1  0.5317846E-010  0.4778727E+02  0.7816164E-02  0.1312668E+00
        -11   -1    0    0    0    0  0.00000000000E+00  0.00000000000E+00  0.45593999997E+02  0.45594000000E+02  0.51100000000E-03 0.  1.
         11   -1    0    0    0    0 -0.00000000000E+00 -0.00000000000E+00 -0.45593999997E+02  0.45594000000E+02  0.51100000000E-03 0. -1.
    9900012    2    1    2    0    0  0.41701045886E+02 -0.42158433611E+01  0.11263791498E+02  0.47787267723E+02  0.19999984858E+02 0.  0.
         12    1    1    2    0    0 -0.41701045886E+02  0.42158433611E+01 -0.11263791498E+02  0.43400732277E+02  0.00000000000E+00 0. -1.
         11    1    3    3    0    0  0.84124185147E+01 -0.63243682136E+01  0.95187580209E+00  0.10567520351E+02  0.51100000000E-03 0. -1.
        -11    1    3    3    0    0  0.24740605401E+02  0.31486119640E+01  0.16326422486E+01  0.24993535842E+02  0.51100000000E-03 0.  1.
        -12    1    3    3    0    0  0.85480219702E+01 -0.10400871116E+01  0.86792734477E+01  0.12226211530E+02  0.00000000000E+00 0.  1.
</event>
<event>
 7    1  0.5317846E-010  0.4778727E+02  0.7816164E-02  0.1312668E+00
        -11   -1    0    0    0    0  0.00000000000E+00  0.00000000000E+00  0.45593999997E+02  0.45594000000E+02  0.51100000000E-03 0.  1.
         11   -1    0    0    0    0 -0.00000000000E+00 -0.00000000000E+00 -0.45593999997E+02  0.45594000000E+02  0.51100000000E-03 0. -1.
    9900012    2    1    2    0    0 -0.15295922704E+02 -0.14330946841E+02  0.38003709554E+02  0.47787271566E+02  0.20000002380E+02 0.  0.
         12    1    1    2    0    0  0.15295922704E+02  0.14330946841E+02 -0.38003709554E+02  0.43400728434E+02  0.00000000000E+00 0. -1.
         11    1    3    3    0    0  0.33925458673E+01 -0.57757189920E+01  0.40024189815E+01  0.78030542290E+01  0.51100000000E-03 0. -1.
        -11    1    3    3    0    0 -0.11395379609E+02 -0.75441738435E+01  0.22681337441E+02  0.26480413587E+02  0.51100000000E-03 0.  1.
         12    1    3    3    0    0 -0.72930889624E+01 -0.10110540051E+01  0.11319953132E+02  0.13503803750E+02  0.00000000000E+00 0. -1.
</event>
<event>
 7    1  0.5530570E-010  0.4778727E+02  0.7816164E-02  0.1312668E+00
        -11   -1    0    0    0    0  0.00000000000E+00  0.00000000000E+00  0.45593999997E+02  0.45594000000E+02  0.51100000000E-03 0.  1.
         11   -1    0    0    0    0 -0.00000000000E+00 -0.00000000000E+00 -0.45593999997E+02  0.45594000000E+02  0.51100000000E-03 0. -1.
    9900012    2    1    2    0    0  0.70578167052E+01  0.37618846205E+02  0.20460518231E+02  0.47787272210E+02  0.20000005313E+02 0.  0.
         12    1    1    2    0    0 -0.70578167052E+01 -0.37618846205E+02 -0.20460518231E+02  0.43400727790E+02  0.00000000000E+00 0. -1.
         11    1    3    3    0    0  0.31009368808E+01  0.67796424713E-01  0.82801441512E+00  0.32102981211E+01  0.51100000000E-03 0. -1.
        -11    1    3    3    0    0 -0.50962114701E+00  0.19775535268E+02  0.16955972755E+02  0.26054491382E+02  0.51100000000E-03 0.  1.
        -12    1    3    3    0    0  0.44665009715E+01  0.17775514512E+02  0.26765310618E+01  0.18522482707E+02  0.00000000000E+00 0.  1.
</event>
<event>
 7    1  0.5317846E-010  0.4778727E+02  0.7816164E-02  0.1312668E+00
        -11   -1    0    0    0    0  0.00000000000E+00  0.00000000000E+00  0.45593999997E+02  0.45594000000E+02  0.51100000000E-03 0.  1.
         11   -1    0    0    0    0 -0.00000000000E+00 -0.00000000000E+00 -0.45593999997E+02  0.45594000000E+02  0.51100000000E-03 0. -1.
    9900012    2    1    2    0    0  0.32330389268E+02  0.23460791504E+02  0.16969404762E+02  0.47787268368E+02  0.19999987799E+02 0.  0.
         12    1    1    2    0    0 -0.32330389268E+02 -0.23460791504E+02 -0.16969404762E+02  0.43400731632E+02  0.00000000000E+00 0. -1.
         11    1    3    3    0    0  0.28672792317E+02  0.15835574481E+02  0.11425464213E+02  0.34690570349E+02  0.51100000000E-03 0. -1.
        -11    1    3    3    0    0  0.62940171567E+01  0.51305745334E+01  0.46549962988E+01  0.93598310783E+01  0.51100000000E-03 0.  1.
         12    1    3    3    0    0 -0.26364202063E+01  0.24946424898E+01  0.88894424978E+00  0.37368669411E+01  0.00000000000E+00 0. -1.
</event>
<event>
 7    1  0.5317846E-010  0.4778728E+02  0.7816164E-02  0.1312668E+00
        -11   -1    0    0    0    0  0.00000000000E+00  0.00000000000E+00  0.45593999997E+02  0.45594000000E+02  0.51100000000E-03 0.  1.
         11   -1    0    0    0    0 -0.00000000000E+00 -0.00000000000E+00 -0.45593999997E+02  0.45594000000E+02  0.51100000000E-03 0. -1.
    9900012    2    1    2    0    0  0.41107455581E+02 -0.12306134192E+01  0.13866700050E+02  0.47787277840E+02  0.20000030983E+02 0.  0.
         12    1    1    2    0    0 -0.41107455581E+02  0.12306134192E+01 -0.13866700050E+02  0.43400722160E+02  0.00000000000E+00 0. -1.
         11    1    3    3    0    0  0.19742160656E+00 -0.17995927967E+01 -0.18012570551E+01  0.25538278651E+01  0.51100000000E-03 0. -1.
        -11    1    3    3    0    0  0.21618315170E+02  0.89983272485E+00  0.14205526127E+02  0.25883551197E+02  0.51100000000E-03 0.  1.
        -12    1    3    3    0    0  0.19291718804E+02 -0.33085334738E+00  0.14624309783E+01  0.19349898778E+02  0.00000000000E+00 0.  1.
</event>
<event>
 7    1  0.5317846E-010  0.4778727E+02  0.7816164E-02  0.1312668E+00
        -11   -1    0    0    0    0  0.00000000000E+00  0.00000000000E+00  0.45593999997E+02  0.45594000000E+02  0.51100000000E-03 0.  1.
         11   -1    0    0    0    0 -0.00000000000E+00 -0.00000000000E+00 -0.45593999997E+02  0.45594000000E+02  0.51100000000E-03 0. -1.
    9900012    2    1    2    0    0  0.27037586062E+02  0.89819688191E+01  0.32740133959E+02  0.47787271946E+02  0.20000004113E+02 0.  0.
         12    1    1    2    0    0 -0.27037586062E+02 -0.89819688191E+01 -0.32740133959E+02  0.43400728054E+02  0.00000000000E+00 0. -1.
         11    1    3    3    0    0  0.14171230271E+02  0.23835679001E+01  0.74902674711E+01  0.16205223552E+02  0.51100000000E-03 0. -1.
        -11    1    3    3    0    0  0.11276748367E+02  0.53852594298E+01  0.26447450846E+02  0.29251217570E+02  0.51100000000E-03 0.  1.
         12    1    3    3    0    0  0.15896074239E+01  0.12131414891E+01 -0.11975843577E+01  0.23308308237E+01  0.00000000000E+00 0. -1.
</event>
<event>
 7    1  0.5317846E-010  0.4778728E+02  0.7816164E-02  0.1312668E+00
        -11   -1    0    0    0    0  0.00000000000E+00  0.00000000000E+00  0.45593999997E+02  0.45594000000E+02  0.51100000000E-03 0.  1.
         11   -1    0    0    0    0 -0.00000000000E+00 -0.00000000000E+00 -0.45593999997E+02  0.45594000000E+02  0.51100000000E-03 0. -1.
    9900012    2    1    2    0    0  0.10934077809E+01  0.43070439735E+02 -0.52310972695E+01  0.47787277677E+02  0.20000030241E+02 0.  0.
         12    1    1    2    0    0 -0.10934077809E+01 -0.43070439735E+02  0.52310972695E+01  0.43400722323E+02  0.00000000000E+00 0. -1.
         11    1    3    3    0    0 -0.94835893025E+00 -0.11179830223E+01  0.18182978805E+01  0.23356965004E+01  0.51100000000E-03 0. -1.
        -11    1    3    3    0    0 -0.11079537580E+01  0.24962158397E+02 -0.83043324394E+00  0.25000530654E+02  0.51100000000E-03 0.  1.
         12    1    3    3    0    0  0.31497204692E+01  0.19226264360E+02 -0.62189619060E+01  0.20451050523E+02  0.00000000000E+00 0. -1.
</event>
<event>
 7    1  0.5317846E-010  0.4778727E+02  0.7816164E-02  0.1312668E+00
        -11   -1    0    0    0    0  0.00000000000E+00  0.00000000000E+00  0.45593999997E+02  0.45594000000E+02  0.51100000000E-03 0.  1.
         11   -1    0    0    0    0 -0.00000000000E+00 -0.00000000000E+00 -0.45593999997E+02  0.45594000000E+02  0.51100000000E-03 0. -1.
    9900012    2    1    2    0    0  0.24210448714E+02 -0.32663168429E+02  0.15185347429E+02  0.47787272180E+02  0.20000005177E+02 0.  0.
         12    1    1    2    0    0 -0.24210448714E+02  0.32663168429E+02 -0.15185347429E+02  0.43400727820E+02  0.00000000000E+00 0. -1.
         11    1    3    3    0    0  0.12501962137E+02 -0.12314158958E+02  0.73079640300E+00  0.17563360492E+02  0.51100000000E-03 0. -1.
        -11    1    3    3    0    0  0.97982994436E+01 -0.10460004100E+02  0.14160366040E+02  0.20147811901E+02  0.51100000000E-03 0.  1.
        -12    1    3    3    0    0  0.19101871336E+01 -0.98890053705E+01  0.29418498638E+00  0.10076099787E+02  0.00000000000E+00 0.  1.
</event>
<event>
 7    1  0.5317846E-010  0.4778726E+02  0.7816164E-02  0.1312668E+00
        -11   -1    0    0    0    0  0.00000000000E+00  0.00000000000E+00  0.45593999997E+02  0.45594000000E+02  0.51100000000E-03 0.  1.
         11   -1    0    0    0    0 -0.00000000000E+00 -0.00000000000E+00 -0.45593999997E+02  0.45594000000E+02  0.51100000000E-03 0. -1.
    9900012    2    1    2    0    0  0.36700128313E+02 -0.13986504016E+02  0.18468950914E+02  0.47787264284E+02  0.19999969178E+02 0.  0.
         12    1    1    2    0    0 -0.36700128313E+02  0.13986504016E+02 -0.18468950914E+02  0.43400735716E+02  0.00000000000E+00 0. -1.
         11    1    3    3    0    0  0.45934731679E+01 -0.59675069828E+01  0.93465118455E+01  0.12002850465E+02  0.51100000000E-03 0. -1.
        -11    1    3    3    0    0  0.45364211682E+01 -0.19221360768E+01  0.53900421590E+01  0.73024844300E+01  0.51100000000E-03 0.  1.
         12    1    3    3    0    0  0.27570233977E+02 -0.60968609569E+01  0.37323969094E+01  0.28481929390E+02  0.00000000000E+00 0. -1.
</event>
<event>
 7    1  0.5317846E-010  0.4778727E+02  0.7816164E-02  0.1312668E+00
        -11   -1    0    0    0    0  0.00000000000E+00  0.00000000000E+00  0.45593999997E+02  0.45594000000E+02  0.51100000000E-03 0. -1.
         11   -1    0    0    0    0 -0.00000000000E+00 -0.00000000000E+00 -0.45593999997E+02  0.45594000000E+02  0.51100000000E-03 0.  1.
    9900012    2    1    2    0    0 -0.10143507773E+02  0.37661676296E+02  0.19034985553E+02  0.47787270901E+02  0.19999999344E+02 0.  0.
         12    1    1    2    0    0  0.10143507773E+02 -0.37661676296E+02 -0.19034985553E+02  0.43400729099E+02  0.00000000000E+00 0. -1.
         11    1    3    3    0    0 -0.57997717299E+00  0.85962364525E+00  0.28226757963E+01  0.30071290702E+01  0.51100000000E-03 0. -1.
        -11    1    3    3    0    0 -0.79812820626E+01  0.30615759815E+02  0.19928437938E+02  0.37392088085E+02  0.51100000000E-03 0.  1.
        -12    1    3    3    0    0 -0.15822485372E+01  0.61862928355E+01 -0.37161281820E+01  0.73880537454E+01  0.00000000000E+00 0.  1.
</event>
<event>
 7    1  0.5317846E-010  0.4778723E+02  0.7816164E-02  0.1312668E+00
        -11   -1    0    0    0    0  0.00000000000E+00  0.00000000000E+00  0.45593999997E+02  0.45594000000E+02  0.51100000000E-03 0. -1.
         11   -1    0    0    0    0 -0.00000000000E+00 -0.00000000000E+00 -0.45593999997E+02  0.45594000000E+02  0.51100000000E-03 0.  1.
    9900012    2    1    2    0    0 -0.84822372714E+01  0.26674381792E+02  0.33168598777E+02  0.47787228833E+02  0.19999807539E+02 0.  0.
         12    1    1    2    0    0  0.84822372714E+01 -0.26674381792E+02 -0.33168598777E+02  0.43400771167E+02  0.00000000000E+00 0. -1.
         11    1    3    3    0    0  0.21899734001E+01  0.37792034765E+01  0.95928438656E+01  0.10540446675E+02  0.51100000000E-03 0. -1.
        -11    1    3    3    0    0 -0.98736784649E+01  0.21863352565E+02  0.25442808871E+02  0.34969018221E+02  0.51100000000E-03 0.  1.
        -12    1    3    3    0    0 -0.79853220656E+00  0.10318257505E+01 -0.18670539602E+01  0.22777639374E+01  0.00000000000E+00 0.  1.
</event>
<event>
 7    1  0.5317846E-010  0.4778727E+02  0.7816164E-02  0.1312668E+00
        -11   -1    0    0    0    0  0.00000000000E+00  0.00000000000E+00  0.45593999997E+02  0.45594000000E+02  0.51100000000E-03 0. -1.
         11   -1    0    0    0    0 -0.00000000000E+00 -0.00000000000E+00 -0.45593999997E+02  0.45594000000E+02  0.51100000000E-03 0.  1.
    9900012    2    1    2    0    0 -0.33701746943E+02 -0.23719431447E+02  0.13608978887E+02  0.47787268652E+02  0.19999989092E+02 0.  0.
         12    1    1    2    0    0  0.33701746943E+02  0.23719431447E+02 -0.13608978887E+02  0.43400731348E+02  0.00000000000E+00 0. -1.
         11    1    3    3    0    0 -0.27315372704E+02 -0.17281928241E+02  0.13118633207E+02  0.34883995860E+02  0.51100000000E-03 0. -1.
        -11    1    3    3    0    0 -0.78431271231E+01 -0.58893800913E+01 -0.19583964027E+01  0.10001737732E+02  0.51100000000E-03 0.  1.
         12    1    3    3    0    0  0.14567528840E+01 -0.54812311469E+00  0.24487420832E+01  0.29015350599E+01  0.00000000000E+00 0. -1.
</event>
<event>
 7    1  0.5317846E-010  0.4778728E+02  0.7816164E-02  0.1312668E+00
        -11   -1    0    0    0    0  0.00000000000E+00  0.00000000000E+00  0.45593999997E+02  0.45594000000E+02  0.51100000000E-03 0. -1.
         11   -1    0    0    0    0 -0.00000000000E+00 -0.00000000000E+00 -0.45593999997E+02  0.45594000000E+02  0.51100000000E-03 0.  1.
    9900012    2    1    2    0    0  0.27925133440E+02  0.25282356175E+02 -0.21554867387E+02  0.47787275127E+02  0.20000018615E+02 0.  0.
         12    1    1    2    0    0 -0.27925133440E+02 -0.25282356175E+02  0.21554867387E+02  0.43400724873E+02  0.00000000000E+00 0. -1.
         11    1    3    3    0    0  0.19457928166E+02  0.12380318056E+02 -0.31346342006E+01  0.23274646625E+02  0.51100000000E-03 0. -1.
        -11    1    3    3    0    0  0.51220739493E+01  0.53958690983E+01 -0.11846810178E+02  0.13989208573E+02  0.51100000000E-03 0.  1.
         12    1    3    3    0    0  0.33451313247E+01  0.75061690204E+01 -0.65734230083E+01  0.10523419928E+02  0.00000000000E+00 0. -1.
</event>
<event>
 7    1  0.5317846E-010  0.4778728E+02  0.7816164E-02  0.1312668E+00
        -11   -1    0    0    0    0  0.00000000000E+00  0.00000000000E+00  0.45593999997E+02  0.45594000000E+02  0.51100000000E-03 0.  1.
         11   -1    0    0    0    0 -0.00000000000E+00 -0.00000000000E+00 -0.45593999997E+02  0.45594000000E+02  0.51100000000E-03 0. -1.
    9900012    2    1    2    0    0  0.65778707387E+01 -0.28718506940E+02  0.31868508869E+02  0.47787275561E+02  0.20000020592E+02 0.  0.
         12    1    1    2    0    0 -0.65778707387E+01  0.28718506940E+02 -0.31868508869E+02  0.43400724439E+02  0.00000000000E+00 0. -1.
         11    1    3    3    0    0 -0.26514770420E+01 -0.19806045816E+01  0.41579190617E+01  0.53142653488E+01  0.51100000000E-03 0.  1.
        -11    1    3    3    0    0  0.19629913966E-01 -0.15946126770E+01 -0.19463966471E+01  0.25162740495E+01  0.51100000000E-03 0. -1.
        -12    1    3    3    0    0  0.92097178667E+01 -0.25143289681E+02  0.29656986455E+02  0.39956736162E+02  0.00000000000E+00 0.  1.
</event>
<event>
 7    1  0.5317846E-010  0.4778727E+02  0.7816164E-02  0.1312668E+00
        -11   -1    0    0    0    0  0.00000000000E+00  0.00000000000E+00  0.45593999997E+02  0.45594000000E+02  0.51100000000E-03 0.  1.
         11   -1    0    0    0    0 -0.00000000000E+00 -0.00000000000E+00 -0.45593999997E+02  0.45594000000E+02  0.51100000000E-03 0. -1.
    9900012    2    1    2    0    0 -0.62576422983E+01  0.94417327382E+01  0.41896525135E+02  0.47787271635E+02  0.20000002692E+02 0.  0.
         12    1    1    2    0    0  0.62576422983E+01 -0.94417327382E+01 -0.41896525135E+02  0.43400728365E+02  0.00000000000E+00 0. -1.
         11    1    3    3    0    0 -0.10874404742E+02  0.35821322305E+01  0.19181414563E+02  0.22338554446E+02  0.51100000000E-03 0. -1.
        -11    1    3    3    0    0  0.45876117039E+01  0.29513166361E+01  0.21689193564E+02  0.22364649980E+02  0.51100000000E-03 0.  1.
        -12    1    3    3    0    0  0.29150739756E-01  0.29082838716E+01  0.10259170079E+01  0.30840672091E+01  0.00000000000E+00 0.  1.
</event>
<event>
 7    1  0.5317846E-010  0.4778727E+02  0.7816164E-02  0.1312668E+00
        -11   -1    0    0    0    0  0.00000000000E+00  0.00000000000E+00  0.45593999997E+02  0.45594000000E+02  0.51100000000E-03 0.  1.
         11   -1    0    0    0    0 -0.00000000000E+00 -0.00000000000E+00 -0.45593999997E+02  0.45594000000E+02  0.51100000000E-03 0. -1.
    9900012    2    1    2    0    0 -0.22769209466E+02 -0.25926581517E+02  0.26324866098E+02  0.47787273002E+02  0.20000008927E+02 0.  0.
         12    1    1    2    0    0  0.22769209466E+02  0.25926581517E+02 -0.26324866098E+02  0.43400726998E+02  0.00000000000E+00 0. -1.
         11    1    3    3    0    0 -0.20184061225E+02 -0.16127360947E+02  0.20966224084E+02  0.33272671237E+02  0.51100000000E-03 0. -1.
        -11    1    3    3    0    0  0.15599730594E+01 -0.91603245767E+01  0.38317635273E+01  0.10051242425E+02  0.51100000000E-03 0.  1.
         12    1    3    3    0    0 -0.41451213009E+01 -0.63889599341E+00  0.15268784864E+01  0.44633593404E+01  0.00000000000E+00 0. -1.
</event>
<event>
 7    1  0.5317846E-010  0.4778727E+02  0.7816164E-02  0.1312668E+00
        -11   -1    0    0    0    0  0.00000000000E+00  0.00000000000E+00  0.45593999997E+02  0.45594000000E+02  0.51100000000E-03 0. -1.
         11   -1    0    0    0    0 -0.00000000000E+00 -0.00000000000E+00 -0.45593999997E+02  0.45594000000E+02  0.51100000000E-03 0.  1.
    9900012    2    1    2    0    0  0.93711073774E+01 -0.38195354599E+02 -0.18355396468E+02  0.47787270214E+02  0.19999996214E+02 0.  0.
         12    1    1    2    0    0 -0.93711073774E+01  0.38195354599E+02  0.18355396468E+02  0.43400729786E+02  0.00000000000E+00 0. -1.
         11    1    3    3    0    0  0.49508327428E+01 -0.75748637922E+01 -0.12308069304E+02  0.15276710267E+02  0.51100000000E-03 0. -1.
        -11    1    3    3    0    0  0.60067767955E+01 -0.27225116156E+02 -0.37921283813E+01  0.28136605252E+02  0.51100000000E-03 0.  1.
         12    1    3    3    0    0 -0.15865021608E+01 -0.33953746514E+01 -0.22551987824E+01  0.43739546954E+01  0.00000000000E+00 0. -1.
</event>
<event>
 7    1  0.5317846E-010  0.4778727E+02  0.7816164E-02  0.1312668E+00
        -11   -1    0    0    0    0  0.00000000000E+00  0.00000000000E+00  0.45593999997E+02  0.45594000000E+02  0.51100000000E-03 0.  1.
         11   -1    0    0    0    0 -0.00000000000E+00 -0.00000000000E+00 -0.45593999997E+02  0.45594000000E+02  0.51100000000E-03 0. -1.
    9900012    2    1    2    0    0 -0.10084071107E+02  0.37126437816E+02  0.20088866775E+02  0.47787269093E+02  0.19999991101E+02 0.  0.
         12    1    1    2    0    0  0.10084071107E+02 -0.37126437816E+02 -0.20088866775E+02  0.43400730907E+02  0.00000000000E+00 0. -1.
         11    1    3    3    0    0  0.29065903965E+01  0.13819728264E+02  0.10384210557E+01  0.14160207469E+02  0.51100000000E-03 0. -1.
        -11    1    3    3    0    0 -0.11563868237E+02  0.23350046919E+02  0.16939696758E+02  0.31078948925E+02  0.51100000000E-03 0.  1.
         12    1    3    3    0    0 -0.14267932662E+01 -0.43337366863E-01  0.21107489611E+01  0.25481126993E+01  0.00000000000E+00 0. -1.
</event>
<event>
 7    1  0.5317846E-010  0.4778727E+02  0.7816164E-02  0.1312668E+00
        -11   -1    0    0    0    0  0.00000000000E+00  0.00000000000E+00  0.45593999997E+02  0.45594000000E+02  0.51100000000E-03 0.  1.
         11   -1    0    0    0    0 -0.00000000000E+00 -0.00000000000E+00 -0.45593999997E+02  0.45594000000E+02  0.51100000000E-03 0. -1.
    9900012    2    1    2    0    0  0.17409205820E+02  0.33093294308E+02  0.22031264875E+02  0.47787271810E+02  0.20000003489E+02 0.  0.
         12    1    1    2    0    0 -0.17409205820E+02 -0.33093294308E+02 -0.22031264875E+02  0.43400728190E+02  0.00000000000E+00 0. -1.
         11    1    3    3    0    0  0.60218568998E+01  0.59074103658E+01 -0.40870174396E-01  0.84357529826E+01  0.51100000000E-03 0. -1.
        -11    1    3    3    0    0 -0.20836946508E+01  0.11190553159E+02  0.10312796796E+02  0.15359819056E+02  0.51100000000E-03 0.  1.
        -12    1    3    3    0    0  0.13471043571E+02  0.15995330783E+02  0.11759338254E+02  0.23991699771E+02  0.00000000000E+00 0.  1.
</event>
<event>
 7    1  0.5317846E-010  0.4778725E+02  0.7816164E-02  0.1312668E+00
        -11   -1    0    0    0    0  0.00000000000E+00  0.00000000000E+00  0.45593999997E+02  0.45594000000E+02  0.51100000000E-03 0.  1.
         11   -1    0    0    0    0 -0.00000000000E+00 -0.00000000000E+00 -0.45593999997E+02  0.45594000000E+02  0.51100000000E-03 0. -1.
    9900012    2    1    2    0    0 -0.41173301755E+01 -0.42105855384E+02  0.96834590500E+01  0.47787252949E+02  0.19999917497E+02 0.  0.
         12    1    1    2    0    0  0.41173301755E+01  0.42105855384E+02 -0.96834590500E+01  0.43400747051E+02  0.00000000000E+00 0. -1.
         11    1    3    3    0    0 -0.35086245367E+01 -0.28434528862E+02  0.95771089891E+01  0.30208506990E+02  0.51100000000E-03 0.  1.
        -11    1    3    3    0    0  0.28367538786E+01 -0.25526334470E+01 -0.37164149678E+01  0.53268049106E+01  0.51100000000E-03 0. -1.
         12    1    3    3    0    0 -0.34454595174E+01 -0.11118693076E+02  0.38227650287E+01  0.12251941049E+02  0.00000000000E+00 0. -1.
</event>
<event>
 7    1  0.5317846E-010  0.4778727E+02  0.7816164E-02  0.1312668E+00
        -11   -1    0    0    0    0  0.00000000000E+00  0.00000000000E+00  0.45593999997E+02  0.45594000000E+02  0.51100000000E-03 0.  1.
         11   -1    0    0    0    0 -0.00000000000E+00 -0.00000000000E+00 -0.45593999997E+02  0.45594000000E+02  0.51100000000E-03 0. -1.
    9900012    2    1    2    0    0 -0.25479988890E+02 -0.21202170667E+02  0.28015376325E+02  0.47787272063E+02  0.20000004644E+02 0.  0.
         12    1    1    2    0    0  0.25479988890E+02  0.21202170667E+02 -0.28015376325E+02  0.43400727937E+02  0.00000000000E+00 0. -1.
         11    1    3    3    0    0  0.42325738957E+00 -0.66711723841E+00  0.41330783873E+01  0.42079127182E+01  0.51100000000E-03 0. -1.
        -11    1    3    3    0    0 -0.12263477131E+02 -0.10174786329E+02  0.20757196759E+02  0.26168308423E+02  0.51100000000E-03 0.  1.
        -12    1    3    3    0    0 -0.13639769149E+02 -0.10360267099E+02  0.31251011787E+01  0.17411050921E+02  0.00000000000E+00 0.  1.
</event>
<event>
 7    1  0.5317846E-010  0.4778726E+02  0.7816164E-02  0.1312668E+00
        -11   -1    0    0    0    0  0.00000000000E+00  0.00000000000E+00  0.45593999997E+02  0.45594000000E+02  0.51100000000E-03 0.  1.
         11   -1    0    0    0    0 -0.00000000000E+00 -0.00000000000E+00 -0.45593999997E+02  0.45594000000E+02  0.51100000000E-03 0. -1.
    9900012    2    1    2    0    0  0.98170368302E+01 -0.90670129555E+00  0.42266150571E+02  0.47787264943E+02  0.19999972181E+02 0.  0.
         12    1    1    2    0    0 -0.98170368302E+01  0.90670129555E+00 -0.42266150571E+02  0.43400735057E+02  0.00000000000E+00 0. -1.
         11    1    3    3    0    0  0.14988379054E+02 -0.89429373685E+00  0.30164116874E+02  0.33694587325E+02  0.51100000000E-03 0. -1.
        -11    1    3    3    0    0 -0.25404929006E+01 -0.63144024890E+00  0.10762395269E+02  0.11076189469E+02  0.51100000000E-03 0.  1.
         12    1    3    3    0    0 -0.26308493234E+01  0.61903269021E+00  0.13396384283E+01  0.30164881489E+01  0.00000000000E+00 0. -1.
</event>
<event>
 7    1  0.5317846E-010  0.4778727E+02  0.7816164E-02  0.1312668E+00
        -11   -1    0    0    0    0  0.00000000000E+00  0.00000000000E+00  0.45593999997E+02  0.45594000000E+02  0.51100000000E-03 0.  1.
         11   -1    0    0    0    0 -0.00000000000E+00 -0.00000000000E+00 -0.45593999997E+02  0.45594000000E+02  0.51100000000E-03 0. -1.
    9900012    2    1    2    0    0  0.34614581971E+01 -0.53822611960E+01  0.42926368966E+02  0.47787267505E+02  0.19999983864E+02 0.  0.
         12    1    1    2    0    0 -0.34614581971E+01  0.53822611960E+01 -0.42926368966E+02  0.43400732495E+02  0.00000000000E+00 0. -1.
         11    1    3    3    0    0 -0.25839317373E+01  0.32231864147E+01  0.96235378872E+00  0.42416693604E+01  0.51100000000E-03 0. -1.
        -11    1    3    3    0    0  0.53215519612E+00 -0.50293186038E+01  0.18067999236E+02  0.18762458032E+02  0.51100000000E-03 0.  1.
         12    1    3    3    0    0  0.55132347383E+01 -0.35761290069E+01  0.23896015942E+02  0.24783140113E+02  0.00000000000E+00 0. -1.
</event>
<event>
 7    1  0.5317846E-010  0.4778727E+02  0.7816164E-02  0.1312668E+00
        -11   -1    0    0    0    0  0.00000000000E+00  0.00000000000E+00  0.45593999997E+02  0.45594000000E+02  0.51100000000E-03 0.  1.
         11   -1    0    0    0    0 -0.00000000000E+00 -0.00000000000E+00 -0.45593999997E+02  0.45594000000E+02  0.51100000000E-03 0. -1.
    9900012    2    1    2    0    0 -0.35524946072E+02  0.21710106784E+02  0.12258593174E+02  0.47787266866E+02  0.19999980948E+02 0.  0.
         12    1    1    2    0    0  0.35524946072E+02 -0.21710106784E+02 -0.12258593174E+02  0.43400733134E+02  0.00000000000E+00 0. -1.
         11    1    3    3    0    0 -0.19783750281E+01  0.64285885158E+01 -0.17416749653E+01  0.69479601325E+01  0.51100000000E-03 0. -1.
        -11    1    3    3    0    0 -0.14974511523E+02  0.74905493406E+01  0.12001188537E+02  0.20600311923E+02  0.51100000000E-03 0.  1.
         12    1    3    3    0    0 -0.18572059521E+02  0.77909689278E+01  0.19990796026E+01  0.20238994810E+02  0.00000000000E+00 0. -1.
</event>
<event>
 7    1  0.5317846E-010  0.4778727E+02  0.7816164E-02  0.1312668E+00
        -11   -1    0    0    0    0  0.00000000000E+00  0.00000000000E+00  0.45593999997E+02  0.45594000000E+02  0.51100000000E-03 0.  1.
         11   -1    0    0    0    0 -0.00000000000E+00 -0.00000000000E+00 -0.45593999997E+02  0.45594000000E+02  0.51100000000E-03 0. -1.
    9900012    2    1    2    0    0  0.19515822591E+02  0.72447897649E+01  0.38082401951E+02  0.47787266729E+02  0.19999980323E+02 0.  0.
         12    1    1    2    0    0 -0.19515822591E+02 -0.72447897649E+01 -0.38082401951E+02  0.43400733271E+02  0.00000000000E+00 0. -1.
         11    1    3    3    0    0  0.65761306623E+01  0.78354452721E+01  0.39183530802E+01  0.10954140232E+02  0.51100000000E-03 0. -1.
        -11    1    3    3    0    0  0.90483891243E+01  0.21616383285E+00  0.17503223179E+02  0.19704895190E+02  0.51100000000E-03 0.  1.
         12    1    3    3    0    0  0.38913028043E+01 -0.80681934003E+00  0.16660825692E+02  0.17128231307E+02  0.00000000000E+00 0. -1.
</event>
<event>
 7    1  0.5317846E-010  0.4778727E+02  0.7816164E-02  0.1312668E+00
        -11   -1    0    0    0    0  0.00000000000E+00  0.00000000000E+00  0.45593999997E+02  0.45594000000E+02  0.51100000000E-03 0.  1.
         11   -1    0    0    0    0 -0.00000000000E+00 -0.00000000000E+00 -0.45593999997E+02  0.45594000000E+02  0.51100000000E-03 0. -1.
    9900012    2    1    2    0    0 -0.51771272258E+01 -0.35221737666E+02  0.24824387236E+02  0.47787266686E+02  0.19999980128E+02 0.  0.
         12    1    1    2    0    0  0.51771272258E+01  0.35221737666E+02 -0.24824387236E+02  0.43400733314E+02  0.00000000000E+00 0. -1.
         11    1    3    3    0    0 -0.15975371233E+01  0.11752263731E+01  0.51542918711E+01  0.55226811281E+01  0.51100000000E-03 0. -1.
        -11    1    3    3    0    0  0.48709019700E+00 -0.15875679901E+02  0.47819169226E+01  0.16587380712E+02  0.51100000000E-03 0.  1.
         12    1    3    3    0    0 -0.40666802995E+01 -0.20521284139E+02  0.14888178442E+02  0.25677204846E+02  0.00000000000E+00 0. -1.
</event>
<event>
 7    1  0.5317846E-010  0.4778727E+02  0.7816164E-02  0.1312668E+00
        -11   -1    0    0    0    0  0.00000000000E+00  0.00000000000E+00  0.45593999997E+02  0.45594000000E+02  0.51100000000E-03 0. -1.
         11   -1    0    0    0    0 -0.00000000000E+00 -0.00000000000E+00 -0.45593999997E+02  0.45594000000E+02  0.51100000000E-03 0.  1.
    9900012    2    1    2    0    0  0.18396886378E+02  0.39128963963E+02 -0.37552689843E+01  0.47787270809E+02  0.19999998925E+02 0.  0.
         12    1    1    2    0    0 -0.18396886378E+02 -0.39128963963E+02  0.37552689843E+01  0.43400729191E+02  0.00000000000E+00 0. -1.
         11    1    3    3    0    0  0.69633343993E+01  0.13894580618E+02 -0.64578839337E+01  0.16830082046E+02  0.51100000000E-03 0. -1.
        -11    1    3    3    0    0  0.25561323963E+01  0.69389509230E+01 -0.53060902360E+01  0.91015079296E+01  0.51100000000E-03 0.  1.
         12    1    3    3    0    0  0.88774195823E+01  0.18295432422E+02  0.80087051853E+01  0.21855680833E+02  0.00000000000E+00 0. -1.
</event>
<event>
 7    1  0.5317846E-010  0.4778727E+02  0.7816164E-02  0.1312668E+00
        -11   -1    0    0    0    0  0.00000000000E+00  0.00000000000E+00  0.45593999997E+02  0.45594000000E+02  0.51100000000E-03 0. -1.
         11   -1    0    0    0    0 -0.00000000000E+00 -0.00000000000E+00 -0.45593999997E+02  0.45594000000E+02  0.51100000000E-03 0.  1.
    9900012    2    1    2    0    0  0.68750299787E+01 -0.13042886173E+02 -0.40819613601E+02  0.47787265312E+02  0.19999973863E+02 0.  0.
         12    1    1    2    0    0 -0.68750299787E+01  0.13042886173E+02  0.40819613601E+02  0.43400734688E+02  0.00000000000E+00 0. -1.
         11    1    3    3    0    0  0.70201203168E+01 -0.65705028277E+01 -0.73721247721E+01  0.12116180115E+02  0.51100000000E-03 0. -1.
        -11    1    3    3    0    0  0.34225955230E+01 -0.61402540546E+00 -0.22393626510E+02  0.22661987906E+02  0.51100000000E-03 0.  1.
         12    1    3    3    0    0 -0.35676858611E+01 -0.58583579401E+01 -0.11053862319E+02  0.13009097291E+02  0.00000000000E+00 0. -1.
</event>
<event>
 7    1  0.5317846E-010  0.4778728E+02  0.7816164E-02  0.1312668E+00
        -11   -1    0    0    0    0  0.00000000000E+00  0.00000000000E+00  0.45593999997E+02  0.45594000000E+02  0.51100000000E-03 0.  1.
         11   -1    0    0    0    0 -0.00000000000E+00 -0.00000000000E+00 -0.45593999997E+02  0.45594000000E+02  0.51100000000E-03 0. -1.
    9900012    2    1    2    0    0  0.15128069382E+01 -0.39665537870E+02  0.17549339569E+02  0.47787276519E+02  0.20000024962E+02 0.  0.
         12    1    1    2    0    0 -0.15128069382E+01  0.39665537870E+02 -0.17549339569E+02  0.43400723481E+02  0.00000000000E+00 0. -1.
         11    1    3    3    0    0  0.42574183166E+01 -0.34663748001E+02  0.14368219901E+02  0.37764358589E+02  0.51100000000E-03 0. -1.
        -11    1    3    3    0    0 -0.16143941987E+01 -0.57402950227E+01  0.49832835147E+01  0.77711241417E+01  0.51100000000E-03 0.  1.
         12    1    3    3    0    0 -0.11302171797E+01  0.73850515381E+00 -0.18021638474E+01  0.22517937890E+01  0.00000000000E+00 0. -1.
</event>
<event>
 7    1  0.5317846E-010  0.4778725E+02  0.7816164E-02  0.1312668E+00
        -11   -1    0    0    0    0  0.00000000000E+00  0.00000000000E+00  0.45593999997E+02  0.45594000000E+02  0.51100000000E-03 0.  1.
         11   -1    0    0    0    0 -0.00000000000E+00 -0.00000000000E+00 -0.45593999997E+02  0.45594000000E+02  0.51100000000E-03 0. -1.
    9900012    2    1    2    0    0 -0.24122347581E+01 -0.23862466269E+02  0.36171663930E+02  0.47787246039E+02  0.19999885989E+02 0.  0.
         12    1    1    2    0    0  0.24122347581E+01  0.23862466269E+02 -0.36171663930E+02  0.43400753961E+02  0.00000000000E+00 0. -1.
         11    1    3    3    0    0 -0.44425187301E+01 -0.21045389897E+01  0.69330841334E+00  0.49644469827E+01  0.51100000000E-03 0. -1.
        -11    1    3    3    0    0 -0.29234048714E+01 -0.15542896627E+02  0.26225369502E+02  0.30625119386E+02  0.51100000000E-03 0.  1.
        -12    1    3    3    0    0  0.49536888434E+01 -0.62150306516E+01  0.92529860145E+01  0.12197679670E+02  0.00000000000E+00 0.  1.
</event>
<event>
 7    1  0.5317846E-010  0.4778728E+02  0.7816164E-02  0.1312668E+00
        -11   -1    0    0    0    0  0.00000000000E+00  0.00000000000E+00  0.45593999997E+02  0.45594000000E+02  0.51100000000E-03 0.  1.
         11   -1    0    0    0    0 -0.00000000000E+00 -0.00000000000E+00 -0.45593999997E+02  0.45594000000E+02  0.51100000000E-03 0. -1.
    9900012    2    1    2    0    0  0.14156330202E+02 -0.21880020475E+02  0.34705695151E+02  0.47787282763E+02  0.20000053429E+02 0.  0.
         12    1    1    2    0    0 -0.14156330202E+02  0.21880020475E+02 -0.34705695151E+02  0.43400717237E+02  0.00000000000E+00 0. -1.
         11    1    3    3    0    0  0.77825746622E+00 -0.17711458607E+02  0.24372517932E+02  0.30138365604E+02  0.51100000000E-03 0. -1.
        -11    1    3    3    0    0  0.65048543897E+01 -0.98748827368E+00  0.61021925582E+01  0.89735733128E+01  0.51100000000E-03 0.  1.
         12    1    3    3    0    0  0.68732183465E+01 -0.31810735942E+01  0.42309846606E+01  0.86753438461E+01  0.00000000000E+00 0. -1.
</event>
<event>
 7    1  0.5317846E-010  0.4778727E+02  0.7816164E-02  0.1312668E+00
        -11   -1    0    0    0    0  0.00000000000E+00  0.00000000000E+00  0.45593999997E+02  0.45594000000E+02  0.51100000000E-03 0.  1.
         11   -1    0    0    0    0 -0.00000000000E+00 -0.00000000000E+00 -0.45593999997E+02  0.45594000000E+02  0.51100000000E-03 0. -1.
    9900012    2    1    2    0    0 -0.11510810334E+02  0.73214163559E+01  0.41200988659E+02  0.47787270070E+02  0.19999995557E+02 0.  0.
         12    1    1    2    0    0  0.11510810334E+02 -0.73214163559E+01 -0.41200988659E+02  0.43400729930E+02  0.00000000000E+00 0. -1.
         11    1    3    3    0    0 -0.21124073002E+01 -0.53905599266E+01  0.34418513366E+01  0.67354837843E+01  0.51100000000E-03 0. -1.
        -11    1    3    3    0    0 -0.39735667048E+01  0.37754999833E+01  0.15972033732E+02  0.16886370074E+02  0.51100000000E-03 0.  1.
         12    1    3    3    0    0 -0.54248363286E+01  0.89364762992E+01  0.21787103591E+02  0.24165416212E+02  0.00000000000E+00 0. -1.
</event>
<event>
 7    1  0.5317846E-010  0.4778727E+02  0.7816164E-02  0.1312668E+00
        -11   -1    0    0    0    0  0.00000000000E+00  0.00000000000E+00  0.45593999997E+02  0.45594000000E+02  0.51100000000E-03 0. -1.
         11   -1    0    0    0    0 -0.00000000000E+00 -0.00000000000E+00 -0.45593999997E+02  0.45594000000E+02  0.51100000000E-03 0.  1.
    9900012    2    1    2    0    0 -0.28811673715E+01  0.42522129815E+02 -0.81970014082E+01  0.47787268652E+02  0.19999989092E+02 0.  0.
         12    1    1    2    0    0  0.28811673715E+01 -0.42522129815E+02  0.81970014082E+01  0.43400731348E+02  0.00000000000E+00 0. -1.
         11    1    3    3    0    0 -0.54881098841E+01  0.14220047224E+01 -0.12328162896E+01  0.58018345198E+01  0.51100000000E-03 0. -1.
        -11    1    3    3    0    0  0.32984643337E+01  0.19304781695E+02 -0.27706752451E+01  0.19779562807E+02  0.51100000000E-03 0.  1.
         12    1    3    3    0    0 -0.69152182116E+00  0.21795343398E+02 -0.41935098736E+01  0.22205871325E+02  0.00000000000E+00 0. -1.
</event>
<event>
 7    1  0.5317846E-010  0.4778725E+02  0.7816164E-02  0.1312668E+00
        -11   -1    0    0    0    0  0.00000000000E+00  0.00000000000E+00  0.45593999997E+02  0.45594000000E+02  0.51100000000E-03 0. -1.
         11   -1    0    0    0    0 -0.00000000000E+00 -0.00000000000E+00 -0.45593999997E+02  0.45594000000E+02  0.51100000000E-03 0.  1.
    9900012    2    1    2    0    0 -0.33385730544E+02  0.27717812731E+02 -0.86066252346E+00  0.47787252465E+02  0.19999915291E+02 0.  0.
         12    1    1    2    0    0  0.33385730544E+02 -0.27717812731E+02  0.86066252346E+00  0.43400747535E+02  0.00000000000E+00 0. -1.
         11    1    3    3    0    0 -0.47107670878E+01  0.14322058783E+02  0.35109554936E+01  0.15480294024E+02  0.51100000000E-03 0. -1.
        -11    1    3    3    0    0 -0.25904166516E+02  0.11511296655E+02 -0.24700791252E+01  0.28454122455E+02  0.51100000000E-03 0.  1.
        -12    1    3    3    0    0 -0.27707969405E+01  0.18844572937E+01 -0.19015388918E+01  0.38528359859E+01  0.00000000000E+00 0.  1.
</event>
<event>
 7    1  0.5317846E-010  0.4778727E+02  0.7816164E-02  0.1312668E+00
        -11   -1    0    0    0    0  0.00000000000E+00  0.00000000000E+00  0.45593999997E+02  0.45594000000E+02  0.51100000000E-03 0. -1.
         11   -1    0    0    0    0 -0.00000000000E+00 -0.00000000000E+00 -0.45593999997E+02  0.45594000000E+02  0.51100000000E-03 0.  1.
    9900012    2    1    2    0    0 -0.13322558147E+02 -0.21176712368E+02  0.35463776837E+02  0.47787272243E+02  0.20000005466E+02 0.  0.
         12    1    1    2    0    0  0.13322558147E+02  0.21176712368E+02 -0.35463776837E+02  0.43400727757E+02  0.00000000000E+00 0. -1.
         11    1    3    3    0    0  0.20154476822E+01 -0.12055185484E+01 -0.14229959592E+01  0.27459464836E+01  0.51100000000E-03 0. -1.
        -11    1    3    3    0    0 -0.15347707115E+02 -0.19821131510E+02  0.34479679072E+02  0.42629539491E+02  0.51100000000E-03 0.  1.
         12    1    3    3    0    0  0.97012858744E-02 -0.15006230898E+00  0.24070937236E+01  0.24117862686E+01  0.00000000000E+00 0. -1.
</event>
<event>
 7    1  0.5317846E-010  0.4778727E+02  0.7816164E-02  0.1312668E+00
        -11   -1    0    0    0    0  0.00000000000E+00  0.00000000000E+00  0.45593999997E+02  0.45594000000E+02  0.51100000000E-03 0.  1.
         11   -1    0    0    0    0 -0.00000000000E+00 -0.00000000000E+00 -0.45593999997E+02  0.45594000000E+02  0.51100000000E-03 0. -1.
    9900012    2    1    2    0    0  0.52376662525E+01 -0.41716919561E+02  0.10765164225E+02  0.47787270902E+02  0.19999999350E+02 0.  0.
         12    1    1    2    0    0 -0.52376662525E+01  0.41716919561E+02 -0.10765164225E+02  0.43400729098E+02  0.00000000000E+00 0. -1.
         11    1    3    3    0    0  0.60100029588E+01 -0.15869440882E+02  0.11046722752E+01  0.17005281255E+02  0.51100000000E-03 0. -1.
        -11    1    3    3    0    0 -0.69409941474E+01 -0.17350069589E+02  0.69487834061E+01  0.19937098725E+02  0.51100000000E-03 0.  1.
        -12    1    3    3    0    0  0.61686574411E+01 -0.84974090904E+01  0.27117085434E+01  0.10844890921E+02  0.00000000000E+00 0.  1.
</event>
<event>
 7    1  0.5317846E-010  0.4778728E+02  0.7816164E-02  0.1312668E+00
        -11   -1    0    0    0    0  0.00000000000E+00  0.00000000000E+00  0.45593999997E+02  0.45594000000E+02  0.51100000000E-03 0.  1.
         11   -1    0    0    0    0 -0.00000000000E+00 -0.00000000000E+00 -0.45593999997E+02  0.45594000000E+02  0.51100000000E-03 0. -1.
    9900012    2    1    2    0    0  0.30947872091E+02 -0.29537591519E+02  0.73063543943E+01  0.47787275187E+02  0.20000018889E+02 0.  0.
         12    1    1    2    0    0 -0.30947872091E+02  0.29537591519E+02 -0.73063543943E+01  0.43400724813E+02  0.00000000000E+00 0. -1.
         11    1    3    3    0    0  0.20216495525E+02 -0.91248177854E+01 -0.94236984393E+00  0.22200384054E+02  0.51100000000E-03 0. -1.
        -11    1    3    3    0    0  0.25662419537E+01 -0.77273912788E+01  0.64628759719E+01  0.10395524991E+02  0.51100000000E-03 0.  1.
        -12    1    3    3    0    0  0.81651346119E+01 -0.12685382455E+02  0.17858482663E+01  0.15191366143E+02  0.00000000000E+00 0.  1.
</event>
<event>
 7    1  0.5317846E-010  0.4778727E+02  0.7816164E-02  0.1312668E+00
        -11   -1    0    0    0    0  0.00000000000E+00  0.00000000000E+00  0.45593999997E+02  0.45594000000E+02  0.51100000000E-03 0.  1.
         11   -1    0    0    0    0 -0.00000000000E+00 -0.00000000000E+00 -0.45593999997E+02  0.45594000000E+02  0.51100000000E-03 0. -1.
    9900012    2    1    2    0    0 -0.29386888901E+02  0.12722208474E+02  0.29294698690E+02  0.47787271906E+02  0.20000003930E+02 0.  0.
         12    1    1    2    0    0  0.29386888901E+02 -0.12722208474E+02 -0.29294698690E+02  0.43400728094E+02  0.00000000000E+00 0. -1.
         11    1    3    3    0    0 -0.24405612115E+02  0.46514363035E+01  0.15769713939E+02  0.29427090246E+02  0.51100000000E-03 0.  1.
        -11    1    3    3    0    0 -0.30346425909E+01  0.33778803017E+01  0.12331928309E+02  0.13141369300E+02  0.51100000000E-03 0. -1.
        -12    1    3    3    0    0 -0.19466341947E+01  0.46928918685E+01  0.11930564425E+01  0.52188123603E+01  0.00000000000E+00 0.  1.
</event>
<event>
 7    1  0.5317846E-010  0.4778727E+02  0.7816164E-02  0.1312668E+00
        -11   -1    0    0    0    0  0.00000000000E+00  0.00000000000E+00  0.45593999997E+02  0.45594000000E+02  0.51100000000E-03 0.  1.
         11   -1    0    0    0    0 -0.00000000000E+00 -0.00000000000E+00 -0.45593999997E+02  0.45594000000E+02  0.51100000000E-03 0. -1.
    9900012    2    1    2    0    0 -0.15833266172E+02 -0.28683966140E+02  0.28463326616E+02  0.47787271973E+02  0.20000004233E+02 0.  0.
         12    1    1    2    0    0  0.15833266172E+02  0.28683966140E+02 -0.28463326616E+02  0.43400728027E+02  0.00000000000E+00 0. -1.
         11    1    3    3    0    0 -0.73274038176E+01 -0.23159068069E+02  0.16057433940E+02  0.29118284041E+02  0.51100000000E-03 0. -1.
        -11    1    3    3    0    0 -0.40260244561E+01 -0.37430073529E+01  0.12700140026E+02  0.13838805364E+02  0.51100000000E-03 0.  1.
         12    1    3    3    0    0 -0.44798378985E+01 -0.17818907187E+01 -0.29424734992E+00  0.48301825673E+01  0.00000000000E+00 0. -1.
</event>
<event>
 7    1  0.5317846E-010  0.4778727E+02  0.7816164E-02  0.1312668E+00
        -11   -1    0    0    0    0  0.00000000000E+00  0.00000000000E+00  0.45593999997E+02  0.45594000000E+02  0.51100000000E-03 0. -1.
         11   -1    0    0    0    0 -0.00000000000E+00 -0.00000000000E+00 -0.45593999997E+02  0.45594000000E+02  0.51100000000E-03 0.  1.
    9900012    2    1    2    0    0  0.18172504024E+02  0.26168451680E+02 -0.29471945545E+02  0.47787270282E+02  0.19999996523E+02 0.  0.
         12    1    1    2    0    0 -0.18172504024E+02 -0.26168451680E+02  0.29471945545E+02  0.43400729718E+02  0.00000000000E+00 0. -1.
         11    1    3    3    0    0  0.43888646438E+01  0.38546874750E+01  0.18972198424E+01  0.61416766264E+01  0.51100000000E-03 0. -1.
        -11    1    3    3    0    0  0.44811313330E+01  0.13388645831E+02 -0.19838726034E+02  0.24349772609E+02  0.51100000000E-03 0.  1.
        -12    1    3    3    0    0  0.93025080476E+01  0.89251183739E+01 -0.11530439354E+02  0.17295821046E+02  0.00000000000E+00 0.  1.
</event>
<event>
 7    1  0.5317846E-010  0.4778728E+02  0.7816164E-02  0.1312668E+00
        -11   -1    0    0    0    0  0.00000000000E+00  0.00000000000E+00  0.45593999997E+02  0.45594000000E+02  0.51100000000E-03 0.  1.
         11   -1    0    0    0    0 -0.00000000000E+00 -0.00000000000E+00 -0.45593999997E+02  0.45594000000E+02  0.51100000000E-03 0. -1.
    9900012    2    1    2    0    0  0.19627811203E+01 -0.17015364687E+02  0.39877907128E+02  0.47787278554E+02  0.20000034238E+02 0.  0.
         12    1    1    2    0    0 -0.19627811203E+01  0.17015364687E+02 -0.39877907128E+02  0.43400721446E+02  0.00000000000E+00 0. -1.
         11    1    3    3    0    0  0.51729877722E+01  0.61563462661E+00  0.19974874955E+02  0.20643023960E+02  0.51100000000E-03 0. -1.
        -11    1    3    3    0    0 -0.30092638476E+01 -0.13376531622E+02  0.17574332578E+02  0.22290007469E+02  0.51100000000E-03 0.  1.
         12    1    3    3    0    0 -0.20094280435E+00 -0.42544676913E+01  0.23286995952E+01  0.48542471251E+01  0.00000000000E+00 0. -1.
</event>
<event>
 7    1  0.5317846E-010  0.4778727E+02  0.7816164E-02  0.1312668E+00
        -11   -1    0    0    0    0  0.00000000000E+00  0.00000000000E+00  0.45593999997E+02  0.45594000000E+02  0.51100000000E-03 0.  1.
         11   -1    0    0    0    0 -0.00000000000E+00 -0.00000000000E+00 -0.45593999997E+02  0.45594000000E+02  0.51100000000E-03 0. -1.
    9900012    2    1    2    0    0 -0.25795388320E+02  0.85441580963E+01  0.33841074337E+02  0.47787274102E+02  0.20000013942E+02 0.  0.
         12    1    1    2    0    0  0.25795388320E+02 -0.85441580963E+01 -0.33841074337E+02  0.43400725898E+02  0.00000000000E+00 0. -1.
         11    1    3    3    0    0 -0.89924138811E+01  0.10437068485E+01  0.11286986909E+01  0.91228719376E+01  0.51100000000E-03 0. -1.
        -11    1    3    3    0    0 -0.17099091469E+02  0.88324805524E+01  0.30658758020E+02  0.36198771876E+02  0.51100000000E-03 0.  1.
         12    1    3    3    0    0  0.29611702975E+00 -0.13320293046E+01  0.20536176265E+01  0.24656302884E+01  0.00000000000E+00 0. -1.
</event>
<event>
 7    1  0.5317846E-010  0.4778727E+02  0.7816164E-02  0.1312668E+00
        -11   -1    0    0    0    0  0.00000000000E+00  0.00000000000E+00  0.45593999997E+02  0.45594000000E+02  0.51100000000E-03 0.  1.
         11   -1    0    0    0    0 -0.00000000000E+00 -0.00000000000E+00 -0.45593999997E+02  0.45594000000E+02  0.51100000000E-03 0. -1.
    9900012    2    1    2    0    0  0.26200760284E+02  0.23206632686E+02  0.25663128261E+02  0.47787265073E+02  0.19999972773E+02 0.  0.
         12    1    1    2    0    0 -0.26200760284E+02 -0.23206632686E+02 -0.25663128261E+02  0.43400734927E+02  0.00000000000E+00 0. -1.
         11    1    3    3    0    0 -0.13418389857E+01  0.95593679749E+00 -0.96547613940E+00  0.19095788701E+01  0.51100000000E-03 0.  1.
        -11    1    3    3    0    0  0.16874944946E+02  0.18569024184E+02  0.22961260161E+02  0.34011643514E+02  0.51100000000E-03 0. -1.
        -12    1    3    3    0    0  0.10667654324E+02  0.36816717044E+01  0.36673442390E+01  0.11866042689E+02  0.00000000000E+00 0.  1.
</event>
<event>
 7    1  0.5317846E-010  0.4778728E+02  0.7816164E-02  0.1312668E+00
        -11   -1    0    0    0    0  0.00000000000E+00  0.00000000000E+00  0.45593999997E+02  0.45594000000E+02  0.51100000000E-03 0. -1.
         11   -1    0    0    0    0 -0.00000000000E+00 -0.00000000000E+00 -0.45593999997E+02  0.45594000000E+02  0.51100000000E-03 0.  1.
    9900012    2    1    2    0    0  0.59202603074E+00  0.37422634844E+02 -0.21973122997E+02  0.47787283096E+02  0.20000054949E+02 0.  0.
         12    1    1    2    0    0 -0.59202603074E+00 -0.37422634844E+02  0.21973122997E+02  0.43400716904E+02  0.00000000000E+00 0. -1.
         11    1    3    3    0    0  0.73189043908E+01  0.27259374578E+02 -0.19813804361E+02  0.34485166483E+02  0.51100000000E-03 0. -1.
        -11    1    3    3    0    0 -0.56085502450E+01  0.73859659047E+01  0.51401144158E+00  0.92883010405E+01  0.51100000000E-03 0.  1.
         12    1    3    3    0    0 -0.11183281151E+01  0.27772943619E+01 -0.26733300784E+01  0.40138155730E+01  0.00000000000E+00 0. -1.
</event>
<event>
 7    1  0.5317846E-010  0.4778726E+02  0.7816164E-02  0.1312668E+00
        -11   -1    0    0    0    0  0.00000000000E+00  0.00000000000E+00  0.45593999997E+02  0.45594000000E+02  0.51100000000E-03 0.  1.
         11   -1    0    0    0    0 -0.00000000000E+00 -0.00000000000E+00 -0.45593999997E+02  0.45594000000E+02  0.51100000000E-03 0. -1.
    9900012    2    1    2    0    0  0.24217183016E+02 -0.34335369947E+02  0.10873569734E+02  0.47787261511E+02  0.19999956534E+02 0.  0.
         12    1    1    2    0    0 -0.24217183016E+02  0.34335369947E+02 -0.10873569734E+02  0.43400738489E+02  0.00000000000E+00 0. -1.
         11    1    3    3    0    0  0.16013365044E+02 -0.10239768635E+02  0.22137240113E+01  0.19135864130E+02  0.51100000000E-03 0. -1.
        -11    1    3    3    0    0  0.85358126278E+01 -0.16185837748E+02  0.96257066381E+01  0.20675968402E+02  0.51100000000E-03 0.  1.
         12    1    3    3    0    0 -0.33199465646E+00 -0.79097635644E+01 -0.96586091516E+00  0.79754289793E+01  0.00000000000E+00 0. -1.
</event>
<event>
 7    1  0.5317846E-010  0.4778727E+02  0.7816164E-02  0.1312668E+00
        -11   -1    0    0    0    0  0.00000000000E+00  0.00000000000E+00  0.45593999997E+02  0.45594000000E+02  0.51100000000E-03 0.  1.
         11   -1    0    0    0    0 -0.00000000000E+00 -0.00000000000E+00 -0.45593999997E+02  0.45594000000E+02  0.51100000000E-03 0. -1.
    9900012    2    1    2    0    0  0.19798048641E+02 -0.38420884419E+02 -0.39365569171E+01  0.47787267634E+02  0.19999984451E+02 0.  0.
         12    1    1    2    0    0 -0.19798048641E+02  0.38420884419E+02  0.39365569171E+01  0.43400732366E+02  0.00000000000E+00 0. -1.
         11    1    3    3    0    0  0.27917389278E+01 -0.18435318153E+01 -0.12115964982E+01  0.35581430734E+01  0.51100000000E-03 0. -1.
        -11    1    3    3    0    0 -0.93701717309E+00 -0.17207120346E+02  0.21913020792E+01  0.17371378668E+02  0.51100000000E-03 0.  1.
        -12    1    3    3    0    0  0.17943326886E+02 -0.19370232258E+02 -0.49162624981E+01  0.26857745892E+02  0.00000000000E+00 0.  1.
</event>
<event>
 7    1  0.5317846E-010  0.4778727E+02  0.7816164E-02  0.1312668E+00
        -11   -1    0    0    0    0  0.00000000000E+00  0.00000000000E+00  0.45593999997E+02  0.45594000000E+02  0.51100000000E-03 0.  1.
         11   -1    0    0    0    0 -0.00000000000E+00 -0.00000000000E+00 -0.45593999997E+02  0.45594000000E+02  0.51100000000E-03 0. -1.
    9900012    2    1    2    0    0  0.40786902402E+02  0.96923201544E+00  0.14802450857E+02  0.47787269941E+02  0.19999994971E+02 0.  0.
         12    1    1    2    0    0 -0.40786902402E+02 -0.96923201544E+00 -0.14802450857E+02  0.43400730059E+02  0.00000000000E+00 0. -1.
         11    1    3    3    0    0  0.23814974824E+02 -0.95081087288E+00 -0.41640415705E+00  0.23837585026E+02  0.51100000000E-03 0. -1.
        -11    1    3    3    0    0  0.71983868975E+01  0.10214682129E+01  0.11180565830E+02  0.13336612155E+02  0.51100000000E-03 0.  1.
         12    1    3    3    0    0  0.97735406805E+01  0.89857467545E+00  0.40382891841E+01  0.10613072760E+02  0.00000000000E+00 0. -1.
</event>
<event>
 7    1  0.5317846E-010  0.4778729E+02  0.7816164E-02  0.1312668E+00
        -11   -1    0    0    0    0  0.00000000000E+00  0.00000000000E+00  0.45593999997E+02  0.45594000000E+02  0.51100000000E-03 0.  1.
         11   -1    0    0    0    0 -0.00000000000E+00 -0.00000000000E+00 -0.45593999997E+02  0.45594000000E+02  0.51100000000E-03 0. -1.
    9900012    2    1    2    0    0 -0.20882638826E+02  0.77035103047E+01  0.37258460699E+02  0.47787290685E+02  0.20000089549E+02 0.  0.
         12    1    1    2    0    0  0.20882638826E+02 -0.77035103047E+01 -0.37258460699E+02  0.43400709315E+02  0.00000000000E+00 0. -1.
         11    1    3    3    0    0 -0.13230810365E+02  0.19116633941E+01  0.64934752551E+01  0.14861831011E+02  0.51100000000E-03 0. -1.
        -11    1    3    3    0    0 -0.62214995400E+01  0.13374129458E+01  0.22961319779E+02  0.23826832273E+02  0.51100000000E-03 0.  1.
         12    1    3    3    0    0 -0.14303289213E+01  0.44544339649E+01  0.78036656652E+01  0.90986274012E+01  0.00000000000E+00 0. -1.
</event>
<event>
 7    1  0.5317846E-010  0.4778727E+02  0.7816164E-02  0.1312668E+00
        -11   -1    0    0    0    0  0.00000000000E+00  0.00000000000E+00  0.45593999997E+02  0.45594000000E+02  0.51100000000E-03 0.  1.
         11   -1    0    0    0    0 -0.00000000000E+00 -0.00000000000E+00 -0.45593999997E+02  0.45594000000E+02  0.51100000000E-03 0. -1.
    9900012    2    1    2    0    0 -0.20502624327E+02  0.24495498727E+02  0.29380888454E+02  0.47787266498E+02  0.19999979272E+02 0.  0.
         12    1    1    2    0    0  0.20502624327E+02 -0.24495498727E+02 -0.29380888454E+02  0.43400733502E+02  0.00000000000E+00 0. -1.
         11    1    3    3    0    0 -0.72626902930E+01  0.32067023372E+01  0.41385217526E+00  0.79498983676E+01  0.51100000000E-03 0.  1.
        -11    1    3    3    0    0 -0.10394565726E+02  0.22047866545E+02  0.26381818870E+02  0.35918738605E+02  0.51100000000E-03 0. -1.
         12    1    3    3    0    0 -0.28453683082E+01 -0.75907015537E+00  0.25852174084E+01  0.39186295256E+01  0.00000000000E+00 0. -1.
</event>
<event>
 7    1  0.5317846E-010  0.4778727E+02  0.7816164E-02  0.1312668E+00
        -11   -1    0    0    0    0  0.00000000000E+00  0.00000000000E+00  0.45593999997E+02  0.45594000000E+02  0.51100000000E-03 0.  1.
         11   -1    0    0    0    0 -0.00000000000E+00 -0.00000000000E+00 -0.45593999997E+02  0.45594000000E+02  0.51100000000E-03 0. -1.
    9900012    2    1    2    0    0  0.34129349492E+02  0.10298499990E+02  0.24753821470E+02  0.47787271019E+02  0.19999999883E+02 0.  0.
         12    1    1    2    0    0 -0.34129349492E+02 -0.10298499990E+02 -0.24753821470E+02  0.43400728981E+02  0.00000000000E+00 0. -1.
         11    1    3    3    0    0 -0.81598991717E+00 -0.24530804569E+01  0.14993294858E+01  0.29885502239E+01  0.51100000000E-03 0. -1.
        -11    1    3    3    0    0  0.29012885740E+02  0.13842069324E+02  0.18277254090E+02  0.36978486171E+02  0.51100000000E-03 0.  1.
         12    1    3    3    0    0  0.59324536684E+01 -0.10904888775E+01  0.49772378942E+01  0.78202346240E+01  0.00000000000E+00 0. -1.
</event>
<event>
 7    1  0.5317846E-010  0.4778723E+02  0.7816164E-02  0.1312668E+00
        -11   -1    0    0    0    0  0.00000000000E+00  0.00000000000E+00  0.45593999997E+02  0.45594000000E+02  0.51100000000E-03 0.  1.
         11   -1    0    0    0    0 -0.00000000000E+00 -0.00000000000E+00 -0.45593999997E+02  0.45594000000E+02  0.51100000000E-03 0. -1.
    9900012    2    1    2    0    0 -0.17884436344E+02  0.12420650311E+02  0.37543321635E+02  0.47787232531E+02  0.19999824401E+02 0.  0.
         12    1    1    2    0    0  0.17884436344E+02 -0.12420650311E+02 -0.37543321635E+02  0.43400767469E+02  0.00000000000E+00 0. -1.
         11    1    3    3    0    0 -0.36566745513E+01  0.31012183184E+01  0.16110275824E+01  0.50580859982E+01  0.51100000000E-03 0. -1.
        -11    1    3    3    0    0 -0.16932566374E+02  0.49270245999E+01  0.24497529778E+02  0.30184703758E+02  0.51100000000E-03 0.  1.
        -12    1    3    3    0    0  0.27048045813E+01  0.43924073924E+01  0.11434764274E+02  0.12544442775E+02  0.00000000000E+00 0.  1.
</event>
<event>
 7    1  0.5317846E-010  0.4778727E+02  0.7816164E-02  0.1312668E+00
        -11   -1    0    0    0    0  0.00000000000E+00  0.00000000000E+00  0.45593999997E+02  0.45594000000E+02  0.51100000000E-03 0.  1.
         11   -1    0    0    0    0 -0.00000000000E+00 -0.00000000000E+00 -0.45593999997E+02  0.45594000000E+02  0.51100000000E-03 0. -1.
    9900012    2    1    2    0    0 -0.86349949062E+01 -0.39672016237E+02  0.15335941533E+02  0.47787272909E+02  0.20000008502E+02 0.  0.
         12    1    1    2    0    0  0.86349949062E+01  0.39672016237E+02 -0.15335941533E+02  0.43400727091E+02  0.00000000000E+00 0. -1.
         11    1    3    3    0    0 -0.55099741964E+01 -0.21502669909E+02  0.16788601756E+02  0.27831309313E+02  0.51100000000E-03 0. -1.
        -11    1    3    3    0    0  0.37618930241E+00 -0.15364286494E+02 -0.54364459744E+00  0.15378503424E+02  0.51100000000E-03 0.  1.
         12    1    3    3    0    0 -0.35012100123E+01 -0.28050598334E+01 -0.90901562612E+00  0.45774601721E+01  0.00000000000E+00 0. -1.
</event>
<event>
 7    1  0.5317846E-010  0.4778727E+02  0.7816164E-02  0.1312668E+00
        -11   -1    0    0    0    0  0.00000000000E+00  0.00000000000E+00  0.45593999997E+02  0.45594000000E+02  0.51100000000E-03 0.  1.
         11   -1    0    0    0    0 -0.00000000000E+00 -0.00000000000E+00 -0.45593999997E+02  0.45594000000E+02  0.51100000000E-03 0. -1.
    9900012    2    1    2    0    0 -0.32257984454E+01 -0.11332377663E+01  0.43265841495E+02  0.47787273696E+02  0.20000012089E+02 0.  0.
         12    1    1    2    0    0  0.32257984454E+01  0.11332377663E+01 -0.43265841495E+02  0.43400726304E+02  0.00000000000E+00 0. -1.
         11    1    3    3    0    0  0.73658391362E+01 -0.35740809129E+01  0.13563291903E+02  0.15842743704E+02  0.51100000000E-03 0. -1.
        -11    1    3    3    0    0 -0.72382222626E+01  0.29426739938E+01  0.24657693806E+02  0.25866059921E+02  0.51100000000E-03 0.  1.
         12    1    3    3    0    0 -0.33534153190E+01 -0.50183084714E+00  0.50448557865E+01  0.60784700713E+01  0.00000000000E+00 0. -1.
</event>
<event>
 7    1  0.5317846E-010  0.4778727E+02  0.7816164E-02  0.1312668E+00
        -11   -1    0    0    0    0  0.00000000000E+00  0.00000000000E+00  0.45593999997E+02  0.45594000000E+02  0.51100000000E-03 0. -1.
         11   -1    0    0    0    0 -0.00000000000E+00 -0.00000000000E+00 -0.45593999997E+02  0.45594000000E+02  0.51100000000E-03 0.  1.
    9900012    2    1    2    0    0 -0.14763295613E+02  0.39670153142E+02  0.95889144590E+01  0.47787271571E+02  0.20000002400E+02 0.  0.
         12    1    1    2    0    0  0.14763295613E+02 -0.39670153142E+02 -0.95889144590E+01  0.43400728429E+02  0.00000000000E+00 0. -1.
         11    1    3    3    0    0 -0.70635068566E+01  0.57044810950E+01  0.45784804622E+01  0.10168417639E+02  0.51100000000E-03 0. -1.
        -11    1    3    3    0    0 -0.46296689000E+01  0.33479498563E+02  0.60620025713E+01  0.34337421767E+02  0.51100000000E-03 0.  1.
        -12    1    3    3    0    0 -0.30701198559E+01  0.48617348408E+00 -0.10515685744E+01  0.32814321649E+01  0.00000000000E+00 0.  1.
</event>
<event>
 7    1  0.5317846E-010  0.4778728E+02  0.7816164E-02  0.1312668E+00
        -11   -1    0    0    0    0  0.00000000000E+00  0.00000000000E+00  0.45593999997E+02  0.45594000000E+02  0.51100000000E-03 0. -1.
         11   -1    0    0    0    0 -0.00000000000E+00 -0.00000000000E+00 -0.45593999997E+02  0.45594000000E+02  0.51100000000E-03 0.  1.
    9900012    2    1    2    0    0 -0.21670861745E+02 -0.36055024503E+02 -0.10678560737E+02  0.47787277654E+02  0.20000030138E+02 0.  0.
         12    1    1    2    0    0  0.21670861745E+02  0.36055024503E+02  0.10678560737E+02  0.43400722346E+02  0.00000000000E+00 0. -1.
         11    1    3    3    0    0  0.31712883906E+00 -0.60202663858E+01  0.68269471325E+00  0.60671451597E+01  0.51100000000E-03 0. -1.
        -11    1    3    3    0    0 -0.59435249376E+01 -0.16766658957E+02 -0.10964312084E+02  0.20896470539E+02  0.51100000000E-03 0.  1.
        -12    1    3    3    0    0 -0.16044465646E+02 -0.13268099161E+02 -0.39694336676E+00  0.20823661956E+02  0.00000000000E+00 0.  1.
</event>
<event>
 7    1  0.5317846E-010  0.4778727E+02  0.7816164E-02  0.1312668E+00
        -11   -1    0    0    0    0  0.00000000000E+00  0.00000000000E+00  0.45593999997E+02  0.45594000000E+02  0.51100000000E-03 0.  1.
         11   -1    0    0    0    0 -0.00000000000E+00 -0.00000000000E+00 -0.45593999997E+02  0.45594000000E+02  0.51100000000E-03 0. -1.
    9900012    2    1    2    0    0  0.37277634745E+02  0.19476532706E+02 -0.10708227911E+02  0.47787268169E+02  0.19999986891E+02 0.  0.
         12    1    1    2    0    0 -0.37277634745E+02 -0.19476532706E+02  0.10708227911E+02  0.43400731831E+02  0.00000000000E+00 0. -1.
         11    1    3    3    0    0  0.11669987692E+02  0.16774489583E+02 -0.51898298581E+01  0.21083321553E+02  0.51100000000E-03 0. -1.
        -11    1    3    3    0    0  0.14444053347E+02  0.10794639040E+01 -0.52919276501E+01  0.15420778772E+02  0.51100000000E-03 0.  1.
         12    1    3    3    0    0  0.11163593706E+02  0.16225792189E+01 -0.22647040318E+00  0.11283167844E+02  0.00000000000E+00 0. -1.
</event>
<event>
 7    1  0.5317846E-010  0.4778727E+02  0.7816164E-02  0.1312668E+00
        -11   -1    0    0    0    0  0.00000000000E+00  0.00000000000E+00  0.45593999997E+02  0.45594000000E+02  0.51100000000E-03 0. -1.
         11   -1    0    0    0    0 -0.00000000000E+00 -0.00000000000E+00 -0.45593999997E+02  0.45594000000E+02  0.51100000000E-03 0.  1.
    9900012    2    1    2    0    0  0.11438149205E+02 -0.30482128036E+02 -0.28698991678E+02  0.47787268322E+02  0.19999987586E+02 0.  0.
         12    1    1    2    0    0 -0.11438149205E+02  0.30482128036E+02  0.28698991678E+02  0.43400731678E+02  0.00000000000E+00 0. -1.
         11    1    3    3    0    0  0.26762742830E+01 -0.78539944930E+01  0.65263219317E-01  0.82977064953E+01  0.51100000000E-03 0. -1.
        -11    1    3    3    0    0  0.53150833950E+01 -0.44830494545E+01 -0.14744148891E+02  0.16301465293E+02  0.51100000000E-03 0.  1.
        -12    1    3    3    0    0  0.34467915265E+01 -0.18145084089E+02 -0.14020106007E+02  0.23188096534E+02  0.00000000000E+00 0.  1.
</event>
<event>
 7    1  0.5317846E-010  0.4778727E+02  0.7816164E-02  0.1312668E+00
        -11   -1    0    0    0    0  0.00000000000E+00  0.00000000000E+00  0.45593999997E+02  0.45594000000E+02  0.51100000000E-03 0.  1.
         11   -1    0    0    0    0 -0.00000000000E+00 -0.00000000000E+00 -0.45593999997E+02  0.45594000000E+02  0.51100000000E-03 0. -1.
    9900012    2    1    2    0    0  0.53077626838E+01  0.33177647505E+01  0.42946989192E+02  0.47787265118E+02  0.19999972979E+02 0.  0.
         12    1    1    2    0    0 -0.53077626838E+01 -0.33177647505E+01 -0.42946989192E+02  0.43400734882E+02  0.00000000000E+00 0. -1.
         11    1    3    3    0    0  0.10787232642E+02 -0.30691221282E+01  0.30239513806E+02  0.32252319207E+02  0.51100000000E-03 0. -1.
        -11    1    3    3    0    0 -0.54341772146E+01  0.45287522865E+01  0.10238550701E+02  0.12444589186E+02  0.51100000000E-03 0.  1.
         12    1    3    3    0    0 -0.45292743469E-01  0.18581345922E+01  0.24689246843E+01  0.30903567257E+01  0.00000000000E+00 0. -1.
</event>
<event>
 7    1  0.5317846E-010  0.4778727E+02  0.7816164E-02  0.1312668E+00
        -11   -1    0    0    0    0  0.00000000000E+00  0.00000000000E+00  0.45593999997E+02  0.45594000000E+02  0.51100000000E-03 0. -1.
         11   -1    0    0    0    0 -0.00000000000E+00 -0.00000000000E+00 -0.45593999997E+02  0.45594000000E+02  0.51100000000E-03 0.  1.
    9900012    2    1    2    0    0 -0.93439491413E+01  0.27428868927E+02 -0.32310542966E+02  0.47787269327E+02  0.19999992170E+02 0.  0.
         12    1    1    2    0    0  0.93439491413E+01 -0.27428868927E+02  0.32310542966E+02  0.43400730673E+02  0.00000000000E+00 0. -1.
         11    1    3    3    0    0 -0.10589503148E+02  0.12039489641E+02 -0.25212645379E+02  0.29879162890E+02  0.51100000000E-03 0. -1.
        -11    1    3    3    0    0 -0.14381563450E+01  0.12148679828E+02 -0.52388203218E+01  0.13308040948E+02  0.51100000000E-03 0.  1.
         12    1    3    3    0    0  0.26837103515E+01  0.32406994582E+01 -0.18590772649E+01  0.46000654893E+01  0.00000000000E+00 0. -1.
</event>
<event>
 7    1  0.5317846E-010  0.4778728E+02  0.7816164E-02  0.1312668E+00
        -11   -1    0    0    0    0  0.00000000000E+00  0.00000000000E+00  0.45593999997E+02  0.45594000000E+02  0.51100000000E-03 0.  1.
         11   -1    0    0    0    0 -0.00000000000E+00 -0.00000000000E+00 -0.45593999997E+02  0.45594000000E+02  0.51100000000E-03 0. -1.
    9900012    2    1    2    0    0 -0.11015150464E+02 -0.29768831272E+02  0.29599086757E+02  0.47787276597E+02  0.20000025316E+02 0.  0.
         12    1    1    2    0    0  0.11015150464E+02  0.29768831272E+02 -0.29599086757E+02  0.43400723403E+02  0.00000000000E+00 0. -1.
         11    1    3    3    0    0 -0.19620807559E+01  0.24799281117E+01  0.38743315353E+01  0.50010248388E+01  0.51100000000E-03 0. -1.
        -11    1    3    3    0    0 -0.44165253656E+01 -0.18189706263E+02  0.18484089582E+02  0.26306513988E+02  0.51100000000E-03 0.  1.
         12    1    3    3    0    0 -0.46365443429E+01 -0.14059053120E+02  0.72406656401E+01  0.16479737771E+02  0.00000000000E+00 0. -1.
</event>
<event>
 7    1  0.5317846E-010  0.4778728E+02  0.7816164E-02  0.1312668E+00
        -11   -1    0    0    0    0  0.00000000000E+00  0.00000000000E+00  0.45593999997E+02  0.45594000000E+02  0.51100000000E-03 0.  1.
         11   -1    0    0    0    0 -0.00000000000E+00 -0.00000000000E+00 -0.45593999997E+02  0.45594000000E+02  0.51100000000E-03 0. -1.
    9900012    2    1    2    0    0 -0.33576983810E+02  0.17247357180E+02  0.21418156625E+02  0.47787278753E+02  0.20000035149E+02 0.  0.
         12    1    1    2    0    0  0.33576983810E+02 -0.17247357180E+02 -0.21418156625E+02  0.43400721247E+02  0.00000000000E+00 0. -1.
         11    1    3    3    0    0 -0.56234687846E+01  0.27881176758E+01  0.72652428468E+00  0.63186105390E+01  0.51100000000E-03 0. -1.
        -11    1    3    3    0    0 -0.11659462663E+02  0.91228645063E+01  0.27409521096E+00  0.14806919154E+02  0.51100000000E-03 0.  1.
        -12    1    3    3    0    0 -0.16294052362E+02  0.53363749981E+01  0.20417537130E+02  0.26661749060E+02  0.00000000000E+00 0.  1.
</event>
<event>
 7    1  0.5317846E-010  0.4778728E+02  0.7816164E-02  0.1312668E+00
        -11   -1    0    0    0    0  0.00000000000E+00  0.00000000000E+00  0.45593999997E+02  0.45594000000E+02  0.51100000000E-03 0. -1.
         11   -1    0    0    0    0 -0.00000000000E+00 -0.00000000000E+00 -0.45593999997E+02  0.45594000000E+02  0.51100000000E-03 0.  1.
    9900012    2    1    2    0    0  0.79010461585E+01  0.42604443349E+02  0.24612432313E+01  0.47787276023E+02  0.20000022700E+02 0.  0.
         12    1    1    2    0    0 -0.79010461585E+01 -0.42604443349E+02 -0.24612432313E+01  0.43400723977E+02  0.00000000000E+00 0. -1.
         11    1    3    3    0    0 -0.44296615658E+01  0.78573349828E+01 -0.24126046259E+01  0.93370378580E+01  0.51100000000E-03 0. -1.
        -11    1    3    3    0    0  0.82135646760E+01  0.29481152639E+02  0.78413396671E+00  0.30613981641E+02  0.51100000000E-03 0.  1.
        -12    1    3    3    0    0  0.41171430483E+01  0.52659557273E+01  0.40897138906E+01  0.78362565239E+01  0.00000000000E+00 0.  1.
</event>
<event>
 7    1  0.5317846E-010  0.4778725E+02  0.7816164E-02  0.1312668E+00
        -11   -1    0    0    0    0  0.00000000000E+00  0.00000000000E+00  0.45593999997E+02  0.45594000000E+02  0.51100000000E-03 0.  1.
         11   -1    0    0    0    0 -0.00000000000E+00 -0.00000000000E+00 -0.45593999997E+02  0.45594000000E+02  0.51100000000E-03 0. -1.
    9900012    2    1    2    0    0 -0.20442106492E+02  0.25596539171E+02  0.28470374024E+02  0.47787254241E+02  0.19999923386E+02 0.  0.
         12    1    1    2    0    0  0.20442106492E+02 -0.25596539171E+02 -0.28470374024E+02  0.43400745759E+02  0.00000000000E+00 0. -1.
         11    1    3    3    0    0 -0.84690599352E+01  0.18509598438E+02  0.92955783017E+01  0.22377175576E+02  0.51100000000E-03 0. -1.
        -11    1    3    3    0    0 -0.12719115735E+02  0.73841047923E+01  0.19597695737E+02  0.24502460838E+02  0.51100000000E-03 0.  1.
         12    1    3    3    0    0  0.74606917801E+00 -0.29716406008E+00 -0.42290001448E+00  0.90761782664E+00  0.00000000000E+00 0. -1.
</event>
<event>
 7    1  0.5317846E-010  0.4778727E+02  0.7816164E-02  0.1312668E+00
        -11   -1    0    0    0    0  0.00000000000E+00  0.00000000000E+00  0.45593999997E+02  0.45594000000E+02  0.51100000000E-03 0. -1.
         11   -1    0    0    0    0 -0.00000000000E+00 -0.00000000000E+00 -0.45593999997E+02  0.45594000000E+02  0.51100000000E-03 0.  1.
    9900012    2    1    2    0    0  0.38854558517E+02 -0.14047328887E+02 -0.13289803273E+02  0.47787273769E+02  0.20000012421E+02 0.  0.
         12    1    1    2    0    0 -0.38854558517E+02  0.14047328887E+02  0.13289803273E+02  0.43400726231E+02  0.00000000000E+00 0. -1.
         11    1    3    3    0    0  0.42481066463E+01  0.24784852358E+01 -0.33337351329E+01  0.59416402903E+01  0.51100000000E-03 0. -1.
        -11    1    3    3    0    0  0.32225827357E+02 -0.11535588003E+02 -0.11494247591E+02  0.36106667907E+02  0.51100000000E-03 0.  1.
        -12    1    3    3    0    0  0.23806245131E+01 -0.49902261200E+01  0.15381794511E+01  0.57389655710E+01  0.00000000000E+00 0.  1.
</event>
<event>
 7    1  0.5317846E-010  0.4778727E+02  0.7816164E-02  0.1312668E+00
        -11   -1    0    0    0    0  0.00000000000E+00  0.00000000000E+00  0.45593999997E+02  0.45594000000E+02  0.51100000000E-03 0.  1.
         11   -1    0    0    0    0 -0.00000000000E+00 -0.00000000000E+00 -0.45593999997E+02  0.45594000000E+02  0.51100000000E-03 0. -1.
    9900012    2    1    2    0    0  0.14192562661E+02  0.21645077417E+02  0.34837985206E+02  0.47787269309E+02  0.19999992088E+02 0.  0.
         12    1    1    2    0    0 -0.14192562661E+02 -0.21645077417E+02 -0.34837985206E+02  0.43400730691E+02  0.00000000000E+00 0. -1.
         11    1    3    3    0    0 -0.32412549593E+01  0.96971558331E+00  0.95075904965E+01  0.10091598453E+02  0.51100000000E-03 0.  1.
        -11    1    3    3    0    0  0.15831693386E+02  0.14292032741E+02  0.19001984598E+02  0.28565365992E+02  0.51100000000E-03 0. -1.
        -12    1    3    3    0    0  0.16021242347E+01  0.63833290932E+01  0.63284101118E+01  0.91303048645E+01  0.00000000000E+00 0.  1.
</event>
<event>
 7    1  0.5317846E-010  0.4778727E+02  0.7816164E-02  0.1312668E+00
        -11   -1    0    0    0    0  0.00000000000E+00  0.00000000000E+00  0.45593999997E+02  0.45594000000E+02  0.51100000000E-03 0.  1.
         11   -1    0    0    0    0 -0.00000000000E+00 -0.00000000000E+00 -0.45593999997E+02  0.45594000000E+02  0.51100000000E-03 0. -1.
    9900012    2    1    2    0    0 -0.28808507909E+02 -0.32441601003E+02 -0.11116941912E+01  0.47787268814E+02  0.19999989829E+02 0.  0.
         12    1    1    2    0    0  0.28808507909E+02  0.32441601003E+02  0.11116941912E+01  0.43400731186E+02  0.00000000000E+00 0. -1.
         11    1    3    3    0    0 -0.12305021433E+02 -0.47580889304E+01  0.51675347805E+01  0.14168852413E+02  0.51100000000E-03 0.  1.
        -11    1    3    3    0    0 -0.15853948042E+02 -0.25374059286E+02 -0.37858556569E+01  0.30158303276E+02  0.51100000000E-03 0. -1.
         12    1    3    3    0    0 -0.64953843374E+00 -0.23094527868E+01 -0.24933733148E+01  0.34601131251E+01  0.00000000000E+00 0. -1.
</event>
<event>
 7    1  0.5317846E-010  0.4778727E+02  0.7816164E-02  0.1312668E+00
        -11   -1    0    0    0    0  0.00000000000E+00  0.00000000000E+00  0.45593999997E+02  0.45594000000E+02  0.51100000000E-03 0. -1.
         11   -1    0    0    0    0 -0.00000000000E+00 -0.00000000000E+00 -0.45593999997E+02  0.45594000000E+02  0.51100000000E-03 0.  1.
    9900012    2    1    2    0    0  0.34748545532E+02  0.21351904024E+02 -0.14841097467E+02  0.47787269637E+02  0.19999993583E+02 0.  0.
         12    1    1    2    0    0 -0.34748545532E+02 -0.21351904024E+02  0.14841097467E+02  0.43400730363E+02  0.00000000000E+00 0. -1.
         11    1    3    3    0    0  0.19072568219E+01  0.74323639201E-01  0.34738677607E+01  0.39636990385E+01  0.51100000000E-03 0. -1.
        -11    1    3    3    0    0  0.29756932070E+02  0.16932840330E+02 -0.14088953008E+02  0.37022894065E+02  0.51100000000E-03 0.  1.
        -12    1    3    3    0    0  0.30843566399E+01  0.43447400546E+01 -0.42260122199E+01  0.68006765330E+01  0.00000000000E+00 0.  1.
</event>
<event>
 7    1  0.5317846E-010  0.4778727E+02  0.7816164E-02  0.1312668E+00
        -11   -1    0    0    0    0  0.00000000000E+00  0.00000000000E+00  0.45593999997E+02  0.45594000000E+02  0.51100000000E-03 0.  1.
         11   -1    0    0    0    0 -0.00000000000E+00 -0.00000000000E+00 -0.45593999997E+02  0.45594000000E+02  0.51100000000E-03 0. -1.
    9900012    2    1    2    0    0 -0.55851826420E+01  0.24172228128E+02  0.35610848286E+02  0.47787269666E+02  0.19999993715E+02 0.  0.
         12    1    1    2    0    0  0.55851826420E+01 -0.24172228128E+02 -0.35610848286E+02  0.43400730334E+02  0.00000000000E+00 0. -1.
         11    1    3    3    0    0 -0.63795423495E+01  0.14648064703E+02  0.70187724020E+01  0.17450717075E+02  0.51100000000E-03 0. -1.
        -11    1    3    3    0    0 -0.94803259452E-01  0.54581956434E+01  0.20778046984E+02  0.21483205628E+02  0.51100000000E-03 0.  1.
         12    1    3    3    0    0  0.88916296694E+00  0.40659677816E+01  0.78140289010E+01  0.88533469630E+01  0.00000000000E+00 0. -1.
</event>
<event>
 7    1  0.5317846E-010  0.4778727E+02  0.7816164E-02  0.1312668E+00
        -11   -1    0    0    0    0  0.00000000000E+00  0.00000000000E+00  0.45593999997E+02  0.45594000000E+02  0.51100000000E-03 0.  1.
         11   -1    0    0    0    0 -0.00000000000E+00 -0.00000000000E+00 -0.45593999997E+02  0.45594000000E+02  0.51100000000E-03 0. -1.
    9900012    2    1    2    0    0  0.72270436272E+01 -0.37065405923E+02  0.21390400855E+02  0.47787265853E+02  0.19999976329E+02 0.  0.
         12    1    1    2    0    0 -0.72270436272E+01  0.37065405923E+02 -0.21390400855E+02  0.43400734147E+02  0.00000000000E+00 0. -1.
         11    1    3    3    0    0 -0.43084863841E+00  0.84304163225E+00 -0.28300567429E+00  0.98815090736E+00  0.51100000000E-03 0. -1.
        -11    1    3    3    0    0  0.29734778877E+01 -0.16281530054E+02  0.17850729369E+02  0.24342931847E+02  0.51100000000E-03 0.  1.
        -12    1    3    3    0    0  0.46844143780E+01 -0.21626917501E+02  0.38226771595E+01  0.22456183098E+02  0.00000000000E+00 0.  1.
</event>
<event>
 7    1  0.5317846E-010  0.4778728E+02  0.7816164E-02  0.1312668E+00
        -11   -1    0    0    0    0  0.00000000000E+00  0.00000000000E+00  0.45593999997E+02  0.45594000000E+02  0.51100000000E-03 0. -1.
         11   -1    0    0    0    0 -0.00000000000E+00 -0.00000000000E+00 -0.45593999997E+02  0.45594000000E+02  0.51100000000E-03 0.  1.
    9900012    2    1    2    0    0  0.11173576490E+02  0.37101795932E+02 -0.19550724163E+02  0.47787275487E+02  0.20000020256E+02 0.  0.
         12    1    1    2    0    0 -0.11173576490E+02 -0.37101795932E+02  0.19550724163E+02  0.43400724513E+02  0.00000000000E+00 0. -1.
         11    1    3    3    0    0 -0.96523284110E+00 -0.62454739633E+00  0.36719728140E+00  0.12068835869E+01  0.51100000000E-03 0. -1.
        -11    1    3    3    0    0  0.20931375774E+01 -0.70917422661E+00 -0.17103003666E+00  0.22166200703E+01  0.51100000000E-03 0.  1.
        -12    1    3    3    0    0  0.10045671753E+02  0.38435517555E+02 -0.19746891408E+02  0.44363771830E+02  0.00000000000E+00 0.  1.
</event>
<event>
 7    1  0.5317846E-010  0.4778727E+02  0.7816164E-02  0.1312668E+00
        -11   -1    0    0    0    0  0.00000000000E+00  0.00000000000E+00  0.45593999997E+02  0.45594000000E+02  0.51100000000E-03 0.  1.
         11   -1    0    0    0    0 -0.00000000000E+00 -0.00000000000E+00 -0.45593999997E+02  0.45594000000E+02  0.51100000000E-03 0. -1.
    9900012    2    1    2    0    0 -0.14865846391E+02 -0.64014419918E+01  0.40269733844E+02  0.47787270601E+02  0.19999997978E+02 0.  0.
         12    1    1    2    0    0  0.14865846391E+02  0.64014419918E+01 -0.40269733844E+02  0.43400729399E+02  0.00000000000E+00 0. -1.
         11    1    3    3    0    0 -0.48041034039E+00 -0.83438292940E+01  0.19463390631E+02  0.21181922870E+02  0.51100000000E-03 0. -1.
        -11    1    3    3    0    0 -0.52645339064E+01  0.25366779190E+01  0.29513083092E+01  0.65467757799E+01  0.51100000000E-03 0.  1.
         12    1    3    3    0    0 -0.91209021446E+01 -0.59429061677E+00  0.17855034904E+02  0.20058571951E+02  0.00000000000E+00 0. -1.
</event>
<event>
 7    1  0.5317846E-010  0.4778727E+02  0.7816164E-02  0.1312668E+00
        -11   -1    0    0    0    0  0.00000000000E+00  0.00000000000E+00  0.45593999997E+02  0.45594000000E+02  0.51100000000E-03 0.  1.
         11   -1    0    0    0    0 -0.00000000000E+00 -0.00000000000E+00 -0.45593999997E+02  0.45594000000E+02  0.51100000000E-03 0. -1.
    9900012    2    1    2    0    0 -0.16120078686E+02  0.35138624430E+02  0.19724188540E+02  0.47787268702E+02  0.19999989318E+02 0.  0.
         12    1    1    2    0    0  0.16120078686E+02 -0.35138624430E+02 -0.19724188540E+02  0.43400731298E+02  0.00000000000E+00 0. -1.
         11    1    3    3    0    0 -0.36863190644E+01  0.58632336565E+01 -0.39824064402E+01  0.79891187543E+01  0.51100000000E-03 0. -1.
        -11    1    3    3    0    0 -0.60259543503E+01  0.12503818672E+02  0.85510547461E+01  0.16302703602E+02  0.51100000000E-03 0.  1.
         12    1    3    3    0    0 -0.64078052710E+01  0.16771572102E+02  0.15155540234E+02  0.23495446345E+02  0.00000000000E+00 0. -1.
</event>
<event>
 7    1  0.5317846E-010  0.4778727E+02  0.7816164E-02  0.1312668E+00
        -11   -1    0    0    0    0  0.00000000000E+00  0.00000000000E+00  0.45593999997E+02  0.45594000000E+02  0.51100000000E-03 0.  1.
         11   -1    0    0    0    0 -0.00000000000E+00 -0.00000000000E+00 -0.45593999997E+02  0.45594000000E+02  0.51100000000E-03 0. -1.
    9900012    2    1    2    0    0 -0.28939976909E+02 -0.16214497730E+02  0.27985546995E+02  0.47787273731E+02  0.20000012247E+02 0.  0.
         12    1    1    2    0    0  0.28939976909E+02  0.16214497730E+02 -0.27985546995E+02  0.43400726269E+02  0.00000000000E+00 0. -1.
         11    1    3    3    0    0 -0.12496430284E+02  0.21159025882E+01  0.12812519770E+02  0.18022166260E+02  0.51100000000E-03 0. -1.
        -11    1    3    3    0    0 -0.13467744605E+02 -0.10975962466E+02  0.12461543138E+02  0.21380878243E+02  0.51100000000E-03 0.  1.
         12    1    3    3    0    0 -0.29758020199E+01 -0.73544378524E+01  0.27114840871E+01  0.83842292276E+01  0.00000000000E+00 0. -1.
</event>
<event>
 7    1  0.5317846E-010  0.4778727E+02  0.7816164E-02  0.1312668E+00
        -11   -1    0    0    0    0  0.00000000000E+00  0.00000000000E+00  0.45593999997E+02  0.45594000000E+02  0.51100000000E-03 0. -1.
         11   -1    0    0    0    0 -0.00000000000E+00 -0.00000000000E+00 -0.45593999997E+02  0.45594000000E+02  0.51100000000E-03 0.  1.
    9900012    2    1    2    0    0  0.16911842803E+02  0.39966526696E+02  0.53834521264E+00  0.47787268455E+02  0.19999988192E+02 0.  0.
         12    1    1    2    0    0 -0.16911842803E+02 -0.39966526696E+02 -0.53834521264E+00  0.43400731545E+02  0.00000000000E+00 0. -1.
         11    1    3    3    0    0  0.51304872459E+01  0.27907166427E+02  0.58212090715E+00  0.28380815746E+02  0.51100000000E-03 0.  1.
        -11    1    3    3    0    0  0.95243364876E+00 -0.13456073576E+00 -0.27155236175E+01  0.28808514757E+01  0.51100000000E-03 0. -1.
        -12    1    3    3    0    0  0.10828921908E+02  0.12193921004E+02  0.26717479229E+01  0.16525601233E+02  0.00000000000E+00 0.  1.
</event>
<event>
 7    1  0.5317846E-010  0.4778727E+02  0.7816164E-02  0.1312668E+00
        -11   -1    0    0    0    0  0.00000000000E+00  0.00000000000E+00  0.45593999997E+02  0.45594000000E+02  0.51100000000E-03 0. -1.
         11   -1    0    0    0    0 -0.00000000000E+00 -0.00000000000E+00 -0.45593999997E+02  0.45594000000E+02  0.51100000000E-03 0.  1.
    9900012    2    1    2    0    0  0.14874031706E+02 -0.36165046716E+02 -0.18827522953E+02  0.47787273696E+02  0.20000012090E+02 0.  0.
         12    1    1    2    0    0 -0.14874031706E+02  0.36165046716E+02  0.18827522953E+02  0.43400726304E+02  0.00000000000E+00 0. -1.
         11    1    3    3    0    0  0.33355911404E+01 -0.21511377256E+01  0.30606990967E+01  0.50121293870E+01  0.51100000000E-03 0. -1.
        -11    1    3    3    0    0  0.50455832677E+01 -0.24243169046E+02 -0.12437862971E+02  0.27710820837E+02  0.51100000000E-03 0.  1.
        -12    1    3    3    0    0  0.64928572976E+01 -0.97707399442E+01 -0.94503590795E+01  0.15064323472E+02  0.00000000000E+00 0.  1.
</event>
<event>
 7    1  0.5317846E-010  0.4778727E+02  0.7816164E-02  0.1312668E+00
        -11   -1    0    0    0    0  0.00000000000E+00  0.00000000000E+00  0.45593999997E+02  0.45594000000E+02  0.51100000000E-03 0.  1.
         11   -1    0    0    0    0 -0.00000000000E+00 -0.00000000000E+00 -0.45593999997E+02  0.45594000000E+02  0.51100000000E-03 0. -1.
    9900012    2    1    2    0    0 -0.16798133230E+02 -0.90106200010E+01  0.38990445498E+02  0.47787269672E+02  0.19999993744E+02 0.  0.
         12    1    1    2    0    0  0.16798133230E+02  0.90106200010E+01 -0.38990445498E+02  0.43400730328E+02  0.00000000000E+00 0. -1.
         11    1    3    3    0    0 -0.18661786760E+02 -0.37880659197E+01  0.20620082364E+02  0.28067766663E+02  0.51100000000E-03 0. -1.
        -11    1    3    3    0    0  0.49581726281E+00 -0.12375839267E+00  0.85914507800E+01  0.86066356762E+01  0.51100000000E-03 0.  1.
         12    1    3    3    0    0  0.13678362671E+01 -0.50987956886E+01  0.97789123546E+01  0.11112867333E+02  0.00000000000E+00 0. -1.
</event>
<event>
 7    1  0.5317846E-010  0.4778727E+02  0.7816164E-02  0.1312668E+00
        -11   -1    0    0    0    0  0.00000000000E+00  0.00000000000E+00  0.45593999997E+02  0.45594000000E+02  0.51100000000E-03 0.  1.
         11   -1    0    0    0    0 -0.00000000000E+00 -0.00000000000E+00 -0.45593999997E+02  0.45594000000E+02  0.51100000000E-03 0. -1.
    9900012    2    1    2    0    0 -0.25096663816E+02  0.32387235468E+02  0.14312506529E+02  0.47787269602E+02  0.19999993425E+02 0.  0.
         12    1    1    2    0    0  0.25096663816E+02 -0.32387235468E+02 -0.14312506529E+02  0.43400730398E+02  0.00000000000E+00 0. -1.
         11    1    3    3    0    0 -0.10836384356E+02  0.35575109300E+01  0.13481833156E+00  0.11406195079E+02  0.51100000000E-03 0. -1.
        -11    1    3    3    0    0 -0.14440290953E+02  0.20206144763E+02  0.11327241174E+02  0.27296825491E+02  0.51100000000E-03 0.  1.
         12    1    3    3    0    0  0.18001149298E+00  0.86235797741E+01  0.28504470230E+01  0.90842490327E+01  0.00000000000E+00 0. -1.
</event>
<event>
 7    1  0.5317846E-010  0.4778727E+02  0.7816164E-02  0.1312668E+00
        -11   -1    0    0    0    0  0.00000000000E+00  0.00000000000E+00  0.45593999997E+02  0.45594000000E+02  0.51100000000E-03 0.  1.
         11   -1    0    0    0    0 -0.00000000000E+00 -0.00000000000E+00 -0.45593999997E+02  0.45594000000E+02  0.51100000000E-03 0. -1.
    9900012    2    1    2    0    0  0.30360760322E+02  0.82193169397E+01  0.29904690181E+02  0.47787269210E+02  0.19999991637E+02 0.  0.
         12    1    1    2    0    0 -0.30360760322E+02 -0.82193169397E+01 -0.29904690181E+02  0.43400730790E+02  0.00000000000E+00 0. -1.
         11    1    3    3    0    0  0.17609211043E+02  0.84117876280E+01  0.93104066096E+01  0.21622353159E+02  0.51100000000E-03 0. -1.
        -11    1    3    3    0    0  0.36414719913E+01  0.23878181671E+00  0.15062222030E+02  0.15497995605E+02  0.51100000000E-03 0.  1.
         12    1    3    3    0    0  0.91100772877E+01 -0.43125250497E+00  0.55320615409E+01  0.10666920446E+02  0.00000000000E+00 0. -1.
</event>
<event>
 7    1  0.5317846E-010  0.4778727E+02  0.7816164E-02  0.1312668E+00
        -11   -1    0    0    0    0  0.00000000000E+00  0.00000000000E+00  0.45593999997E+02  0.45594000000E+02  0.51100000000E-03 0.  1.
         11   -1    0    0    0    0 -0.00000000000E+00 -0.00000000000E+00 -0.45593999997E+02  0.45594000000E+02  0.51100000000E-03 0. -1.
    9900012    2    1    2    0    0  0.12111531029E+02  0.41331559313E+02  0.53513109562E+01  0.47787268347E+02  0.19999987700E+02 0.  0.
         12    1    1    2    0    0 -0.12111531029E+02 -0.41331559313E+02 -0.53513109562E+01  0.43400731653E+02  0.00000000000E+00 0. -1.
         11    1    3    3    0    0  0.67593218011E+01  0.33364374825E+02  0.11180732298E+02  0.35831253309E+02  0.51100000000E-03 0. -1.
        -11    1    3    3    0    0  0.42611733737E+01  0.37788925836E+01 -0.16266274765E+01  0.59231364063E+01  0.51100000000E-03 0.  1.
         12    1    3    3    0    0  0.10910358545E+01  0.41882919039E+01 -0.42027938656E+01  0.60328786317E+01  0.00000000000E+00 0. -1.
</event>
<event>
 7    1  0.5317846E-010  0.4778728E+02  0.7816164E-02  0.1312668E+00
        -11   -1    0    0    0    0  0.00000000000E+00  0.00000000000E+00  0.45593999997E+02  0.45594000000E+02  0.51100000000E-03 0.  1.
         11   -1    0    0    0    0 -0.00000000000E+00 -0.00000000000E+00 -0.45593999997E+02  0.45594000000E+02  0.51100000000E-03 0. -1.
    9900012    2    1    2    0    0 -0.35293919343E+01  0.28043914489E+02  0.32934854107E+02  0.47787281546E+02  0.20000047881E+02 0.  0.
         12    1    1    2    0    0  0.35293919343E+01 -0.28043914489E+02 -0.32934854107E+02  0.43400718454E+02  0.00000000000E+00 0. -1.
         11    1    3    3    0    0  0.24450004174E+01  0.14691796483E+02  0.13380494624E+02  0.20021602023E+02  0.51100000000E-03 0. -1.
        -11    1    3    3    0    0 -0.60164719211E+01  0.41403094397E+01  0.16527446954E+02  0.18069216909E+02  0.51100000000E-03 0.  1.
        -12    1    3    3    0    0  0.42079569461E-01  0.92118085670E+01  0.30269125285E+01  0.96964626138E+01  0.00000000000E+00 0.  1.
</event>
<event>
 7    1  0.5317846E-010  0.4778727E+02  0.7816164E-02  0.1312668E+00
        -11   -1    0    0    0    0  0.00000000000E+00  0.00000000000E+00  0.45593999997E+02  0.45594000000E+02  0.51100000000E-03 0. -1.
         11   -1    0    0    0    0 -0.00000000000E+00 -0.00000000000E+00 -0.45593999997E+02  0.45594000000E+02  0.51100000000E-03 0.  1.
    9900012    2    1    2    0    0 -0.29214995153E+02 -0.18913452205E+02 -0.25930463322E+02  0.47787267930E+02  0.19999985801E+02 0.  0.
         12    1    1    2    0    0  0.29214995153E+02  0.18913452205E+02  0.25930463322E+02  0.43400732070E+02  0.00000000000E+00 0. -1.
         11    1    3    3    0    0 -0.88234193462E+00 -0.62022723849E+01 -0.23982673667E+01  0.67080844247E+01  0.51100000000E-03 0. -1.
        -11    1    3    3    0    0 -0.25665970907E+02 -0.62688167939E+01 -0.16355524073E+02  0.31073192539E+02  0.51100000000E-03 0.  1.
        -12    1    3    3    0    0 -0.26666823111E+01 -0.64423630265E+01 -0.71766718824E+01  0.10005990967E+02  0.00000000000E+00 0.  1.
</event>
<event>
 7    1  0.5317846E-010  0.4778727E+02  0.7816164E-02  0.1312668E+00
        -11   -1    0    0    0    0  0.00000000000E+00  0.00000000000E+00  0.45593999997E+02  0.45594000000E+02  0.51100000000E-03 0. -1.
         11   -1    0    0    0    0 -0.00000000000E+00 -0.00000000000E+00 -0.45593999997E+02  0.45594000000E+02  0.51100000000E-03 0.  1.
    9900012    2    1    2    0    0 -0.23663561208E+02 -0.18558214225E+02 -0.31293000291E+02  0.47787270611E+02  0.19999998023E+02 0.  0.
         12    1    1    2    0    0  0.23663561208E+02  0.18558214225E+02  0.31293000291E+02  0.43400729389E+02  0.00000000000E+00 0. -1.
         11    1    3    3    0    0 -0.44506868815E-01  0.54944864915E+00  0.30244951981E+00  0.62876915683E+00  0.51100000000E-03 0. -1.
        -11    1    3    3    0    0 -0.35388151753E+01  0.11951904022E+01 -0.11892179202E+02  0.12464975707E+02  0.51100000000E-03 0.  1.
        -12    1    3    3    0    0 -0.20080239164E+02 -0.20302853277E+02 -0.19703270609E+02  0.34693525747E+02  0.00000000000E+00 0.  1.
</event>
<event>
 7    1  0.5317846E-010  0.4778727E+02  0.7816164E-02  0.1312668E+00
        -11   -1    0    0    0    0  0.00000000000E+00  0.00000000000E+00  0.45593999997E+02  0.45594000000E+02  0.51100000000E-03 0.  1.
         11   -1    0    0    0    0 -0.00000000000E+00 -0.00000000000E+00 -0.45593999997E+02  0.45594000000E+02  0.51100000000E-03 0. -1.
    9900012    2    1    2    0    0 -0.56154995671E+01 -0.35507052594E+02  0.24317463859E+02  0.47787266506E+02  0.19999979309E+02 0.  0.
         12    1    1    2    0    0  0.56154995671E+01  0.35507052594E+02 -0.24317463859E+02  0.43400733494E+02  0.00000000000E+00 0. -1.
         11    1    3    3    0    0 -0.39356266505E+01 -0.29854341662E+02  0.18372977949E+02  0.35275163957E+02  0.51100000000E-03 0.  1.
        -11    1    3    3    0    0  0.31288903561E+00 -0.52261961067E+01  0.80365592458E+01  0.95915228231E+01  0.51100000000E-03 0. -1.
         12    1    3    3    0    0 -0.19927619522E+01 -0.42651482519E+00 -0.20920733363E+01  0.29205797265E+01  0.00000000000E+00 0. -1.
</event>
<event>
 7    1  0.5317846E-010  0.4778726E+02  0.7816164E-02  0.1312668E+00
        -11   -1    0    0    0    0  0.00000000000E+00  0.00000000000E+00  0.45593999997E+02  0.45594000000E+02  0.51100000000E-03 0.  1.
         11   -1    0    0    0    0 -0.00000000000E+00 -0.00000000000E+00 -0.45593999997E+02  0.45594000000E+02  0.51100000000E-03 0. -1.
    9900012    2    1    2    0    0 -0.45776819889E+01  0.30324814038E+02  0.30709523033E+02  0.47787258949E+02  0.19999944854E+02 0.  0.
         12    1    1    2    0    0  0.45776819889E+01 -0.30324814038E+02 -0.30709523033E+02  0.43400741051E+02  0.00000000000E+00 0. -1.
         11    1    3    3    0    0 -0.75337920556E+00  0.87122105245E+01  0.19449731238E+02  0.21325155050E+02  0.51100000000E-03 0.  1.
        -11    1    3    3    0    0 -0.52749943868E+01  0.21470150738E+02  0.92180103242E+01  0.23953385003E+02  0.51100000000E-03 0. -1.
         12    1    3    3    0    0  0.14506916034E+01  0.14245277472E+00  0.20417814715E+01  0.25087188959E+01  0.00000000000E+00 0. -1.
</event>
<event>
 7    1  0.5317846E-010  0.4778727E+02  0.7816164E-02  0.1312668E+00
        -11   -1    0    0    0    0  0.00000000000E+00  0.00000000000E+00  0.45593999997E+02  0.45594000000E+02  0.51100000000E-03 0.  1.
         11   -1    0    0    0    0 -0.00000000000E+00 -0.00000000000E+00 -0.45593999997E+02  0.45594000000E+02  0.51100000000E-03 0. -1.
    9900012    2    1    2    0    0 -0.22500330362E+02 -0.21703719479E+02  0.30104939136E+02  0.47787266526E+02  0.19999979401E+02 0.  0.
         12    1    1    2    0    0  0.22500330362E+02  0.21703719479E+02 -0.30104939136E+02  0.43400733474E+02  0.00000000000E+00 0. -1.
         11    1    3    3    0    0 -0.14821075236E+02 -0.18420799331E+02  0.14820262720E+02  0.27903947866E+02  0.51100000000E-03 0. -1.
        -11    1    3    3    0    0 -0.13662161210E+01 -0.54378939533E+01  0.44431362976E+01  0.71539288197E+01  0.51100000000E-03 0.  1.
         12    1    3    3    0    0 -0.63130390054E+01  0.21549738048E+01  0.10841540119E+02  0.12729389841E+02  0.00000000000E+00 0. -1.
</event>
<event>
 7    1  0.5317846E-010  0.4778727E+02  0.7816164E-02  0.1312668E+00
        -11   -1    0    0    0    0  0.00000000000E+00  0.00000000000E+00  0.45593999997E+02  0.45594000000E+02  0.51100000000E-03 0. -1.
         11   -1    0    0    0    0 -0.00000000000E+00 -0.00000000000E+00 -0.45593999997E+02  0.45594000000E+02  0.51100000000E-03 0.  1.
    9900012    2    1    2    0    0 -0.22635331742E+02 -0.12456867625E+02 -0.34872507521E+02  0.47787267577E+02  0.19999984189E+02 0.  0.
         12    1    1    2    0    0  0.22635331742E+02  0.12456867625E+02  0.34872507521E+02  0.43400732423E+02  0.00000000000E+00 0. -1.
         11    1    3    3    0    0  0.95250552713E+00 -0.28459799126E+01 -0.10053834643E+02  0.10492209478E+02  0.51100000000E-03 0. -1.
        -11    1    3    3    0    0 -0.20336342117E+02 -0.11933713530E+02 -0.22873362847E+02  0.32850739071E+02  0.51100000000E-03 0.  1.
        -12    1    3    3    0    0 -0.32514951518E+01  0.23228258182E+01 -0.19453100318E+01  0.44443190281E+01  0.00000000000E+00 0.  1.
</event>
<event>
 7    1  0.5317846E-010  0.4778727E+02  0.7816164E-02  0.1312668E+00
        -11   -1    0    0    0    0  0.00000000000E+00  0.00000000000E+00  0.45593999997E+02  0.45594000000E+02  0.51100000000E-03 0.  1.
         11   -1    0    0    0    0 -0.00000000000E+00 -0.00000000000E+00 -0.45593999997E+02  0.45594000000E+02  0.51100000000E-03 0. -1.
    9900012    2    1    2    0    0 -0.81903010140E+00 -0.63314112596E+01  0.42928609988E+02  0.47787272652E+02  0.20000007331E+02 0.  0.
         12    1    1    2    0    0  0.81903010140E+00  0.63314112596E+01 -0.42928609988E+02  0.43400727348E+02  0.00000000000E+00 0. -1.
         11    1    3    3    0    0  0.27705210581E+01  0.13679413527E+01  0.70801228950E+01  0.77249719060E+01  0.51100000000E-03 0. -1.
        -11    1    3    3    0    0  0.20875024396E+01 -0.88721882069E+01  0.31564748963E+02  0.32854326463E+02  0.51100000000E-03 0.  1.
        -12    1    3    3    0    0 -0.56770535991E+01  0.11728355946E+01  0.42837381296E+01  0.72079742828E+01  0.00000000000E+00 0.  1.
</event>
<event>
 7    1  0.5317846E-010  0.4778727E+02  0.7816164E-02  0.1312668E+00
        -11   -1    0    0    0    0  0.00000000000E+00  0.00000000000E+00  0.45593999997E+02  0.45594000000E+02  0.51100000000E-03 0.  1.
         11   -1    0    0    0    0 -0.00000000000E+00 -0.00000000000E+00 -0.45593999997E+02  0.45594000000E+02  0.51100000000E-03 0. -1.
    9900012    2    1    2    0    0 -0.12037845126E+02 -0.15144757286E+02  0.38850353703E+02  0.47787269921E+02  0.19999994878E+02 0.  0.
         12    1    1    2    0    0  0.12037845126E+02  0.15144757286E+02 -0.38850353703E+02  0.43400730079E+02  0.00000000000E+00 0. -1.
         11    1    3    3    0    0 -0.33593986179E+01 -0.70401535856E+01  0.44922360519E+01  0.90016391058E+01  0.51100000000E-03 0.  1.
        -11    1    3    3    0    0 -0.55704310447E+01  0.18080634549E+01  0.21348195539E+02  0.22136943071E+02  0.51100000000E-03 0. -1.
         12    1    3    3    0    0 -0.31080154633E+01 -0.99126671552E+01  0.13009922112E+02  0.16648687744E+02  0.00000000000E+00 0. -1.
</event>
<event>
 7    1  0.5317846E-010  0.4778727E+02  0.7816164E-02  0.1312668E+00
        -11   -1    0    0    0    0  0.00000000000E+00  0.00000000000E+00  0.45593999997E+02  0.45594000000E+02  0.51100000000E-03 0. -1.
         11   -1    0    0    0    0 -0.00000000000E+00 -0.00000000000E+00 -0.45593999997E+02  0.45594000000E+02  0.51100000000E-03 0.  1.
    9900012    2    1    2    0    0 -0.33308066342E+02 -0.27667583385E+02  0.29497171802E+01  0.47787270913E+02  0.19999999403E+02 0.  0.
         12    1    1    2    0    0  0.33308066342E+02  0.27667583385E+02 -0.29497171802E+01  0.43400729087E+02  0.00000000000E+00 0. -1.
         11    1    3    3    0    0 -0.34921146735E+01 -0.10111836237E+02 -0.36326268874E+01  0.11297790728E+02  0.51100000000E-03 0. -1.
        -11    1    3    3    0    0 -0.29004817025E+02 -0.18153182987E+02  0.76069517063E+01  0.35052577334E+02  0.51100000000E-03 0.  1.
         12    1    3    3    0    0 -0.81113464312E+00  0.59743583878E+00 -0.10246076387E+01  0.14369028513E+01  0.00000000000E+00 0. -1.
</event>
<event>
 7    1  0.5317846E-010  0.4778727E+02  0.7816164E-02  0.1312668E+00
        -11   -1    0    0    0    0  0.00000000000E+00  0.00000000000E+00  0.45593999997E+02  0.45594000000E+02  0.51100000000E-03 0.  1.
         11   -1    0    0    0    0 -0.00000000000E+00 -0.00000000000E+00 -0.45593999997E+02  0.45594000000E+02  0.51100000000E-03 0. -1.
    9900012    2    1    2    0    0 -0.10942581745E+02 -0.41916270008E+02  0.26285660946E+01  0.47787272513E+02  0.20000006697E+02 0.  0.
         12    1    1    2    0    0  0.10942581745E+02  0.41916270008E+02 -0.26285660946E+01  0.43400727487E+02  0.00000000000E+00 0. -1.
         11    1    3    3    0    0  0.33472261253E+01 -0.54629137057E+01 -0.16506062165E+01  0.66160297787E+01  0.51100000000E-03 0. -1.
        -11    1    3    3    0    0 -0.16230038192E+02 -0.29656242664E+02  0.26052886910E+01  0.33907143762E+02  0.51100000000E-03 0.  1.
         12    1    3    3    0    0  0.19402303211E+01 -0.67971136386E+01  0.16738836201E+01  0.72640989730E+01  0.00000000000E+00 0. -1.
</event>
<event>
 7    1  0.5317846E-010  0.4778728E+02  0.7816164E-02  0.1312668E+00
        -11   -1    0    0    0    0  0.00000000000E+00  0.00000000000E+00  0.45593999997E+02  0.45594000000E+02  0.51100000000E-03 0.  1.
         11   -1    0    0    0    0 -0.00000000000E+00 -0.00000000000E+00 -0.45593999997E+02  0.45594000000E+02  0.51100000000E-03 0. -1.
    9900012    2    1    2    0    0 -0.27294191633E+02 -0.14523887429E+02  0.30458267453E+02  0.47787282734E+02  0.20000053296E+02 0.  0.
         12    1    1    2    0    0  0.27294191633E+02  0.14523887429E+02 -0.30458267453E+02  0.43400717266E+02  0.00000000000E+00 0. -1.
         11    1    3    3    0    0 -0.16299375695E+02 -0.18442761240E+02  0.20600037365E+02  0.32096208965E+02  0.51100000000E-03 0. -1.
        -11    1    3    3    0    0 -0.60349076240E+01  0.31104459258E+01  0.36647460554E+01  0.77152671891E+01  0.51100000000E-03 0.  1.
         12    1    3    3    0    0 -0.49599083149E+01  0.80842788569E+00  0.61934840326E+01  0.79758065799E+01  0.00000000000E+00 0. -1.
</event>
<event>
 7    1  0.5317846E-010  0.4778727E+02  0.7816164E-02  0.1312668E+00
        -11   -1    0    0    0    0  0.00000000000E+00  0.00000000000E+00  0.45593999997E+02  0.45594000000E+02  0.51100000000E-03 0.  1.
         11   -1    0    0    0    0 -0.00000000000E+00 -0.00000000000E+00 -0.45593999997E+02  0.45594000000E+02  0.51100000000E-03 0. -1.
    9900012    2    1    2    0    0 -0.62774064550E+00  0.25164835552E+02  0.35354780845E+02  0.47787268032E+02  0.19999986267E+02 0.  0.
         12    1    1    2    0    0  0.62774064550E+00 -0.25164835552E+02 -0.35354780845E+02  0.43400731968E+02  0.00000000000E+00 0. -1.
         11    1    3    3    0    0  0.78148925733E+01  0.77083786940E+01  0.14605428401E+02  0.18270473093E+02  0.51100000000E-03 0. -1.
        -11    1    3    3    0    0 -0.72922014219E+01  0.93179942891E+01  0.77752676714E+01  0.14158248718E+02  0.51100000000E-03 0.  1.
        -12    1    3    3    0    0 -0.11504317968E+01  0.81384625694E+01  0.12974084773E+02  0.15358546221E+02  0.00000000000E+00 0.  1.
</event>
<event>
 7    1  0.5317846E-010  0.4778727E+02  0.7816164E-02  0.1312668E+00
        -11   -1    0    0    0    0  0.00000000000E+00  0.00000000000E+00  0.45593999997E+02  0.45594000000E+02  0.51100000000E-03 0.  1.
         11   -1    0    0    0    0 -0.00000000000E+00 -0.00000000000E+00 -0.45593999997E+02  0.45594000000E+02  0.51100000000E-03 0. -1.
    9900012    2    1    2    0    0  0.27475508034E+02 -0.26188348866E+02  0.21044961548E+02  0.47787267695E+02  0.19999984728E+02 0.  0.
         12    1    1    2    0    0 -0.27475508034E+02  0.26188348866E+02 -0.21044961548E+02  0.43400732305E+02  0.00000000000E+00 0. -1.
         11    1    3    3    0    0  0.39825694081E+01 -0.47738138471E+01 -0.10387430096E+01  0.63031059834E+01  0.51100000000E-03 0. -1.
        -11    1    3    3    0    0  0.19459565938E+02 -0.12184256523E+02  0.83031611129E+01  0.24414612392E+02  0.51100000000E-03 0.  1.
        -12    1    3    3    0    0  0.40333726884E+01 -0.92302784954E+01  0.13780543445E+02  0.17069549320E+02  0.00000000000E+00 0.  1.
</event>
<event>
 7    1  0.8712158E-010  0.4778727E+02  0.7816164E-02  0.1312668E+00
        -11   -1    0    0    0    0  0.00000000000E+00  0.00000000000E+00  0.45593999997E+02  0.45594000000E+02  0.51100000000E-03 0. -1.
         11   -1    0    0    0    0 -0.00000000000E+00 -0.00000000000E+00 -0.45593999997E+02  0.45594000000E+02  0.51100000000E-03 0.  1.
    9900012    2    1    2    0    0 -0.25932884570E+02  0.14136069471E+02 -0.31800633605E+02  0.47787271206E+02  0.20000000735E+02 0.  0.
         12    1    1    2    0    0  0.25932884570E+02 -0.14136069471E+02  0.31800633605E+02  0.43400728794E+02  0.00000000000E+00 0. -1.
         11    1    3    3    0    0 -0.11283049150E+02  0.11083428936E+02 -0.78049274448E+01  0.17637077075E+02  0.51100000000E-03 0. -1.
        -11    1    3    3    0    0 -0.16306552886E+02  0.29530555042E+01 -0.21346259077E+02  0.27023822466E+02  0.51100000000E-03 0.  1.
         12    1    3    3    0    0  0.16567174653E+01  0.99585030738E-01 -0.26494470831E+01  0.31263716644E+01  0.00000000000E+00 0. -1.
</event>
<event>
 7    1  0.5317846E-010  0.4778727E+02  0.7816164E-02  0.1312668E+00
        -11   -1    0    0    0    0  0.00000000000E+00  0.00000000000E+00  0.45593999997E+02  0.45594000000E+02  0.51100000000E-03 0.  1.
         11   -1    0    0    0    0 -0.00000000000E+00 -0.00000000000E+00 -0.45593999997E+02  0.45594000000E+02  0.51100000000E-03 0. -1.
    9900012    2    1    2    0    0  0.22833005126E+02  0.27852958642E+02  0.24217552965E+02  0.47787270745E+02  0.19999998635E+02 0.  0.
         12    1    1    2    0    0 -0.22833005126E+02 -0.27852958642E+02 -0.24217552965E+02  0.43400729255E+02  0.00000000000E+00 0. -1.
         11    1    3    3    0    0  0.49860788491E+01  0.19310378572E+02  0.12906510562E+02  0.23755624977E+02  0.51100000000E-03 0. -1.
        -11    1    3    3    0    0  0.84107881474E+01  0.60917172834E+01  0.95819822835E+01  0.14130278181E+02  0.51100000000E-03 0.  1.
         12    1    3    3    0    0  0.94361381299E+01  0.24508627867E+01  0.17290601197E+01  0.99013675875E+01  0.00000000000E+00 0. -1.
</event>
<event>
 7    1  0.5317846E-010  0.4778727E+02  0.7816164E-02  0.1312668E+00
        -11   -1    0    0    0    0  0.00000000000E+00  0.00000000000E+00  0.45593999997E+02  0.45594000000E+02  0.51100000000E-03 0.  1.
         11   -1    0    0    0    0 -0.00000000000E+00 -0.00000000000E+00 -0.45593999997E+02  0.45594000000E+02  0.51100000000E-03 0. -1.
    9900012    2    1    2    0    0 -0.35161512551E+02  0.24208141049E+02 -0.78266931233E+01  0.47787272089E+02  0.20000004764E+02 0.  0.
         12    1    1    2    0    0  0.35161512551E+02 -0.24208141049E+02  0.78266931233E+01  0.43400727911E+02  0.00000000000E+00 0. -1.
         11    1    3    3    0    0 -0.28402190376E+02  0.21819105266E+02 -0.11832543735E+02  0.37719581974E+02  0.51100000000E-03 0. -1.
        -11    1    3    3    0    0 -0.62103777663E+01 -0.44695425363E+00  0.34755772504E+01  0.71307922134E+01  0.51100000000E-03 0.  1.
         12    1    3    3    0    0 -0.54894440866E+00  0.28359900363E+01  0.53027336101E+00  0.29368979021E+01  0.00000000000E+00 0. -1.
</event>
<event>
 7    1  0.5317846E-010  0.4778726E+02  0.7816164E-02  0.1312668E+00
        -11   -1    0    0    0    0  0.00000000000E+00  0.00000000000E+00  0.45593999997E+02  0.45594000000E+02  0.51100000000E-03 0.  1.
         11   -1    0    0    0    0 -0.00000000000E+00 -0.00000000000E+00 -0.45593999997E+02  0.45594000000E+02  0.51100000000E-03 0. -1.
    9900012    2    1    2    0    0 -0.87816170872E+01 -0.39320078404E+02  0.16138106584E+02  0.47787264425E+02  0.19999969819E+02 0.  0.
         12    1    1    2    0    0  0.87816170872E+01  0.39320078404E+02 -0.16138106584E+02  0.43400735575E+02  0.00000000000E+00 0. -1.
         11    1    3    3    0    0 -0.62121198798E+01 -0.66754315731E+01 -0.18287208986E+01  0.93003247510E+01  0.51100000000E-03 0. -1.
        -11    1    3    3    0    0 -0.82526532134E+00 -0.25242304251E+02  0.91954361208E+01  0.26877705119E+02  0.51100000000E-03 0.  1.
         12    1    3    3    0    0 -0.17442318860E+01 -0.74023425801E+01  0.87713913615E+01  0.11609234555E+02  0.00000000000E+00 0. -1.
</event>
<event>
 7    1  0.5317846E-010  0.4778727E+02  0.7816164E-02  0.1312668E+00
        -11   -1    0    0    0    0  0.00000000000E+00  0.00000000000E+00  0.45593999997E+02  0.45594000000E+02  0.51100000000E-03 0.  1.
         11   -1    0    0    0    0 -0.00000000000E+00 -0.00000000000E+00 -0.45593999997E+02  0.45594000000E+02  0.51100000000E-03 0. -1.
    9900012    2    1    2    0    0  0.38495907082E+02 -0.84565184891E+01  0.18170736070E+02  0.47787271708E+02  0.20000003023E+02 0.  0.
         12    1    1    2    0    0 -0.38495907082E+02  0.84565184891E+01 -0.18170736070E+02  0.43400728292E+02  0.00000000000E+00 0. -1.
         11    1    3    3    0    0  0.28566411896E+01 -0.36010079161E+01 -0.21365881705E+01  0.50687933643E+01  0.51100000000E-03 0. -1.
        -11    1    3    3    0    0  0.23206944197E+02 -0.19599380884E+01  0.18669336432E+02  0.29848747701E+02  0.51100000000E-03 0.  1.
        -12    1    3    3    0    0  0.12432321695E+02 -0.28955724845E+01  0.16379878091E+01  0.12869730642E+02  0.00000000000E+00 0.  1.
</event>
<event>
 7    1  0.5317846E-010  0.4778726E+02  0.7816164E-02  0.1312668E+00
        -11   -1    0    0    0    0  0.00000000000E+00  0.00000000000E+00  0.45593999997E+02  0.45594000000E+02  0.51100000000E-03 0. -1.
         11   -1    0    0    0    0 -0.00000000000E+00 -0.00000000000E+00 -0.45593999997E+02  0.45594000000E+02  0.51100000000E-03 0.  1.
    9900012    2    1    2    0    0 -0.48523755781E+01  0.32835429180E+02 -0.27962715523E+02  0.47787257868E+02  0.19999939924E+02 0.  0.
         12    1    1    2    0    0  0.48523755781E+01 -0.32835429180E+02  0.27962715523E+02  0.43400742132E+02  0.00000000000E+00 0. -1.
         11    1    3    3    0    0  0.25589852145E+01  0.26195353143E+00 -0.36662151246E+01  0.44786335619E+01  0.51100000000E-03 0. -1.
        -11    1    3    3    0    0 -0.85073423126E+01  0.28506496404E+02 -0.25215290841E+02  0.38997514061E+02  0.51100000000E-03 0.  1.
        -12    1    3    3    0    0  0.10959815200E+01  0.40669792451E+01  0.91879044308E+00  0.43111102457E+01  0.00000000000E+00 0.  1.
</event>
<event>
 7    1  0.5317846E-010  0.4778727E+02  0.7816164E-02  0.1312668E+00
        -11   -1    0    0    0    0  0.00000000000E+00  0.00000000000E+00  0.45593999997E+02  0.45594000000E+02  0.51100000000E-03 0.  1.
         11   -1    0    0    0    0 -0.00000000000E+00 -0.00000000000E+00 -0.45593999997E+02  0.45594000000E+02  0.51100000000E-03 0. -1.
    9900012    2    1    2    0    0 -0.36770299249E+01  0.36903951596E+02  0.22543319913E+02  0.47787268841E+02  0.19999989953E+02 0.  0.
         12    1    1    2    0    0  0.36770299249E+01 -0.36903951596E+02 -0.22543319913E+02  0.43400731159E+02  0.00000000000E+00 0. -1.
         11    1    3    3    0    0 -0.22846155421E+01  0.73047096853E+01  0.13250043556E+02  0.15301696189E+02  0.51100000000E-03 0. -1.
        -11    1    3    3    0    0 -0.48546680283E+01  0.24276420547E+02  0.69105716808E+01  0.25703470534E+02  0.51100000000E-03 0.  1.
        -12    1    3    3    0    0  0.34622536455E+01  0.53228213632E+01  0.23827046766E+01  0.67821021185E+01  0.00000000000E+00 0.  1.
</event>
<event>
 7    1  0.5317846E-010  0.4778727E+02  0.7816164E-02  0.1312668E+00
        -11   -1    0    0    0    0  0.00000000000E+00  0.00000000000E+00  0.45593999997E+02  0.45594000000E+02  0.51100000000E-03 0.  1.
         11   -1    0    0    0    0 -0.00000000000E+00 -0.00000000000E+00 -0.45593999997E+02  0.45594000000E+02  0.51100000000E-03 0. -1.
    9900012    2    1    2    0    0 -0.83068397497E+01  0.36689320748E+02  0.21645170835E+02  0.47787271157E+02  0.20000000515E+02 0.  0.
         12    1    1    2    0    0  0.83068397497E+01 -0.36689320748E+02 -0.21645170835E+02  0.43400728843E+02  0.00000000000E+00 0. -1.
         11    1    3    3    0    0 -0.26719556790E+01  0.10079886175E+02  0.16754640551E+02  0.19734777239E+02  0.51100000000E-03 0. -1.
        -11    1    3    3    0    0 -0.17868841460E+01  0.19114345074E+02  0.34246002916E+01  0.19500744345E+02  0.51100000000E-03 0.  1.
         12    1    3    3    0    0 -0.38479999247E+01  0.74950894990E+01  0.14659299928E+01  0.85517495732E+01  0.00000000000E+00 0. -1.
</event>
<event>
 7    1  0.5317846E-010  0.4778727E+02  0.7816164E-02  0.1312668E+00
        -11   -1    0    0    0    0  0.00000000000E+00  0.00000000000E+00  0.45593999997E+02  0.45594000000E+02  0.51100000000E-03 0.  1.
         11   -1    0    0    0    0 -0.00000000000E+00 -0.00000000000E+00 -0.45593999997E+02  0.45594000000E+02  0.51100000000E-03 0. -1.
    9900012    2    1    2    0    0  0.21642305066E+02  0.56067848953E+01  0.37199437455E+02  0.47787267836E+02  0.19999985372E+02 0.  0.
         12    1    1    2    0    0 -0.21642305066E+02 -0.56067848953E+01 -0.37199437455E+02  0.43400732164E+02  0.00000000000E+00 0. -1.
         11    1    3    3    0    0  0.24496456012E+01  0.18347031526E+01  0.15354011083E+01  0.34240847031E+01  0.51100000000E-03 0.  1.
        -11    1    3    3    0    0 -0.34417490786E+01  0.23227232917E+00  0.40296440703E+01  0.53044904326E+01  0.51100000000E-03 0. -1.
        -12    1    3    3    0    0  0.22634408543E+02  0.35398094135E+01  0.31634392276E+02  0.39058692700E+02  0.00000000000E+00 0.  1.
</event>
<event>
 7    1  0.5317846E-010  0.4778728E+02  0.7816164E-02  0.1312668E+00
        -11   -1    0    0    0    0  0.00000000000E+00  0.00000000000E+00  0.45593999997E+02  0.45594000000E+02  0.51100000000E-03 0.  1.
         11   -1    0    0    0    0 -0.00000000000E+00 -0.00000000000E+00 -0.45593999997E+02  0.45594000000E+02  0.51100000000E-03 0. -1.
    9900012    2    1    2    0    0  0.12523100338E+02  0.30471669517E+02  0.28253710934E+02  0.47787275735E+02  0.20000021385E+02 0.  0.
         12    1    1    2    0    0 -0.12523100338E+02 -0.30471669517E+02 -0.28253710934E+02  0.43400724265E+02  0.00000000000E+00 0. -1.
         11    1    3    3    0    0  0.65089347860E+01 -0.89878344697E+00  0.46158729012E+01  0.80299642984E+01  0.51100000000E-03 0. -1.
        -11    1    3    3    0    0  0.36971147814E+01  0.20296550789E+02  0.14541784360E+02  0.25240485817E+02  0.51100000000E-03 0.  1.
         12    1    3    3    0    0  0.23170507708E+01  0.11073902174E+02  0.90960536727E+01  0.14516825619E+02  0.00000000000E+00 0. -1.
</event>
<event>
 7    1  0.5317846E-010  0.4778728E+02  0.7816164E-02  0.1312668E+00
        -11   -1    0    0    0    0  0.00000000000E+00  0.00000000000E+00  0.45593999997E+02  0.45594000000E+02  0.51100000000E-03 0.  1.
         11   -1    0    0    0    0 -0.00000000000E+00 -0.00000000000E+00 -0.45593999997E+02  0.45594000000E+02  0.51100000000E-03 0. -1.
    9900012    2    1    2    0    0 -0.69174448429E+01 -0.38900282491E+01  0.42668948683E+02  0.47787279446E+02  0.20000038304E+02 0.  0.
         12    1    1    2    0    0  0.69174448429E+01  0.38900282491E+01 -0.42668948683E+02  0.43400720554E+02  0.00000000000E+00 0. -1.
         11    1    3    3    0    0 -0.95585210187E+01  0.49074598637E+00  0.20726153266E+02  0.22829357966E+02  0.51100000000E-03 0. -1.
        -11    1    3    3    0    0  0.38310100069E+01  0.16147376027E+01  0.32080343988E+01  0.52512379649E+01  0.51100000000E-03 0.  1.
         12    1    3    3    0    0 -0.11899338310E+01 -0.59955118381E+01  0.18734761018E+02  0.19706683514E+02  0.00000000000E+00 0. -1.
</event>
<event>
 7    1  0.5317846E-010  0.4778724E+02  0.7816164E-02  0.1312668E+00
        -11   -1    0    0    0    0  0.00000000000E+00  0.00000000000E+00  0.45593999997E+02  0.45594000000E+02  0.51100000000E-03 0.  1.
         11   -1    0    0    0    0 -0.00000000000E+00 -0.00000000000E+00 -0.45593999997E+02  0.45594000000E+02  0.51100000000E-03 0. -1.
    9900012    2    1    2    0    0  0.14598519781E+02 -0.12187068869E+02  0.39012622342E+02  0.47787238147E+02  0.19999850006E+02 0.  0.
         12    1    1    2    0    0 -0.14598519781E+02  0.12187068869E+02 -0.39012622342E+02  0.43400761853E+02  0.00000000000E+00 0. -1.
         11    1    3    3    0    0  0.11584946500E+02 -0.43417915914E+01  0.20488443519E+02  0.23934043907E+02  0.51100000000E-03 0. -1.
        -11    1    3    3    0    0 -0.33342165281E+01 -0.52492044520E+00  0.11227123658E+02  0.11723516846E+02  0.51100000000E-03 0.  1.
        -12    1    3    3    0    0  0.63477898089E+01 -0.73203568323E+01  0.72970551649E+01  0.12129677394E+02  0.00000000000E+00 0.  1.
</event>
<event>
 7    1  0.5317846E-010  0.4778727E+02  0.7816164E-02  0.1312668E+00
        -11   -1    0    0    0    0  0.00000000000E+00  0.00000000000E+00  0.45593999997E+02  0.45594000000E+02  0.51100000000E-03 0.  1.
         11   -1    0    0    0    0 -0.00000000000E+00 -0.00000000000E+00 -0.45593999997E+02  0.45594000000E+02  0.51100000000E-03 0. -1.
    9900012    2    1    2    0    0  0.26015133248E+02 -0.32103569578E+02 -0.13273914285E+02  0.47787272610E+02  0.20000007136E+02 0.  0.
         12    1    1    2    0    0 -0.26015133248E+02  0.32103569578E+02  0.13273914285E+02  0.43400727390E+02  0.00000000000E+00 0. -1.
         11    1    3    3    0    0  0.12944460813E+02 -0.54642376651E+01 -0.32450058623E+01  0.14420368314E+02  0.51100000000E-03 0. -1.
        -11    1    3    3    0    0  0.71384648660E+01 -0.19132511799E+02 -0.13768024703E+01  0.20467199947E+02  0.51100000000E-03 0.  1.
         12    1    3    3    0    0  0.59322075694E+01 -0.75068201143E+01 -0.86521059520E+01  0.12899704348E+02  0.00000000000E+00 0. -1.
</event>
<event>
 7    1  0.5317846E-010  0.4778727E+02  0.7816164E-02  0.1312668E+00
        -11   -1    0    0    0    0  0.00000000000E+00  0.00000000000E+00  0.45593999997E+02  0.45594000000E+02  0.51100000000E-03 0.  1.
         11   -1    0    0    0    0 -0.00000000000E+00 -0.00000000000E+00 -0.45593999997E+02  0.45594000000E+02  0.51100000000E-03 0. -1.
    9900012    2    1    2    0    0  0.41195233157E+01  0.38812988739E+02  0.18979057131E+02  0.47787272163E+02  0.20000005099E+02 0.  0.
         12    1    1    2    0    0 -0.41195233157E+01 -0.38812988739E+02 -0.18979057131E+02  0.43400727837E+02  0.00000000000E+00 0. -1.
         11    1    3    3    0    0  0.58342794827E+01  0.26035047236E+02  0.31316754370E+01  0.26863914327E+02  0.51100000000E-03 0.  1.
        -11    1    3    3    0    0 -0.29262499101E+01  0.11615800092E+02  0.13721181648E+02  0.18214295935E+02  0.51100000000E-03 0. -1.
         12    1    3    3    0    0  0.12114937431E+01  0.11621414106E+01  0.21262000454E+01  0.27090619005E+01  0.00000000000E+00 0. -1.
</event>
<event>
 7    1  0.5317846E-010  0.4778726E+02  0.7816164E-02  0.1312668E+00
        -11   -1    0    0    0    0  0.00000000000E+00  0.00000000000E+00  0.45593999997E+02  0.45594000000E+02  0.51100000000E-03 0.  1.
         11   -1    0    0    0    0 -0.00000000000E+00 -0.00000000000E+00 -0.45593999997E+02  0.45594000000E+02  0.51100000000E-03 0. -1.
    9900012    2    1    2    0    0 -0.24332849249E+02 -0.10154488714E+02  0.34473511357E+02  0.47787260618E+02  0.19999952461E+02 0.  0.
         12    1    1    2    0    0  0.24332849249E+02  0.10154488714E+02 -0.34473511357E+02  0.43400739382E+02  0.00000000000E+00 0. -1.
         11    1    3    3    0    0 -0.93064897694E+01 -0.16210621917E+01  0.15639352832E+01  0.95752017362E+01  0.51100000000E-03 0. -1.
        -11    1    3    3    0    0 -0.15419976756E+02 -0.80091416374E+01  0.33217570244E+02  0.37487718071E+02  0.51100000000E-03 0.  1.
         12    1    3    3    0    0  0.39361727671E+00 -0.52428488543E+00 -0.30799417032E+00  0.72434081106E+00  0.00000000000E+00 0. -1.
</event>
<event>
 7    1  0.5317846E-010  0.4778727E+02  0.7816164E-02  0.1312668E+00
        -11   -1    0    0    0    0  0.00000000000E+00  0.00000000000E+00  0.45593999997E+02  0.45594000000E+02  0.51100000000E-03 0. -1.
         11   -1    0    0    0    0 -0.00000000000E+00 -0.00000000000E+00 -0.45593999997E+02  0.45594000000E+02  0.51100000000E-03 0.  1.
    9900012    2    1    2    0    0 -0.28074588941E+02  0.15934079671E+02 -0.29009414684E+02  0.47787267523E+02  0.19999983945E+02 0.  0.
         12    1    1    2    0    0  0.28074588941E+02 -0.15934079671E+02  0.29009414684E+02  0.43400732477E+02  0.00000000000E+00 0. -1.
         11    1    3    3    0    0  0.46676491431E+00 -0.16626849576E+01 -0.15002697753E+01  0.22876189397E+01  0.51100000000E-03 0. -1.
        -11    1    3    3    0    0 -0.27577903124E+02  0.17019243895E+02 -0.29098361071E+02  0.43553530520E+02  0.51100000000E-03 0.  1.
        -12    1    3    3    0    0 -0.96345073171E+00  0.57752073366E+00  0.15892161615E+01  0.19461180638E+01  0.00000000000E+00 0.  1.
</event>
<event>
 7    1  0.5317846E-010  0.4778727E+02  0.7816164E-02  0.1312668E+00
        -11   -1    0    0    0    0  0.00000000000E+00  0.00000000000E+00  0.45593999997E+02  0.45594000000E+02  0.51100000000E-03 0. -1.
         11   -1    0    0    0    0 -0.00000000000E+00 -0.00000000000E+00 -0.45593999997E+02  0.45594000000E+02  0.51100000000E-03 0.  1.
    9900012    2    1    2    0    0  0.30435550036E+02 -0.23988417950E+02 -0.19541147692E+02  0.47787270112E+02  0.19999995747E+02 0.  0.
         12    1    1    2    0    0 -0.30435550036E+02  0.23988417950E+02  0.19541147692E+02  0.43400729888E+02  0.00000000000E+00 0. -1.
         11    1    3    3    0    0  0.14095382440E+02 -0.87633100312E+01  0.62138389165E+00  0.16609079656E+02  0.51100000000E-03 0. -1.
        -11    1    3    3    0    0  0.14241012376E+02 -0.15510369793E+02 -0.15789110459E+02  0.26318700841E+02  0.51100000000E-03 0.  1.
        -12    1    3    3    0    0  0.20991552210E+01  0.28526187494E+00 -0.43734211250E+01  0.48594896148E+01  0.00000000000E+00 0.  1.
</event>
<event>
 7    1  0.5317846E-010  0.4778729E+02  0.7816164E-02  0.1312668E+00
        -11   -1    0    0    0    0  0.00000000000E+00  0.00000000000E+00  0.45593999997E+02  0.45594000000E+02  0.51100000000E-03 0.  1.
         11   -1    0    0    0    0 -0.00000000000E+00 -0.00000000000E+00 -0.45593999997E+02  0.45594000000E+02  0.51100000000E-03 0. -1.
    9900012    2    1    2    0    0  0.19866786552E+02  0.31408758955E+02  0.22414787773E+02  0.47787285053E+02  0.20000063872E+02 0.  0.
         12    1    1    2    0    0 -0.19866786552E+02 -0.31408758955E+02 -0.22414787773E+02  0.43400714947E+02  0.00000000000E+00 0. -1.
         11    1    3    3    0    0 -0.18025872996E+01 -0.95263825854E+00  0.20254717982E+01  0.28739131668E+01  0.51100000000E-03 0. -1.
        -11    1    3    3    0    0  0.19868292531E+02  0.25251996296E+02  0.19345480781E+02  0.37505466161E+02  0.51100000000E-03 0.  1.
        -12    1    3    3    0    0  0.18010813205E+01  0.71094009175E+01  0.10438351932E+01  0.74079057256E+01  0.00000000000E+00 0.  1.
</event>
<event>
 7    1  0.5317846E-010  0.4778727E+02  0.7816164E-02  0.1312668E+00
        -11   -1    0    0    0    0  0.00000000000E+00  0.00000000000E+00  0.45593999997E+02  0.45594000000E+02  0.51100000000E-03 0.  1.
         11   -1    0    0    0    0 -0.00000000000E+00 -0.00000000000E+00 -0.45593999997E+02  0.45594000000E+02  0.51100000000E-03 0. -1.
    9900012    2    1    2    0    0 -0.27012206875E+02  0.47361406568E+01  0.33638272714E+02  0.47787265677E+02  0.19999975528E+02 0.  0.
         12    1    1    2    0    0  0.27012206875E+02 -0.47361406568E+01 -0.33638272714E+02  0.43400734323E+02  0.00000000000E+00 0. -1.
         11    1    3    3    0    0 -0.17840662812E+02 -0.52880895980E+01  0.18265133123E+02  0.26074282913E+02  0.51100000000E-03 0. -1.
        -11    1    3    3    0    0 -0.57874497737E+01  0.66501855474E+01  0.14325432526E+02  0.16820747903E+02  0.51100000000E-03 0.  1.
        -12    1    3    3    0    0 -0.33840942886E+01  0.33740447074E+01  0.10477070659E+01  0.48922348612E+01  0.00000000000E+00 0.  1.
</event>
<event>
 7    1  0.5317846E-010  0.4778727E+02  0.7816164E-02  0.1312668E+00
        -11   -1    0    0    0    0  0.00000000000E+00  0.00000000000E+00  0.45593999997E+02  0.45594000000E+02  0.51100000000E-03 0. -1.
         11   -1    0    0    0    0 -0.00000000000E+00 -0.00000000000E+00 -0.45593999997E+02  0.45594000000E+02  0.51100000000E-03 0.  1.
    9900012    2    1    2    0    0  0.39490211957E+02 -0.65608895127E+01  0.16766070085E+02  0.47787271692E+02  0.20000002950E+02 0.  0.
         12    1    1    2    0    0 -0.39490211957E+02  0.65608895127E+01 -0.16766070085E+02  0.43400728308E+02  0.00000000000E+00 0. -1.
         11    1    3    3    0    0  0.27499442052E+01  0.46184106157E+01  0.41087305612E+00  0.53908001889E+01  0.51100000000E-03 0. -1.
        -11    1    3    3    0    0  0.23226915520E+02 -0.88155245105E+01  0.70662594149E+01  0.25828958542E+02  0.51100000000E-03 0.  1.
         12    1    3    3    0    0  0.13513352232E+02 -0.23637756180E+01  0.92889376142E+01  0.16567512961E+02  0.00000000000E+00 0. -1.
</event>
<event>
 7    1  0.5317846E-010  0.4778727E+02  0.7816164E-02  0.1312668E+00
        -11   -1    0    0    0    0  0.00000000000E+00  0.00000000000E+00  0.45593999997E+02  0.45594000000E+02  0.51100000000E-03 0.  1.
         11   -1    0    0    0    0 -0.00000000000E+00 -0.00000000000E+00 -0.45593999997E+02  0.45594000000E+02  0.51100000000E-03 0. -1.
    9900012    2    1    2    0    0  0.21817131682E+02 -0.11709791458E+02  0.35644307587E+02  0.47787272884E+02  0.20000008387E+02 0.  0.
         12    1    1    2    0    0 -0.21817131682E+02  0.11709791458E+02 -0.35644307587E+02  0.43400727116E+02  0.00000000000E+00 0. -1.
         11    1    3    3    0    0  0.89633487368E+01 -0.99085245224E+01  0.16676745215E+02  0.21369003487E+02  0.51100000000E-03 0. -1.
        -11    1    3    3    0    0  0.11595083866E+02  0.16105363547E+01  0.19498913564E+02  0.22743074279E+02  0.51100000000E-03 0.  1.
        -12    1    3    3    0    0  0.12586990796E+01 -0.34118032906E+01 -0.53135119240E+00  0.36751951181E+01  0.00000000000E+00 0.  1.
</event>
<event>
 7    1  0.5317846E-010  0.4778727E+02  0.7816164E-02  0.1312668E+00
        -11   -1    0    0    0    0  0.00000000000E+00  0.00000000000E+00  0.45593999997E+02  0.45594000000E+02  0.51100000000E-03 0.  1.
         11   -1    0    0    0    0 -0.00000000000E+00 -0.00000000000E+00 -0.45593999997E+02  0.45594000000E+02  0.51100000000E-03 0. -1.
    9900012    2    1    2    0    0 -0.13758401673E+02 -0.28449189565E+02  0.29748498530E+02  0.47787272261E+02  0.20000005547E+02 0.  0.
         12    1    1    2    0    0  0.13758401673E+02  0.28449189565E+02 -0.29748498530E+02  0.43400727739E+02  0.00000000000E+00 0. -1.
         11    1    3    3    0    0  0.29431043066E+01 -0.80316609551E+00  0.14093189511E+01  0.33605236055E+01  0.51100000000E-03 0. -1.
        -11    1    3    3    0    0 -0.12819721098E+02 -0.16641348771E+02  0.24198963784E+02  0.32044805919E+02  0.51100000000E-03 0.  1.
        -12    1    3    3    0    0 -0.38817848816E+01 -0.11004674699E+02  0.41402157949E+01  0.12381942736E+02  0.00000000000E+00 0.  1.
</event>
<event>
 7    1  0.5317846E-010  0.4778727E+02  0.7816164E-02  0.1312668E+00
        -11   -1    0    0    0    0  0.00000000000E+00  0.00000000000E+00  0.45593999997E+02  0.45594000000E+02  0.51100000000E-03 0.  1.
         11   -1    0    0    0    0 -0.00000000000E+00 -0.00000000000E+00 -0.45593999997E+02  0.45594000000E+02  0.51100000000E-03 0. -1.
    9900012    2    1    2    0    0 -0.37339004545E+02  0.36244027816E+01  0.21823969053E+02  0.47787272112E+02  0.20000004868E+02 0.  0.
         12    1    1    2    0    0  0.37339004545E+02 -0.36244027816E+01 -0.21823969053E+02  0.43400727888E+02  0.00000000000E+00 0. -1.
         11    1    3    3    0    0 -0.34344311831E-01  0.40910746412E+00 -0.89095483851E+00  0.98099400321E+00  0.51100000000E-03 0. -1.
        -11    1    3    3    0    0 -0.28409388046E+02 -0.51663560202E+00  0.85573221778E+01  0.29674703109E+02  0.51100000000E-03 0.  1.
        -12    1    3    3    0    0 -0.88952721875E+01  0.37319309195E+01  0.14157601714E+02  0.17131575000E+02  0.00000000000E+00 0.  1.
</event>
<event>
 7    1  0.5317846E-010  0.4778728E+02  0.7816164E-02  0.1312668E+00
        -11   -1    0    0    0    0  0.00000000000E+00  0.00000000000E+00  0.45593999997E+02  0.45594000000E+02  0.51100000000E-03 0.  1.
         11   -1    0    0    0    0 -0.00000000000E+00 -0.00000000000E+00 -0.45593999997E+02  0.45594000000E+02  0.51100000000E-03 0. -1.
    9900012    2    1    2    0    0  0.21002174068E+01  0.23063128680E+02  0.36705637650E+02  0.47787278198E+02  0.20000032614E+02 0.  0.
         12    1    1    2    0    0 -0.21002174068E+01 -0.23063128680E+02 -0.36705637650E+02  0.43400721802E+02  0.00000000000E+00 0. -1.
         11    1    3    3    0    0  0.31705263028E+01  0.55475556111E+01  0.68898036645E+01  0.93966486095E+01  0.51100000000E-03 0. -1.
        -11    1    3    3    0    0  0.42039562132E+01  0.17949973049E+01  0.16507705745E+02  0.17128911594E+02  0.51100000000E-03 0.  1.
        -12    1    3    3    0    0 -0.52742651091E+01  0.15720575764E+02  0.13308128240E+02  0.21261717994E+02  0.00000000000E+00 0.  1.
</event>
<event>
 7    1  0.5317846E-010  0.4778727E+02  0.7816164E-02  0.1312668E+00
        -11   -1    0    0    0    0  0.00000000000E+00  0.00000000000E+00  0.45593999997E+02  0.45594000000E+02  0.51100000000E-03 0.  1.
         11   -1    0    0    0    0 -0.00000000000E+00 -0.00000000000E+00 -0.45593999997E+02  0.45594000000E+02  0.51100000000E-03 0. -1.
    9900012    2    1    2    0    0  0.15810005509E+02  0.33779028393E+02  0.22195591847E+02  0.47787270388E+02  0.19999997008E+02 0.  0.
         12    1    1    2    0    0 -0.15810005509E+02 -0.33779028393E+02 -0.22195591847E+02  0.43400729612E+02  0.00000000000E+00 0. -1.
         11    1    3    3    0    0 -0.19269007094E+01  0.14561357151E+01  0.58842311779E+01  0.63606174528E+01  0.51100000000E-03 0. -1.
        -11    1    3    3    0    0  0.60627022278E+01  0.12526941944E+02  0.11246849390E+02  0.17893357824E+02  0.51100000000E-03 0.  1.
         12    1    3    3    0    0  0.11674203991E+02  0.19795950734E+02  0.50645112798E+01  0.23533295111E+02  0.00000000000E+00 0. -1.
</event>
<event>
 7    1  0.5317846E-010  0.4778727E+02  0.7816164E-02  0.1312668E+00
        -11   -1    0    0    0    0  0.00000000000E+00  0.00000000000E+00  0.45593999997E+02  0.45594000000E+02  0.51100000000E-03 0.  1.
         11   -1    0    0    0    0 -0.00000000000E+00 -0.00000000000E+00 -0.45593999997E+02  0.45594000000E+02  0.51100000000E-03 0. -1.
    9900012    2    1    2    0    0  0.17451555234E+02  0.21345488237E+02  0.33517703516E+02  0.47787273080E+02  0.20000009282E+02 0.  0.
         12    1    1    2    0    0 -0.17451555234E+02 -0.21345488237E+02 -0.33517703516E+02  0.43400726920E+02  0.00000000000E+00 0. -1.
         11    1    3    3    0    0  0.22264333096E+01  0.37501960589E+01  0.15635225500E+02  0.16232105608E+02  0.51100000000E-03 0. -1.
        -11    1    3    3    0    0  0.51279214128E+00  0.41537821955E+01  0.86145132828E+01  0.95774057901E+01  0.51100000000E-03 0.  1.
         12    1    3    3    0    0  0.14712329784E+02  0.13441509982E+02  0.92679647332E+01  0.21977761682E+02  0.00000000000E+00 0. -1.
</event>
<event>
 7    1  0.5317846E-010  0.4778727E+02  0.7816164E-02  0.1312668E+00
        -11   -1    0    0    0    0  0.00000000000E+00  0.00000000000E+00  0.45593999997E+02  0.45594000000E+02  0.51100000000E-03 0.  1.
         11   -1    0    0    0    0 -0.00000000000E+00 -0.00000000000E+00 -0.45593999997E+02  0.45594000000E+02  0.51100000000E-03 0. -1.
    9900012    2    1    2    0    0 -0.37428054348E+01 -0.55938225951E+00  0.43235422222E+02  0.47787271484E+02  0.20000002002E+02 0.  0.
         12    1    1    2    0    0  0.37428054348E+01  0.55938225951E+00 -0.43235422222E+02  0.43400728516E+02  0.00000000000E+00 0. -1.
         11    1    3    3    0    0  0.80586838307E+00 -0.93559183163E+01  0.25329580771E+02  0.27014260932E+02  0.51100000000E-03 0. -1.
        -11    1    3    3    0    0 -0.10916734583E+01  0.46612054965E+01  0.11122090128E+02  0.12108652967E+02  0.51100000000E-03 0.  1.
         12    1    3    3    0    0 -0.34570003596E+01  0.41353305603E+01  0.67837513237E+01  0.86643575844E+01  0.00000000000E+00 0. -1.
</event>
<event>
 7    1  0.5317846E-010  0.4778727E+02  0.7816164E-02  0.1312668E+00
        -11   -1    0    0    0    0  0.00000000000E+00  0.00000000000E+00  0.45593999997E+02  0.45594000000E+02  0.51100000000E-03 0. -1.
         11   -1    0    0    0    0 -0.00000000000E+00 -0.00000000000E+00 -0.45593999997E+02  0.45594000000E+02  0.51100000000E-03 0.  1.
    9900012    2    1    2    0    0  0.16760663669E+02  0.24837875769E+02  0.31397189661E+02  0.47787269154E+02  0.19999991382E+02 0.  0.
         12    1    1    2    0    0 -0.16760663669E+02 -0.24837875769E+02 -0.31397189661E+02  0.43400730846E+02  0.00000000000E+00 0. -1.
         11    1    3    3    0    0 -0.30793789501E+01  0.51893573580E+01  0.56358063052E+01  0.82567740357E+01  0.51100000000E-03 0. -1.
        -11    1    3    3    0    0  0.16276204140E+02  0.86961754298E+01  0.15309542310E+02  0.23977497249E+02  0.51100000000E-03 0.  1.
         12    1    3    3    0    0  0.35638384785E+01  0.10952342981E+02  0.10451841046E+02  0.15552997870E+02  0.00000000000E+00 0. -1.
</event>
<event>
 7    1  0.5317846E-010  0.4778726E+02  0.7816164E-02  0.1312668E+00
        -11   -1    0    0    0    0  0.00000000000E+00  0.00000000000E+00  0.45593999997E+02  0.45594000000E+02  0.51100000000E-03 0. -1.
         11   -1    0    0    0    0 -0.00000000000E+00 -0.00000000000E+00 -0.45593999997E+02  0.45594000000E+02  0.51100000000E-03 0.  1.
    9900012    2    1    2    0    0  0.13968741936E+02 -0.31653946818E+02 -0.26201636837E+02  0.47787264138E+02  0.19999968512E+02 0.  0.
         12    1    1    2    0    0 -0.13968741936E+02  0.31653946818E+02  0.26201636837E+02  0.43400735862E+02  0.00000000000E+00 0. -1.
         11    1    3    3    0    0  0.19982888715E+01 -0.14128957170E+02 -0.18989169198E+02  0.23753086877E+02  0.51100000000E-03 0. -1.
        -11    1    3    3    0    0  0.92472645640E+01 -0.73824654187E+01 -0.11015138421E+01  0.11883855880E+02  0.51100000000E-03 0.  1.
        -12    1    3    3    0    0  0.27231885001E+01 -0.10142524229E+02 -0.61109537970E+01  0.12150321381E+02  0.00000000000E+00 0.  1.
</event>
<event>
 7    1  0.5317846E-010  0.4778728E+02  0.7816164E-02  0.1312668E+00
        -11   -1    0    0    0    0  0.00000000000E+00  0.00000000000E+00  0.45593999997E+02  0.45594000000E+02  0.51100000000E-03 0.  1.
         11   -1    0    0    0    0 -0.00000000000E+00 -0.00000000000E+00 -0.45593999997E+02  0.45594000000E+02  0.51100000000E-03 0. -1.
    9900012    2    1    2    0    0  0.28620425371E+02 -0.10931343389E+02  0.30740849602E+02  0.47787275917E+02  0.20000022215E+02 0.  0.
         12    1    1    2    0    0 -0.28620425371E+02  0.10931343389E+02 -0.30740849602E+02  0.43400724083E+02  0.00000000000E+00 0. -1.
         11    1    3    3    0    0  0.10093062930E+02 -0.91028808977E+01  0.10621533874E+02  0.17249618605E+02  0.51100000000E-03 0. -1.
        -11    1    3    3    0    0  0.13016721609E+02  0.50676423775E+01  0.10448439556E+02  0.17443793456E+02  0.51100000000E-03 0.  1.
        -12    1    3    3    0    0  0.55106408330E+01 -0.68961048684E+01  0.96708761719E+01  0.13093863856E+02  0.00000000000E+00 0.  1.
</event>
<event>
 7    1  0.5317846E-010  0.4778727E+02  0.7816164E-02  0.1312668E+00
        -11   -1    0    0    0    0  0.00000000000E+00  0.00000000000E+00  0.45593999997E+02  0.45594000000E+02  0.51100000000E-03 0.  1.
         11   -1    0    0    0    0 -0.00000000000E+00 -0.00000000000E+00 -0.45593999997E+02  0.45594000000E+02  0.51100000000E-03 0. -1.
    9900012    2    1    2    0    0  0.35123689084E+02  0.24211233146E+02  0.79853558232E+01  0.47787271285E+02  0.20000001099E+02 0.  0.
         12    1    1    2    0    0 -0.35123689084E+02 -0.24211233146E+02 -0.79853558232E+01  0.43400728715E+02  0.00000000000E+00 0. -1.
         11    1    3    3    0    0  0.25718087132E+02  0.21738062095E+02  0.69729990566E+01  0.34388749112E+02  0.51100000000E-03 0.  1.
        -11    1    3    3    0    0  0.63032658684E+01 -0.23453759348E+01  0.29568344420E+01  0.73467556827E+01  0.51100000000E-03 0. -1.
        -12    1    3    3    0    0  0.31023360836E+01  0.48185469853E+01 -0.19444776754E+01  0.60517664905E+01  0.00000000000E+00 0.  1.
</event>
<event>
 7    1  0.5317846E-010  0.4778727E+02  0.7816164E-02  0.1312668E+00
        -11   -1    0    0    0    0  0.00000000000E+00  0.00000000000E+00  0.45593999997E+02  0.45594000000E+02  0.51100000000E-03 0.  1.
         11   -1    0    0    0    0 -0.00000000000E+00 -0.00000000000E+00 -0.45593999997E+02  0.45594000000E+02  0.51100000000E-03 0. -1.
    9900012    2    1    2    0    0 -0.26876538230E+01  0.71131947840E+01  0.42729408701E+02  0.47787269694E+02  0.19999993843E+02 0.  0.
         12    1    1    2    0    0  0.26876538230E+01 -0.71131947840E+01 -0.42729408701E+02  0.43400730306E+02  0.00000000000E+00 0. -1.
         11    1    3    3    0    0 -0.41915096323E+01  0.31890783525E+01  0.40668865043E+01  0.66542121875E+01  0.51100000000E-03 0. -1.
        -11    1    3    3    0    0  0.26657388094E+01  0.85292502052E+01  0.29336314827E+02  0.30667142684E+02  0.51100000000E-03 0.  1.
        -12    1    3    3    0    0 -0.11618830001E+01 -0.46051337737E+01  0.93262073698E+01  0.10465914823E+02  0.00000000000E+00 0.  1.
</event>
<event>
 7    1  0.5317846E-010  0.4778727E+02  0.7816164E-02  0.1312668E+00
        -11   -1    0    0    0    0  0.00000000000E+00  0.00000000000E+00  0.45593999997E+02  0.45594000000E+02  0.51100000000E-03 0. -1.
         11   -1    0    0    0    0 -0.00000000000E+00 -0.00000000000E+00 -0.45593999997E+02  0.45594000000E+02  0.51100000000E-03 0.  1.
    9900012    2    1    2    0    0  0.23854317421E+01  0.43297457100E+02  0.18064322940E+01  0.47787271048E+02  0.20000000016E+02 0.  0.
         12    1    1    2    0    0 -0.23854317421E+01 -0.43297457100E+02 -0.18064322940E+01  0.43400728952E+02  0.00000000000E+00 0. -1.
         11    1    3    3    0    0  0.15495953075E+00  0.59305537252E+01  0.62239394413E+01  0.85984244122E+01  0.51100000000E-03 0. -1.
        -11    1    3    3    0    0  0.37108678460E+01  0.37213138688E+02 -0.38476133553E+01  0.37595110852E+02  0.51100000000E-03 0.  1.
         12    1    3    3    0    0 -0.14803956346E+01  0.15376468714E+00 -0.56989379195E+00  0.15937357837E+01  0.00000000000E+00 0. -1.
</event>
<event>
 7    1  0.5317846E-010  0.4778727E+02  0.7816164E-02  0.1312668E+00
        -11   -1    0    0    0    0  0.00000000000E+00  0.00000000000E+00  0.45593999997E+02  0.45594000000E+02  0.51100000000E-03 0.  1.
         11   -1    0    0    0    0 -0.00000000000E+00 -0.00000000000E+00 -0.45593999997E+02  0.45594000000E+02  0.51100000000E-03 0. -1.
    9900012    2    1    2    0    0 -0.34014813080E+02  0.26784350868E+02  0.30354833318E+01  0.47787272825E+02  0.20000008116E+02 0.  0.
         12    1    1    2    0    0  0.34014813080E+02 -0.26784350868E+02 -0.30354833318E+01  0.43400727175E+02  0.00000000000E+00 0. -1.
         11    1    3    3    0    0 -0.72594135858E+01  0.28678915271E+01 -0.76643121977E+00  0.78429142860E+01  0.51100000000E-03 0. -1.
        -11    1    3    3    0    0 -0.15306314026E+02  0.15958234383E+02 -0.59865686672E+01  0.22908240839E+02  0.51100000000E-03 0.  1.
        -12    1    3    3    0    0 -0.11449085469E+02  0.79582249581E+01  0.97884832189E+01  0.17036117700E+02  0.00000000000E+00 0.  1.
</event>
<event>
 7    1  0.5317846E-010  0.4778727E+02  0.7816164E-02  0.1312668E+00
        -11   -1    0    0    0    0  0.00000000000E+00  0.00000000000E+00  0.45593999997E+02  0.45594000000E+02  0.51100000000E-03 0.  1.
         11   -1    0    0    0    0 -0.00000000000E+00 -0.00000000000E+00 -0.45593999997E+02  0.45594000000E+02  0.51100000000E-03 0. -1.
    9900012    2    1    2    0    0  0.33508782238E+02 -0.27580056875E+02  0.35391010811E+00  0.47787271013E+02  0.19999999855E+02 0.  0.
         12    1    1    2    0    0 -0.33508782238E+02  0.27580056875E+02 -0.35391010811E+00  0.43400728987E+02  0.00000000000E+00 0. -1.
         11    1    3    3    0    0  0.35241332156E+00  0.15345263032E+01  0.40156861415E+00  0.16248765299E+01  0.51100000000E-03 0. -1.
        -11    1    3    3    0    0  0.25387997172E+02 -0.17573207287E+02  0.51649589287E+01  0.31305667470E+02  0.51100000000E-03 0.  1.
        -12    1    3    3    0    0  0.77683717443E+01 -0.11541375891E+02 -0.52126174347E+01  0.14856727013E+02  0.00000000000E+00 0.  1.
</event>
<event>
 7    1  0.5317846E-010  0.4778727E+02  0.7816164E-02  0.1312668E+00
        -11   -1    0    0    0    0  0.00000000000E+00  0.00000000000E+00  0.45593999997E+02  0.45594000000E+02  0.51100000000E-03 0.  1.
         11   -1    0    0    0    0 -0.00000000000E+00 -0.00000000000E+00 -0.45593999997E+02  0.45594000000E+02  0.51100000000E-03 0. -1.
    9900012    2    1    2    0    0  0.13902899058E+02  0.57558845747E+01  0.40708750974E+02  0.47787271720E+02  0.20000003078E+02 0.  0.
         12    1    1    2    0    0 -0.13902899058E+02 -0.57558845747E+01 -0.40708750974E+02  0.43400728280E+02  0.00000000000E+00 0. -1.
         11    1    3    3    0    0 -0.13308829110E+01  0.21621129391E+01  0.28256450816E+01  0.37987171615E+01  0.51100000000E-03 0. -1.
        -11    1    3    3    0    0 -0.58781918988E+00 -0.44964936621E+01  0.89724518321E+01  0.10053301885E+02  0.51100000000E-03 0.  1.
        -12    1    3    3    0    0  0.15821601159E+02  0.80902652977E+01  0.28910654060E+02  0.33935252673E+02  0.00000000000E+00 0.  1.
</event>
<event>
 7    1  0.5317846E-010  0.4778728E+02  0.7816164E-02  0.1312668E+00
        -11   -1    0    0    0    0  0.00000000000E+00  0.00000000000E+00  0.45593999997E+02  0.45594000000E+02  0.51100000000E-03 0.  1.
         11   -1    0    0    0    0 -0.00000000000E+00 -0.00000000000E+00 -0.45593999997E+02  0.45594000000E+02  0.51100000000E-03 0. -1.
    9900012    2    1    2    0    0  0.21260037353E+02  0.33539496194E+02  0.17513869617E+02  0.47787278552E+02  0.20000034231E+02 0.  0.
         12    1    1    2    0    0 -0.21260037353E+02 -0.33539496194E+02 -0.17513869617E+02  0.43400721448E+02  0.00000000000E+00 0. -1.
         11    1    3    3    0    0  0.15421431846E+02  0.12824932932E+02  0.29583782800E+01  0.20274404238E+02  0.51100000000E-03 0. -1.
        -11    1    3    3    0    0  0.77129975225E+01  0.11449159201E+02  0.98103718482E+01  0.16935671621E+02  0.51100000000E-03 0.  1.
         12    1    3    3    0    0 -0.18743920159E+01  0.92654040610E+01  0.47451194891E+01  0.10577202693E+02  0.00000000000E+00 0. -1.
</event>
<event>
 7    1  0.5317846E-010  0.4778728E+02  0.7816164E-02  0.1312668E+00
        -11   -1    0    0    0    0  0.00000000000E+00  0.00000000000E+00  0.45593999997E+02  0.45594000000E+02  0.51100000000E-03 0. -1.
         11   -1    0    0    0    0 -0.00000000000E+00 -0.00000000000E+00 -0.45593999997E+02  0.45594000000E+02  0.51100000000E-03 0.  1.
    9900012    2    1    2    0    0 -0.27199362815E+02  0.31709629132E+02 -0.11760789888E+02  0.47787284614E+02  0.20000061870E+02 0.  0.
         12    1    1    2    0    0  0.27199362815E+02 -0.31709629132E+02  0.11760789888E+02  0.43400715386E+02  0.00000000000E+00 0. -1.
         11    1    3    3    0    0 -0.15053841538E+02  0.21148920535E+02 -0.76481929554E+00  0.25970751504E+02  0.51100000000E-03 0. -1.
        -11    1    3    3    0    0 -0.52239704460E+01  0.10306806337E+02 -0.47614876024E+01  0.12497675325E+02  0.51100000000E-03 0.  1.
         12    1    3    3    0    0 -0.69215508308E+01  0.25390225915E+00 -0.62344829896E+01  0.93188577845E+01  0.00000000000E+00 0. -1.
</event>
<event>
 7    1  0.5317846E-010  0.4778727E+02  0.7816164E-02  0.1312668E+00
        -11   -1    0    0    0    0  0.00000000000E+00  0.00000000000E+00  0.45593999997E+02  0.45594000000E+02  0.51100000000E-03 0.  1.
         11   -1    0    0    0    0 -0.00000000000E+00 -0.00000000000E+00 -0.45593999997E+02  0.45594000000E+02  0.51100000000E-03 0. -1.
    9900012    2    1    2    0    0 -0.35333894851E+02 -0.62180690012E+01  0.24422828358E+02  0.47787273595E+02  0.20000011631E+02 0.  0.
         12    1    1    2    0    0  0.35333894851E+02  0.62180690012E+01 -0.24422828358E+02  0.43400726405E+02  0.00000000000E+00 0. -1.
         11    1    3    3    0    0 -0.28471829114E+02  0.11682441277E+01  0.11831622828E+02  0.30854450999E+02  0.51100000000E-03 0. -1.
        -11    1    3    3    0    0 -0.46558035880E+01 -0.44910655420E+01  0.11391609659E+02  0.13100188840E+02  0.51100000000E-03 0.  1.
         12    1    3    3    0    0 -0.22062621485E+01 -0.28952475869E+01  0.11995958713E+01  0.38326337565E+01  0.00000000000E+00 0. -1.
</event>
<event>
 7    1  0.5317846E-010  0.4778727E+02  0.7816164E-02  0.1312668E+00
        -11   -1    0    0    0    0  0.00000000000E+00  0.00000000000E+00  0.45593999997E+02  0.45594000000E+02  0.51100000000E-03 0.  1.
         11   -1    0    0    0    0 -0.00000000000E+00 -0.00000000000E+00 -0.45593999997E+02  0.45594000000E+02  0.51100000000E-03 0. -1.
    9900012    2    1    2    0    0 -0.35054933040E+02 -0.14521667737E+02  0.21068853491E+02  0.47787265539E+02  0.19999974899E+02 0.  0.
         12    1    1    2    0    0  0.35054933040E+02  0.14521667737E+02 -0.21068853491E+02  0.43400734461E+02  0.00000000000E+00 0. -1.
         11    1    3    3    0    0 -0.35024034990E+02 -0.12851310115E+02  0.17303132344E+02  0.41124659121E+02  0.51100000000E-03 0.  1.
        -11    1    3    3    0    0  0.13862623865E+01 -0.31515338380E+01  0.24739420556E+01  0.42396082946E+01  0.51100000000E-03 0. -1.
        -12    1    3    3    0    0 -0.14171604364E+01  0.14811762157E+01  0.12917790912E+01  0.24229981231E+01  0.00000000000E+00 0.  1.
</event>
<event>
 7    1  0.5317846E-010  0.4778726E+02  0.7816164E-02  0.1312668E+00
        -11   -1    0    0    0    0  0.00000000000E+00  0.00000000000E+00  0.45593999997E+02  0.45594000000E+02  0.51100000000E-03 0.  1.
         11   -1    0    0    0    0 -0.00000000000E+00 -0.00000000000E+00 -0.45593999997E+02  0.45594000000E+02  0.51100000000E-03 0. -1.
    9900012    2    1    2    0    0 -0.14894032005E+02  0.25848707455E+02  0.31521995901E+02  0.47787261619E+02  0.19999957027E+02 0.  0.
         12    1    1    2    0    0  0.14894032005E+02 -0.25848707455E+02 -0.31521995901E+02  0.43400738381E+02  0.00000000000E+00 0. -1.
         11    1    3    3    0    0 -0.76643004827E+01  0.14329217438E+01  0.12047828050E+02  0.14350781428E+02  0.51100000000E-03 0. -1.
        -11    1    3    3    0    0  0.15648308664E+00  0.15683290980E+02  0.12339296387E+02  0.19956160415E+02  0.51100000000E-03 0.  1.
         12    1    3    3    0    0 -0.73862146085E+01  0.87324947303E+01  0.71348714637E+01  0.13480319776E+02  0.00000000000E+00 0. -1.
</event>
<event>
 7    1  0.5317846E-010  0.4778727E+02  0.7816164E-02  0.1312668E+00
        -11   -1    0    0    0    0  0.00000000000E+00  0.00000000000E+00  0.45593999997E+02  0.45594000000E+02  0.51100000000E-03 0.  1.
         11   -1    0    0    0    0 -0.00000000000E+00 -0.00000000000E+00 -0.45593999997E+02  0.45594000000E+02  0.51100000000E-03 0. -1.
    9900012    2    1    2    0    0  0.34954863683E+02  0.18204555050E+02 -0.18176222263E+02  0.47787269875E+02  0.19999994666E+02 0.  0.
         12    1    1    2    0    0 -0.34954863683E+02 -0.18204555050E+02  0.18176222263E+02  0.43400730125E+02  0.00000000000E+00 0. -1.
         11    1    3    3    0    0  0.94942736539E+01  0.15258726001E+01 -0.97361130304E+01  0.13684349331E+02  0.51100000000E-03 0. -1.
        -11    1    3    3    0    0  0.12844992708E+02  0.13845648300E+02 -0.42657134376E+00  0.18891209010E+02  0.51100000000E-03 0.  1.
        -12    1    3    3    0    0  0.12615597322E+02  0.28330341497E+01 -0.80135378891E+01  0.15211711533E+02  0.00000000000E+00 0.  1.
</event>
<event>
 7    1  0.5317846E-010  0.4778726E+02  0.7816164E-02  0.1312668E+00
        -11   -1    0    0    0    0  0.00000000000E+00  0.00000000000E+00  0.45593999997E+02  0.45594000000E+02  0.51100000000E-03 0.  1.
         11   -1    0    0    0    0 -0.00000000000E+00 -0.00000000000E+00 -0.45593999997E+02  0.45594000000E+02  0.51100000000E-03 0. -1.
    9900012    2    1    2    0    0  0.11930880096E+02 -0.40157978402E+02 -0.11340861667E+02  0.47787259539E+02  0.19999947541E+02 0.  0.
         12    1    1    2    0    0 -0.11930880096E+02  0.40157978402E+02  0.11340861667E+02  0.43400740461E+02  0.00000000000E+00 0. -1.
         11    1    3    3    0    0 -0.29708434631E+01 -0.57399524727E+01 -0.25420331423E+01  0.69451348459E+01  0.51100000000E-03 0. -1.
        -11    1    3    3    0    0  0.13062393483E+02 -0.24151114960E+02 -0.11951609066E+02  0.29945674760E+02  0.51100000000E-03 0.  1.
        -12    1    3    3    0    0  0.18393300754E+01 -0.10266910970E+02  0.31527805413E+01  0.10896449933E+02  0.00000000000E+00 0.  1.
</event>
<event>
 7    1  0.5317846E-010  0.4778728E+02  0.7816164E-02  0.1312668E+00
        -11   -1    0    0    0    0  0.00000000000E+00  0.00000000000E+00  0.45593999997E+02  0.45594000000E+02  0.51100000000E-03 0. -1.
         11   -1    0    0    0    0 -0.00000000000E+00 -0.00000000000E+00 -0.45593999997E+02  0.45594000000E+02  0.51100000000E-03 0.  1.
    9900012    2    1    2    0    0 -0.31734688574E+02  0.24107257643E+02 -0.17186400245E+02  0.47787277847E+02  0.20000031018E+02 0.  0.
         12    1    1    2    0    0  0.31734688574E+02 -0.24107257643E+02  0.17186400245E+02  0.43400722153E+02  0.00000000000E+00 0. -1.
         11    1    3    3    0    0 -0.41833096137E+01  0.41937639763E+01 -0.10461761933E+02  0.12022320850E+02  0.51100000000E-03 0. -1.
        -11    1    3    3    0    0 -0.94539975041E+01  0.11148252891E+02 -0.17959118904E+00  0.14618271601E+02  0.51100000000E-03 0.  1.
        -12    1    3    3    0    0 -0.18097381456E+02  0.87652407760E+01 -0.65450471230E+01  0.21146685397E+02  0.00000000000E+00 0.  1.
</event>
<event>
 7    1  0.5317846E-010  0.4778727E+02  0.7816164E-02  0.1312668E+00
        -11   -1    0    0    0    0  0.00000000000E+00  0.00000000000E+00  0.45593999997E+02  0.45594000000E+02  0.51100000000E-03 0.  1.
         11   -1    0    0    0    0 -0.00000000000E+00 -0.00000000000E+00 -0.45593999997E+02  0.45594000000E+02  0.51100000000E-03 0. -1.
    9900012    2    1    2    0    0 -0.39494689950E+02  0.17835616970E+02  0.23840128004E+01  0.47787270928E+02  0.19999999470E+02 0.  0.
         12    1    1    2    0    0  0.39494689950E+02 -0.17835616970E+02 -0.23840128004E+01  0.43400729072E+02  0.00000000000E+00 0. -1.
         11    1    3    3    0    0 -0.50788013972E+01 -0.21595541125E+01 -0.40702465171E+01  0.68574634208E+01  0.51100000000E-03 0. -1.
        -11    1    3    3    0    0 -0.30122673717E+02  0.15904892355E+02  0.75729987680E+01  0.34895434993E+02  0.51100000000E-03 0.  1.
        -12    1    3    3    0    0 -0.42932148350E+01  0.40902787277E+01 -0.11187394505E+01  0.60343725149E+01  0.00000000000E+00 0.  1.
</event>
<event>
 7    1  0.5317846E-010  0.4778729E+02  0.7816164E-02  0.1312668E+00
        -11   -1    0    0    0    0  0.00000000000E+00  0.00000000000E+00  0.45593999997E+02  0.45594000000E+02  0.51100000000E-03 0.  1.
         11   -1    0    0    0    0 -0.00000000000E+00 -0.00000000000E+00 -0.45593999997E+02  0.45594000000E+02  0.51100000000E-03 0. -1.
    9900012    2    1    2    0    0 -0.79676942991E+01 -0.89078393453E+01  0.41722751628E+02  0.47787288512E+02  0.20000079640E+02 0.  0.
         12    1    1    2    0    0  0.79676942991E+01  0.89078393453E+01 -0.41722751628E+02  0.43400711488E+02  0.00000000000E+00 0. -1.
         11    1    3    3    0    0 -0.76626662709E+00  0.57092852005E+00 -0.14930884799E+01  0.17726921303E+01  0.51100000000E-03 0. -1.
        -11    1    3    3    0    0 -0.65959564080E+01 -0.11555218284E+02  0.33179822154E+02  0.35748151126E+02  0.51100000000E-03 0.  1.
        -12    1    3    3    0    0 -0.60547126401E+00  0.20764504185E+01  0.10036017954E+02  0.10266445255E+02  0.00000000000E+00 0.  1.
</event>
<event>
 7    1  0.5317846E-010  0.4778727E+02  0.7816164E-02  0.1312668E+00
        -11   -1    0    0    0    0  0.00000000000E+00  0.00000000000E+00  0.45593999997E+02  0.45594000000E+02  0.51100000000E-03 0.  1.
         11   -1    0    0    0    0 -0.00000000000E+00 -0.00000000000E+00 -0.45593999997E+02  0.45594000000E+02  0.51100000000E-03 0. -1.
    9900012    2    1    2    0    0  0.13749114745E+02 -0.59091766269E+01  0.40739004854E+02  0.47787273726E+02  0.20000012224E+02 0.  0.
         12    1    1    2    0    0 -0.13749114745E+02  0.59091766269E+01 -0.40739004854E+02  0.43400726274E+02  0.00000000000E+00 0. -1.
         11    1    3    3    0    0  0.43771994215E+01 -0.97047080445E+01  0.22359831542E+02  0.24764961132E+02  0.51100000000E-03 0. -1.
        -11    1    3    3    0    0  0.49935228164E+01  0.29407764645E+01  0.17553673797E+02  0.18485532191E+02  0.51100000000E-03 0.  1.
         12    1    3    3    0    0  0.43783925073E+01  0.85475495305E+00  0.82549951433E+00  0.45367804031E+01  0.00000000000E+00 0. -1.
</event>
<event>
 7    1  0.5317846E-010  0.4778727E+02  0.7816164E-02  0.1312668E+00
        -11   -1    0    0    0    0  0.00000000000E+00  0.00000000000E+00  0.45593999997E+02  0.45594000000E+02  0.51100000000E-03 0.  1.
         11   -1    0    0    0    0 -0.00000000000E+00 -0.00000000000E+00 -0.45593999997E+02  0.45594000000E+02  0.51100000000E-03 0. -1.
    9900012    2    1    2    0    0  0.31546947851E+02  0.10741188350E+02  0.27803607346E+02  0.47787266972E+02  0.19999981434E+02 0.  0.
         12    1    1    2    0    0 -0.31546947851E+02 -0.10741188350E+02 -0.27803607346E+02  0.43400733028E+02  0.00000000000E+00 0. -1.
         11    1    3    3    0    0  0.10490461709E+02  0.49190606256E+01  0.15329226838E+01  0.11687463220E+02  0.51100000000E-03 0. -1.
        -11    1    3    3    0    0  0.13525260705E+02 -0.22523962060E+01  0.14135761658E+02  0.19693291338E+02  0.51100000000E-03 0.  1.
        -12    1    3    3    0    0  0.75312254366E+01  0.80745239306E+01  0.12134923004E+02  0.16406512414E+02  0.00000000000E+00 0.  1.
</event>
<event>
 7    1  0.5317846E-010  0.4778727E+02  0.7816164E-02  0.1312668E+00
        -11   -1    0    0    0    0  0.00000000000E+00  0.00000000000E+00  0.45593999997E+02  0.45594000000E+02  0.51100000000E-03 0. -1.
         11   -1    0    0    0    0 -0.00000000000E+00 -0.00000000000E+00 -0.45593999997E+02  0.45594000000E+02  0.51100000000E-03 0.  1.
    9900012    2    1    2    0    0  0.35918097291E+02 -0.13069887238E+02 -0.20559475854E+02  0.47787265988E+02  0.19999976944E+02 0.  0.
         12    1    1    2    0    0 -0.35918097291E+02  0.13069887238E+02  0.20559475854E+02  0.43400734012E+02  0.00000000000E+00 0. -1.
         11    1    3    3    0    0  0.15989391155E+02 -0.73033585998E+01 -0.12549403220E+02  0.21598314698E+02  0.51100000000E-03 0.  1.
        -11    1    3    3    0    0  0.74370929273E+01  0.36073789873E+01  0.71968328058E+00  0.82970765124E+01  0.51100000000E-03 0. -1.
         12    1    3    3    0    0  0.12491613209E+02 -0.93739076257E+01 -0.87297559144E+01  0.17891874778E+02  0.00000000000E+00 0. -1.
</event>
<event>
 7    1  0.5317846E-010  0.4778728E+02  0.7816164E-02  0.1312668E+00
        -11   -1    0    0    0    0  0.00000000000E+00  0.00000000000E+00  0.45593999997E+02  0.45594000000E+02  0.51100000000E-03 0.  1.
         11   -1    0    0    0    0 -0.00000000000E+00 -0.00000000000E+00 -0.45593999997E+02  0.45594000000E+02  0.51100000000E-03 0. -1.
    9900012    2    1    2    0    0  0.20641475509E+02  0.19887213959E+02  0.32589125834E+02  0.47787275204E+02  0.20000018963E+02 0.  0.
         12    1    1    2    0    0 -0.20641475509E+02 -0.19887213959E+02 -0.32589125834E+02  0.43400724796E+02  0.00000000000E+00 0. -1.
         11    1    3    3    0    0  0.79546744176E+01  0.54869358177E+01  0.13261485285E+01  0.97540750427E+01  0.51100000000E-03 0. -1.
        -11    1    3    3    0    0  0.21441681296E+01  0.99761375615E+01  0.15612974215E+02  0.18651695411E+02  0.51100000000E-03 0.  1.
         12    1    3    3    0    0  0.10542632962E+02  0.44241405799E+01  0.15650003090E+02  0.19381504750E+02  0.00000000000E+00 0. -1.
</event>
<event>
 7    1  0.5317846E-010  0.4778728E+02  0.7816164E-02  0.1312668E+00
        -11   -1    0    0    0    0  0.00000000000E+00  0.00000000000E+00  0.45593999997E+02  0.45594000000E+02  0.51100000000E-03 0.  1.
         11   -1    0    0    0    0 -0.00000000000E+00 -0.00000000000E+00 -0.45593999997E+02  0.45594000000E+02  0.51100000000E-03 0. -1.
    9900012    2    1    2    0    0 -0.62926823203E+01 -0.35905867278E+02  0.23554057634E+02  0.47787276656E+02  0.20000025583E+02 0.  0.
         12    1    1    2    0    0  0.62926823203E+01  0.35905867278E+02 -0.23554057634E+02  0.43400723344E+02  0.00000000000E+00 0. -1.
         11    1    3    3    0    0 -0.81959287992E+01 -0.11072046949E+02  0.30088948079E+01  0.14100245414E+02  0.51100000000E-03 0. -1.
        -11    1    3    3    0    0 -0.15094755976E+01 -0.22123787132E+02  0.15700015315E+02  0.27170405864E+02  0.51100000000E-03 0.  1.
        -12    1    3    3    0    0  0.34127220765E+01 -0.27100331972E+01  0.48451475116E+01  0.65166253775E+01  0.00000000000E+00 0.  1.
</event>
<event>
 7    1  0.5317846E-010  0.4778727E+02  0.7816164E-02  0.1312668E+00
        -11   -1    0    0    0    0  0.00000000000E+00  0.00000000000E+00  0.45593999997E+02  0.45594000000E+02  0.51100000000E-03 0. -1.
         11   -1    0    0    0    0 -0.00000000000E+00 -0.00000000000E+00 -0.45593999997E+02  0.45594000000E+02  0.51100000000E-03 0.  1.
    9900012    2    1    2    0    0 -0.28565588515E+02 -0.27248351371E+02  0.18032136449E+02  0.47787269078E+02  0.19999991032E+02 0.  0.
         12    1    1    2    0    0  0.28565588515E+02  0.27248351371E+02 -0.18032136449E+02  0.43400730922E+02  0.00000000000E+00 0. -1.
         11    1    3    3    0    0 -0.50505504388E+01 -0.14262361794E+01 -0.17532859046E+01  0.55331926678E+01  0.51100000000E-03 0. -1.
        -11    1    3    3    0    0 -0.94170435737E+01 -0.19520399251E+02  0.13792323510E+02  0.25689587087E+02  0.51100000000E-03 0.  1.
         12    1    3    3    0    0 -0.14097994503E+02 -0.63017159407E+01  0.59930988433E+01  0.16564489323E+02  0.00000000000E+00 0. -1.
</event>
<event>
 7    1  0.5317846E-010  0.4778727E+02  0.7816164E-02  0.1312668E+00
        -11   -1    0    0    0    0  0.00000000000E+00  0.00000000000E+00  0.45593999997E+02  0.45594000000E+02  0.51100000000E-03 0. -1.
         11   -1    0    0    0    0 -0.00000000000E+00 -0.00000000000E+00 -0.45593999997E+02  0.45594000000E+02  0.51100000000E-03 0.  1.
    9900012    2    1    2    0    0  0.28581796361E+02  0.29480857107E+02 -0.14056422409E+02  0.47787273855E+02  0.20000012816E+02 0.  0.
         12    1    1    2    0    0 -0.28581796361E+02 -0.29480857107E+02  0.14056422409E+02  0.43400726145E+02  0.00000000000E+00 0. -1.
         11    1    3    3    0    0  0.10879702217E+02  0.14550154852E+02 -0.12437302609E+02  0.22017298268E+02  0.51100000000E-03 0. -1.
        -11    1    3    3    0    0  0.17751767433E+02  0.92555688471E+01 -0.79922502605E+00  0.20035707189E+02  0.51100000000E-03 0.  1.
         12    1    3    3    0    0 -0.49673288587E-01  0.56751334074E+01 -0.81989477311E+00  0.57342683986E+01  0.00000000000E+00 0. -1.
</event>
<event>
 7    1  0.5317846E-010  0.4778728E+02  0.7816164E-02  0.1312668E+00
        -11   -1    0    0    0    0  0.00000000000E+00  0.00000000000E+00  0.45593999997E+02  0.45594000000E+02  0.51100000000E-03 0. -1.
         11   -1    0    0    0    0 -0.00000000000E+00 -0.00000000000E+00 -0.45593999997E+02  0.45594000000E+02  0.51100000000E-03 0.  1.
    9900012    2    1    2    0    0  0.29736239393E+02 -0.26033551760E+02 -0.17934117402E+02  0.47787282063E+02  0.20000050236E+02 0.  0.
         12    1    1    2    0    0 -0.29736239393E+02  0.26033551760E+02  0.17934117402E+02  0.43400717937E+02  0.00000000000E+00 0. -1.
         11    1    3    3    0    0  0.23829447920E+02 -0.20882367688E+02 -0.94146685229E+01  0.33053772131E+02  0.51100000000E-03 0. -1.
        -11    1    3    3    0    0  0.23180148890E+01  0.25914286318E+01 -0.27395687076E+01  0.44265033994E+01  0.51100000000E-03 0.  1.
        -12    1    3    3    0    0  0.35887765837E+01 -0.77426127042E+01 -0.57798801718E+01  0.10307006532E+02  0.00000000000E+00 0.  1.
</event>
<event>
 7    1  0.5317846E-010  0.4778727E+02  0.7816164E-02  0.1312668E+00
        -11   -1    0    0    0    0  0.00000000000E+00  0.00000000000E+00  0.45593999997E+02  0.45594000000E+02  0.51100000000E-03 0.  1.
         11   -1    0    0    0    0 -0.00000000000E+00 -0.00000000000E+00 -0.45593999997E+02  0.45594000000E+02  0.51100000000E-03 0. -1.
    9900012    2    1    2    0    0 -0.22591838987E+02 -0.33394185810E+02  0.16064263334E+02  0.47787269692E+02  0.19999993836E+02 0.  0.
         12    1    1    2    0    0  0.22591838987E+02  0.33394185810E+02 -0.16064263334E+02  0.43400730308E+02  0.00000000000E+00 0. -1.
         11    1    3    3    0    0 -0.38813240330E+01  0.39836078091E+00  0.31800664496E+00  0.39146514594E+01  0.51100000000E-03 0. -1.
        -11    1    3    3    0    0 -0.10394349568E+02 -0.21732195016E+02  0.16507550531E+02  0.29203253721E+02  0.51100000000E-03 0.  1.
        -12    1    3    3    0    0 -0.83161653863E+01 -0.12060351576E+02 -0.76129384132E+00  0.14669364512E+02  0.00000000000E+00 0.  1.
</event>
<event>
 7    1  0.5317846E-010  0.4778727E+02  0.7816164E-02  0.1312668E+00
        -11   -1    0    0    0    0  0.00000000000E+00  0.00000000000E+00  0.45593999997E+02  0.45594000000E+02  0.51100000000E-03 0.  1.
         11   -1    0    0    0    0 -0.00000000000E+00 -0.00000000000E+00 -0.45593999997E+02  0.45594000000E+02  0.51100000000E-03 0. -1.
    9900012    2    1    2    0    0  0.34358508027E+01 -0.36417519879E+01  0.43110967444E+02  0.47787274865E+02  0.20000017418E+02 0.  0.
         12    1    1    2    0    0 -0.34358508027E+01  0.36417519879E+01 -0.43110967444E+02  0.43400725135E+02  0.00000000000E+00 0. -1.
         11    1    3    3    0    0  0.12879608883E+01  0.22663275987E+01 -0.78559617481E+00  0.27225439657E+01  0.51100000000E-03 0. -1.
        -11    1    3    3    0    0  0.27435138192E+01 -0.72522881278E+01  0.26635624402E+02  0.27741287618E+02  0.51100000000E-03 0.  1.
         12    1    3    3    0    0 -0.59562390488E+00  0.13442085413E+01  0.17260939217E+02  0.17323443281E+02  0.00000000000E+00 0. -1.
</event>
<event>
 7    1  0.5317846E-010  0.4778727E+02  0.7816164E-02  0.1312668E+00
        -11   -1    0    0    0    0  0.00000000000E+00  0.00000000000E+00  0.45593999997E+02  0.45594000000E+02  0.51100000000E-03 0. -1.
         11   -1    0    0    0    0 -0.00000000000E+00 -0.00000000000E+00 -0.45593999997E+02  0.45594000000E+02  0.51100000000E-03 0.  1.
    9900012    2    1    2    0    0  0.19569113909E+02  0.26760321832E+02 -0.28009966749E+02  0.47787270962E+02  0.19999999625E+02 0.  0.
         12    1    1    2    0    0 -0.19569113909E+02 -0.26760321832E+02  0.28009966749E+02  0.43400729038E+02  0.00000000000E+00 0. -1.
         11    1    3    3    0    0  0.46828731488E+01  0.14047531121E+02 -0.45577201287E+01  0.15493070856E+02  0.51100000000E-03 0. -1.
        -11    1    3    3    0    0  0.21404532950E+01  0.18207175148E+01 -0.11151086947E+02  0.11499708385E+02  0.51100000000E-03 0.  1.
        -12    1    3    3    0    0  0.12745787465E+02  0.10892073196E+02 -0.12301159673E+02  0.20794491721E+02  0.00000000000E+00 0.  1.
</event>
<event>
 7    1  0.5317846E-010  0.4778727E+02  0.7816164E-02  0.1312668E+00
        -11   -1    0    0    0    0  0.00000000000E+00  0.00000000000E+00  0.45593999997E+02  0.45594000000E+02  0.51100000000E-03 0. -1.
         11   -1    0    0    0    0 -0.00000000000E+00 -0.00000000000E+00 -0.45593999997E+02  0.45594000000E+02  0.51100000000E-03 0.  1.
    9900012    2    1    2    0    0  0.14612311683E+02  0.36463384437E+02  0.18453324289E+02  0.47787271497E+02  0.20000002063E+02 0.  0.
         12    1    1    2    0    0 -0.14612311683E+02 -0.36463384437E+02 -0.18453324289E+02  0.43400728503E+02  0.00000000000E+00 0. -1.
         11    1    3    3    0    0  0.40916631881E+01  0.26741850320E+02  0.90159936365E+01  0.28515897456E+02  0.51100000000E-03 0. -1.
        -11    1    3    3    0    0  0.10877627180E+02  0.84375644161E+01  0.50131494678E+01  0.14650833908E+02  0.51100000000E-03 0.  1.
         12    1    3    3    0    0 -0.35697868549E+00  0.12839697007E+01  0.44241811842E+01  0.46205401335E+01  0.00000000000E+00 0. -1.
</event>
<event>
 7    1  0.5317846E-010  0.4778727E+02  0.7816164E-02  0.1312668E+00
        -11   -1    0    0    0    0  0.00000000000E+00  0.00000000000E+00  0.45593999997E+02  0.45594000000E+02  0.51100000000E-03 0. -1.
         11   -1    0    0    0    0 -0.00000000000E+00 -0.00000000000E+00 -0.45593999997E+02  0.45594000000E+02  0.51100000000E-03 0.  1.
    9900012    2    1    2    0    0 -0.14494652519E+02  0.40295877053E+02 -0.70548407670E+01  0.47787269161E+02  0.19999991412E+02 0.  0.
         12    1    1    2    0    0  0.14494652519E+02 -0.40295877053E+02  0.70548407670E+01  0.43400730839E+02  0.00000000000E+00 0. -1.
         11    1    3    3    0    0 -0.50007972463E+01  0.22885865815E+02  0.52790341859E+01  0.24013309422E+02  0.51100000000E-03 0. -1.
        -11    1    3    3    0    0 -0.95887820559E+01  0.15608273947E+02 -0.10154340554E+02  0.20944536024E+02  0.51100000000E-03 0.  1.
        -12    1    3    3    0    0  0.94926783640E-01  0.18017372917E+01 -0.21795343987E+01  0.28294237148E+01  0.00000000000E+00 0.  1.
</event>
<event>
 7    1  0.5317846E-010  0.4778727E+02  0.7816164E-02  0.1312668E+00
        -11   -1    0    0    0    0  0.00000000000E+00  0.00000000000E+00  0.45593999997E+02  0.45594000000E+02  0.51100000000E-03 0.  1.
         11   -1    0    0    0    0 -0.00000000000E+00 -0.00000000000E+00 -0.45593999997E+02  0.45594000000E+02  0.51100000000E-03 0. -1.
    9900012    2    1    2    0    0 -0.20484360000E+02  0.15440282044E+02  0.35008740203E+02  0.47787271840E+02  0.20000003627E+02 0.  0.
         12    1    1    2    0    0  0.20484360000E+02 -0.15440282044E+02 -0.35008740203E+02  0.43400728160E+02  0.00000000000E+00 0. -1.
         11    1    3    3    0    0 -0.71833370079E+01  0.66985260648E+01  0.32820521982E+01  0.10355793012E+02  0.51100000000E-03 0. -1.
        -11    1    3    3    0    0 -0.15445304781E+02  0.79555535067E+01  0.26045453934E+02  0.31308368566E+02  0.51100000000E-03 0.  1.
        -12    1    3    3    0    0  0.21442817883E+01  0.78620247204E+00  0.56812340712E+01  0.61231102624E+01  0.00000000000E+00 0.  1.
</event>
<event>
 7    1  0.5317846E-010  0.4778727E+02  0.7816164E-02  0.1312668E+00
        -11   -1    0    0    0    0  0.00000000000E+00  0.00000000000E+00  0.45593999997E+02  0.45594000000E+02  0.51100000000E-03 0.  1.
         11   -1    0    0    0    0 -0.00000000000E+00 -0.00000000000E+00 -0.45593999997E+02  0.45594000000E+02  0.51100000000E-03 0. -1.
    9900012    2    1    2    0    0 -0.18945370068E+02 -0.25220739923E+02  0.29809570224E+02  0.47787271363E+02  0.20000001451E+02 0.  0.
         12    1    1    2    0    0  0.18945370068E+02  0.25220739923E+02 -0.29809570224E+02  0.43400728637E+02  0.00000000000E+00 0. -1.
         11    1    3    3    0    0 -0.12278958556E+01 -0.12648286832E+02  0.11383041529E+02  0.17060495969E+02  0.51100000000E-03 0. -1.
        -11    1    3    3    0    0 -0.23682783974E+00 -0.43022790302E+01  0.71298982588E+01  0.83307347647E+01  0.51100000000E-03 0.  1.
         12    1    3    3    0    0 -0.17480646373E+02 -0.82701740615E+01  0.11296630436E+02  0.22396040628E+02  0.00000000000E+00 0. -1.
</event>
<event>
 7    1  0.5317846E-010  0.4778727E+02  0.7816164E-02  0.1312668E+00
        -11   -1    0    0    0    0  0.00000000000E+00  0.00000000000E+00  0.45593999997E+02  0.45594000000E+02  0.51100000000E-03 0. -1.
         11   -1    0    0    0    0 -0.00000000000E+00 -0.00000000000E+00 -0.45593999997E+02  0.45594000000E+02  0.51100000000E-03 0.  1.
    9900012    2    1    2    0    0  0.36945739840E+02 -0.13432093590E+02 -0.18390608230E+02  0.47787270725E+02  0.19999998545E+02 0.  0.
         12    1    1    2    0    0 -0.36945739840E+02  0.13432093590E+02  0.18390608230E+02  0.43400729275E+02  0.00000000000E+00 0. -1.
         11    1    3    3    0    0  0.22893943928E+02 -0.12070563945E+02 -0.38538844320E+01  0.26166459601E+02  0.51100000000E-03 0. -1.
        -11    1    3    3    0    0  0.86506900742E+01  0.28221416512E+01 -0.93155201437E+01  0.13022205576E+02  0.51100000000E-03 0.  1.
         12    1    3    3    0    0  0.54011058369E+01 -0.41836712960E+01 -0.52212036546E+01  0.85986055485E+01  0.00000000000E+00 0. -1.
</event>
<event>
 7    1  0.5317846E-010  0.4778727E+02  0.7816164E-02  0.1312668E+00
        -11   -1    0    0    0    0  0.00000000000E+00  0.00000000000E+00  0.45593999997E+02  0.45594000000E+02  0.51100000000E-03 0. -1.
         11   -1    0    0    0    0 -0.00000000000E+00 -0.00000000000E+00 -0.45593999997E+02  0.45594000000E+02  0.51100000000E-03 0.  1.
    9900012    2    1    2    0    0  0.23508797249E+02 -0.36101907279E+02  0.52547198090E+01  0.47787270310E+02  0.19999996654E+02 0.  0.
         12    1    1    2    0    0 -0.23508797249E+02  0.36101907279E+02 -0.52547198090E+01  0.43400729690E+02  0.00000000000E+00 0. -1.
         11    1    3    3    0    0 -0.46435865416E+00  0.55127735700E+00  0.18550031538E+01  0.19901187517E+01  0.51100000000E-03 0. -1.
        -11    1    3    3    0    0  0.22246432840E+02 -0.36756989011E+02  0.52261592438E+01  0.43281552144E+02  0.51100000000E-03 0.  1.
        -12    1    3    3    0    0  0.17267230638E+01  0.10380437500E+00 -0.18264425886E+01  0.25155994150E+01  0.00000000000E+00 0.  1.
</event>
<event>
 7    1  0.5317846E-010  0.4778727E+02  0.7816164E-02  0.1312668E+00
        -11   -1    0    0    0    0  0.00000000000E+00  0.00000000000E+00  0.45593999997E+02  0.45594000000E+02  0.51100000000E-03 0.  1.
         11   -1    0    0    0    0 -0.00000000000E+00 -0.00000000000E+00 -0.45593999997E+02  0.45594000000E+02  0.51100000000E-03 0. -1.
    9900012    2    1    2    0    0 -0.25034096238E+02  0.25908953911E+02  0.24200071002E+02  0.47787270700E+02  0.19999998432E+02 0.  0.
         12    1    1    2    0    0  0.25034096238E+02 -0.25908953911E+02 -0.24200071002E+02  0.43400729300E+02  0.00000000000E+00 0. -1.
         11    1    3    3    0    0 -0.11115249327E+02  0.81930647075E+01  0.17191556370E+02  0.22050503114E+02  0.51100000000E-03 0.  1.
        -11    1    3    3    0    0 -0.75593450856E+01  0.56047077871E+01 -0.16407378070E+01  0.95524064149E+01  0.51100000000E-03 0. -1.
        -12    1    3    3    0    0 -0.63595018258E+01  0.12111181417E+02  0.86492524387E+01  0.16184361171E+02  0.00000000000E+00 0.  1.
</event>
<event>
 7    1  0.5317846E-010  0.4778727E+02  0.7816164E-02  0.1312668E+00
        -11   -1    0    0    0    0  0.00000000000E+00  0.00000000000E+00  0.45593999997E+02  0.45594000000E+02  0.51100000000E-03 0.  1.
         11   -1    0    0    0    0 -0.00000000000E+00 -0.00000000000E+00 -0.45593999997E+02  0.45594000000E+02  0.51100000000E-03 0. -1.
    9900012    2    1    2    0    0  0.66538819423E+01  0.53069054966E+01  0.42558029513E+02  0.47787271125E+02  0.20000000367E+02 0.  0.
         12    1    1    2    0    0 -0.66538819423E+01 -0.53069054966E+01 -0.42558029513E+02  0.43400728875E+02  0.00000000000E+00 0. -1.
         11    1    3    3    0    0  0.84567605802E+01  0.60313966872E+01  0.14585299633E+02  0.17906018853E+02  0.51100000000E-03 0. -1.
        -11    1    3    3    0    0 -0.22560645540E+01 -0.83776413977E+00  0.28816493824E+02  0.28916811591E+02  0.51100000000E-03 0.  1.
         12    1    3    3    0    0  0.45318591609E+00  0.11327294917E+00 -0.84376394352E+00  0.96444068141E+00  0.00000000000E+00 0. -1.
</event>
<event>
 7    1  0.5317846E-010  0.4778727E+02  0.7816164E-02  0.1312668E+00
        -11   -1    0    0    0    0  0.00000000000E+00  0.00000000000E+00  0.45593999997E+02  0.45594000000E+02  0.51100000000E-03 0. -1.
         11   -1    0    0    0    0 -0.00000000000E+00 -0.00000000000E+00 -0.45593999997E+02  0.45594000000E+02  0.51100000000E-03 0.  1.
    9900012    2    1    2    0    0 -0.59781175482E+01 -0.15663215526E+02 -0.40031854846E+02  0.47787267144E+02  0.19999982215E+02 0.  0.
         12    1    1    2    0    0  0.59781175482E+01  0.15663215526E+02  0.40031854846E+02  0.43400732856E+02  0.00000000000E+00 0. -1.
         11    1    3    3    0    0 -0.10749140430E+01 -0.38488156472E+01 -0.17963365400E+01  0.43812837516E+01  0.51100000000E-03 0. -1.
        -11    1    3    3    0    0 -0.26451299284E+01 -0.15563230416E+02 -0.26068797884E+02  0.30476106652E+02  0.51100000000E-03 0.  1.
        -12    1    3    3    0    0 -0.22580735768E+01  0.37488305370E+01 -0.12166720423E+02  0.12929876740E+02  0.00000000000E+00 0.  1.
</event>
<event>
 7    1  0.5317846E-010  0.4778727E+02  0.7816164E-02  0.1312668E+00
        -11   -1    0    0    0    0  0.00000000000E+00  0.00000000000E+00  0.45593999997E+02  0.45594000000E+02  0.51100000000E-03 0. -1.
         11   -1    0    0    0    0 -0.00000000000E+00 -0.00000000000E+00 -0.45593999997E+02  0.45594000000E+02  0.51100000000E-03 0.  1.
    9900012    2    1    2    0    0 -0.26650390641E+02  0.20814773294E+02 -0.27205237984E+02  0.47787273251E+02  0.20000010061E+02 0.  0.
         12    1    1    2    0    0  0.26650390641E+02 -0.20814773294E+02  0.27205237984E+02  0.43400726749E+02  0.00000000000E+00 0. -1.
         11    1    3    3    0    0 -0.27674612806E+01  0.62733720301E+01 -0.12037978345E+01  0.69615492568E+01  0.51100000000E-03 0. -1.
        -11    1    3    3    0    0 -0.22019276252E+02  0.17397893308E+02 -0.23077483539E+02  0.36333255634E+02  0.51100000000E-03 0.  1.
        -12    1    3    3    0    0 -0.18636531082E+01 -0.28564920445E+01 -0.29239566100E+01  0.44924683600E+01  0.00000000000E+00 0.  1.
</event>
<event>
 7    1  0.5317846E-010  0.4778727E+02  0.7816164E-02  0.1312668E+00
        -11   -1    0    0    0    0  0.00000000000E+00  0.00000000000E+00  0.45593999997E+02  0.45594000000E+02  0.51100000000E-03 0.  1.
         11   -1    0    0    0    0 -0.00000000000E+00 -0.00000000000E+00 -0.45593999997E+02  0.45594000000E+02  0.51100000000E-03 0. -1.
    9900012    2    1    2    0    0  0.19855758907E+02  0.21813302817E+02  0.31836333298E+02  0.47787268907E+02  0.19999990255E+02 0.  0.
         12    1    1    2    0    0 -0.19855758907E+02 -0.21813302817E+02 -0.31836333298E+02  0.43400731093E+02  0.00000000000E+00 0. -1.
         11    1    3    3    0    0 -0.26114880707E+01  0.21528560746E+01 -0.34644745816E-01  0.33846506084E+01  0.51100000000E-03 0. -1.
        -11    1    3    3    0    0  0.13655133758E+02  0.74433940185E+01  0.19274727872E+02  0.24766548553E+02  0.51100000000E-03 0.  1.
         12    1    3    3    0    0  0.88121132197E+01  0.12217052724E+02  0.12596250172E+02  0.19636069745E+02  0.00000000000E+00 0. -1.
</event>
<event>
 7    1  0.5317846E-010  0.4778727E+02  0.7816164E-02  0.1312668E+00
        -11   -1    0    0    0    0  0.00000000000E+00  0.00000000000E+00  0.45593999997E+02  0.45594000000E+02  0.51100000000E-03 0. -1.
         11   -1    0    0    0    0 -0.00000000000E+00 -0.00000000000E+00 -0.45593999997E+02  0.45594000000E+02  0.51100000000E-03 0.  1.
    9900012    2    1    2    0    0  0.85427168017E+01  0.42229008727E+02 -0.52302840326E+01  0.47787273515E+02  0.20000011263E+02 0.  0.
         12    1    1    2    0    0 -0.85427168017E+01 -0.42229008727E+02  0.52302840326E+01  0.43400726485E+02  0.00000000000E+00 0. -1.
         11    1    3    3    0    0 -0.13281634510E+00  0.40237750325E+00 -0.15142615999E+01  0.15724300591E+01  0.51100000000E-03 0. -1.
        -11    1    3    3    0    0  0.99417408890E+01  0.11193359797E+02  0.17468743796E+01  0.15072527519E+02  0.51100000000E-03 0.  1.
        -12    1    3    3    0    0 -0.12662077422E+01  0.30633271426E+02 -0.54628968124E+01  0.31142315937E+02  0.00000000000E+00 0.  1.
</event>
<event>
 7    1  0.5317846E-010  0.4778726E+02  0.7816164E-02  0.1312668E+00
        -11   -1    0    0    0    0  0.00000000000E+00  0.00000000000E+00  0.45593999997E+02  0.45594000000E+02  0.51100000000E-03 0. -1.
         11   -1    0    0    0    0 -0.00000000000E+00 -0.00000000000E+00 -0.45593999997E+02  0.45594000000E+02  0.51100000000E-03 0.  1.
    9900012    2    1    2    0    0  0.19617109364E+02  0.38414253014E+02 -0.48102025606E+01  0.47787264256E+02  0.19999969051E+02 0.  0.
         12    1    1    2    0    0 -0.19617109364E+02 -0.38414253014E+02  0.48102025606E+01  0.43400735744E+02  0.00000000000E+00 0. -1.
         11    1    3    3    0    0  0.19458134784E+01  0.75609177424E+01 -0.46908180176E+01  0.91080975585E+01  0.51100000000E-03 0. -1.
        -11    1    3    3    0    0  0.10487078428E+02  0.12110799342E+02 -0.69688711503E+01  0.17470416137E+02  0.51100000000E-03 0.  1.
        -12    1    3    3    0    0  0.71842174575E+01  0.18742535930E+02  0.68494866072E+01  0.21208750561E+02  0.00000000000E+00 0.  1.
</event>
<event>
 7    1  0.5317846E-010  0.4778727E+02  0.7816164E-02  0.1312668E+00
        -11   -1    0    0    0    0  0.00000000000E+00  0.00000000000E+00  0.45593999997E+02  0.45594000000E+02  0.51100000000E-03 0.  1.
         11   -1    0    0    0    0 -0.00000000000E+00 -0.00000000000E+00 -0.45593999997E+02  0.45594000000E+02  0.51100000000E-03 0. -1.
    9900012    2    1    2    0    0 -0.80849858129E+01  0.40884912152E+02  0.12111168340E+02  0.47787269178E+02  0.19999991491E+02 0.  0.
         12    1    1    2    0    0  0.80849858129E+01 -0.40884912152E+02 -0.12111168340E+02  0.43400730822E+02  0.00000000000E+00 0. -1.
         11    1    3    3    0    0  0.11398345843E+00 -0.57518579636E+00  0.42025691167E+01  0.42432792002E+01  0.51100000000E-03 0. -1.
        -11    1    3    3    0    0 -0.53774525521E+01  0.23091826180E+02  0.78006653797E+01  0.24959964201E+02  0.51100000000E-03 0.  1.
         12    1    3    3    0    0 -0.28215167192E+01  0.18368271769E+02  0.10793384377E+00  0.18584025777E+02  0.00000000000E+00 0. -1.
</event>
<event>
 7    1  0.5317846E-010  0.4778728E+02  0.7816164E-02  0.1312668E+00
        -11   -1    0    0    0    0  0.00000000000E+00  0.00000000000E+00  0.45593999997E+02  0.45594000000E+02  0.51100000000E-03 0.  1.
         11   -1    0    0    0    0 -0.00000000000E+00 -0.00000000000E+00 -0.45593999997E+02  0.45594000000E+02  0.51100000000E-03 0. -1.
    9900012    2    1    2    0    0 -0.17959614316E+02  0.27348775254E+02  0.28515243384E+02  0.47787281578E+02  0.20000048027E+02 0.  0.
         12    1    1    2    0    0  0.17959614316E+02 -0.27348775254E+02 -0.28515243384E+02  0.43400718422E+02  0.00000000000E+00 0. -1.
         11    1    3    3    0    0 -0.17065910125E+02  0.17909095671E+02  0.10733129344E+02  0.26966294924E+02  0.51100000000E-03 0.  1.
        -11    1    3    3    0    0 -0.11825277876E+01 -0.17602484791E+00  0.16368163685E+01  0.20269496296E+01  0.51100000000E-03 0. -1.
         12    1    3    3    0    0  0.28882359676E+00  0.96157044312E+01  0.16145297672E+02  0.18794037025E+02  0.00000000000E+00 0. -1.
</event>
<event>
 7    1  0.5317846E-010  0.4778728E+02  0.7816164E-02  0.1312668E+00
        -11   -1    0    0    0    0  0.00000000000E+00  0.00000000000E+00  0.45593999997E+02  0.45594000000E+02  0.51100000000E-03 0.  1.
         11   -1    0    0    0    0 -0.00000000000E+00 -0.00000000000E+00 -0.45593999997E+02  0.45594000000E+02  0.51100000000E-03 0. -1.
    9900012    2    1    2    0    0  0.22329970174E+02 -0.34731336057E+02 -0.13368972683E+02  0.47787277623E+02  0.20000029993E+02 0.  0.
         12    1    1    2    0    0 -0.22329970174E+02  0.34731336057E+02  0.13368972683E+02  0.43400722377E+02  0.00000000000E+00 0. -1.
         11    1    3    3    0    0 -0.29196003138E+01 -0.34057088384E+01 -0.26981957154E+01  0.52348045870E+01  0.51100000000E-03 0. -1.
        -11    1    3    3    0    0  0.20270775926E+02 -0.21312248225E+02 -0.10899113655E+02  0.31367291241E+02  0.51100000000E-03 0.  1.
         12    1    3    3    0    0  0.49787945622E+01 -0.10013378993E+02  0.22833668721E+00  0.11185181795E+02  0.00000000000E+00 0. -1.
</event>
<event>
 7    1  0.5317846E-010  0.4778727E+02  0.7816164E-02  0.1312668E+00
        -11   -1    0    0    0    0  0.00000000000E+00  0.00000000000E+00  0.45593999997E+02  0.45594000000E+02  0.51100000000E-03 0. -1.
         11   -1    0    0    0    0 -0.00000000000E+00 -0.00000000000E+00 -0.45593999997E+02  0.45594000000E+02  0.51100000000E-03 0.  1.
    9900012    2    1    2    0    0 -0.54382701572E+01 -0.12990868834E+02 -0.41052231420E+02  0.47787272357E+02  0.20000005983E+02 0.  0.
         12    1    1    2    0    0  0.54382701572E+01  0.12990868834E+02  0.41052231420E+02  0.43400727643E+02  0.00000000000E+00 0. -1.
         11    1    3    3    0    0  0.51966803272E+01 -0.60901132161E+01 -0.15374587742E+02  0.17334154548E+02  0.51100000000E-03 0. -1.
        -11    1    3    3    0    0 -0.17288753302E+01 -0.71897322641E+01 -0.10286392172E+02  0.12668509151E+02  0.51100000000E-03 0.  1.
         12    1    3    3    0    0 -0.89060751542E+01  0.28897664635E+00 -0.15391251506E+02  0.17784608657E+02  0.00000000000E+00 0. -1.
</event>
<event>
 7    1  0.5317846E-010  0.4778727E+02  0.7816164E-02  0.1312668E+00
        -11   -1    0    0    0    0  0.00000000000E+00  0.00000000000E+00  0.45593999997E+02  0.45594000000E+02  0.51100000000E-03 0. -1.
         11   -1    0    0    0    0 -0.00000000000E+00 -0.00000000000E+00 -0.45593999997E+02  0.45594000000E+02  0.51100000000E-03 0.  1.
    9900012    2    1    2    0    0  0.24206497162E+01 -0.42489028251E+02 -0.85115283560E+01  0.47787272107E+02  0.20000004842E+02 0.  0.
         12    1    1    2    0    0 -0.24206497162E+01  0.42489028251E+02  0.85115283560E+01  0.43400727893E+02  0.00000000000E+00 0. -1.
         11    1    3    3    0    0  0.18695603884E+01 -0.12304176903E+01 -0.81827893623E+00  0.23830158240E+01  0.51100000000E-03 0. -1.
        -11    1    3    3    0    0  0.77079402538E+01 -0.29871375192E+02 -0.23738949117E+01  0.30941020929E+02  0.51100000000E-03 0.  1.
        -12    1    3    3    0    0 -0.71568509261E+01 -0.11387235369E+02 -0.53193545080E+01  0.14463235354E+02  0.00000000000E+00 0.  1.
</event>
<event>
 7    1  0.5317846E-010  0.4778727E+02  0.7816164E-02  0.1312668E+00
        -11   -1    0    0    0    0  0.00000000000E+00  0.00000000000E+00  0.45593999997E+02  0.45594000000E+02  0.51100000000E-03 0. -1.
         11   -1    0    0    0    0 -0.00000000000E+00 -0.00000000000E+00 -0.45593999997E+02  0.45594000000E+02  0.51100000000E-03 0.  1.
    9900012    2    1    2    0    0 -0.17114889585E+02  0.11439334227E+02 -0.38207921178E+02  0.47787273580E+02  0.20000011560E+02 0.  0.
         12    1    1    2    0    0  0.17114889585E+02 -0.11439334227E+02  0.38207921178E+02  0.43400726420E+02  0.00000000000E+00 0. -1.
         11    1    3    3    0    0  0.21327664847E+01  0.73676254650E+01 -0.72836057477E+01  0.10577405675E+02  0.51100000000E-03 0. -1.
        -11    1    3    3    0    0 -0.17235173490E+02  0.13963974873E+01 -0.26855127016E+02  0.31940553822E+02  0.51100000000E-03 0.  1.
         12    1    3    3    0    0 -0.20124825798E+01  0.26753112742E+01 -0.40691884144E+01  0.52693140825E+01  0.00000000000E+00 0. -1.
</event>
<event>
 7    1  0.5317846E-010  0.4778727E+02  0.7816164E-02  0.1312668E+00
        -11   -1    0    0    0    0  0.00000000000E+00  0.00000000000E+00  0.45593999997E+02  0.45594000000E+02  0.51100000000E-03 0. -1.
         11   -1    0    0    0    0 -0.00000000000E+00 -0.00000000000E+00 -0.45593999997E+02  0.45594000000E+02  0.51100000000E-03 0.  1.
    9900012    2    1    2    0    0  0.10676879159E+02 -0.40876438169E+02 -0.99370126333E+01  0.47787272286E+02  0.20000005662E+02 0.  0.
         12    1    1    2    0    0 -0.10676879159E+02  0.40876438169E+02  0.99370126333E+01  0.43400727714E+02  0.00000000000E+00 0. -1.
         11    1    3    3    0    0 -0.17514433048E+01  0.31230571705E-01  0.16042154204E+01  0.23752971130E+01  0.51100000000E-03 0. -1.
        -11    1    3    3    0    0  0.12103519249E+02 -0.39254556982E+02 -0.85194815525E+01  0.41952318032E+02  0.51100000000E-03 0.  1.
         12    1    3    3    0    0  0.32480321547E+00 -0.16531117587E+01 -0.30217465012E+01  0.34596571410E+01  0.00000000000E+00 0. -1.
</event>
<event>
 7    1  0.5317846E-010  0.4778727E+02  0.7816164E-02  0.1312668E+00
        -11   -1    0    0    0    0  0.00000000000E+00  0.00000000000E+00  0.45593999997E+02  0.45594000000E+02  0.51100000000E-03 0.  1.
         11   -1    0    0    0    0 -0.00000000000E+00 -0.00000000000E+00 -0.45593999997E+02  0.45594000000E+02  0.51100000000E-03 0. -1.
    9900012    2    1    2    0    0  0.80499906258E+01 -0.74549641230E+00  0.42641121942E+02  0.47787269655E+02  0.19999993667E+02 0.  0.
         12    1    1    2    0    0 -0.80499906258E+01  0.74549641230E+00 -0.42641121942E+02  0.43400730345E+02  0.00000000000E+00 0. -1.
         11    1    3    3    0    0 -0.19575641262E+01 -0.53516027367E+01  0.48263473996E+01  0.74676193424E+01  0.51100000000E-03 0. -1.
        -11    1    3    3    0    0  0.10171124850E+01 -0.23521051630E+01  0.56224472248E+01  0.61789019706E+01  0.51100000000E-03 0.  1.
         12    1    3    3    0    0  0.89904422670E+01  0.69582114874E+01  0.32192327318E+02  0.34140748342E+02  0.00000000000E+00 0. -1.
</event>
<event>
 7    1  0.5317846E-010  0.4778725E+02  0.7816164E-02  0.1312668E+00
        -11   -1    0    0    0    0  0.00000000000E+00  0.00000000000E+00  0.45593999997E+02  0.45594000000E+02  0.51100000000E-03 0.  1.
         11   -1    0    0    0    0 -0.00000000000E+00 -0.00000000000E+00 -0.45593999997E+02  0.45594000000E+02  0.51100000000E-03 0. -1.
    9900012    2    1    2    0    0  0.93890548160E+01 -0.48231886139E+01  0.42097594825E+02  0.47787251287E+02  0.19999909919E+02 0.  0.
         12    1    1    2    0    0 -0.93890548160E+01  0.48231886139E+01 -0.42097594825E+02  0.43400748713E+02  0.00000000000E+00 0. -1.
         11    1    3    3    0    0  0.12087535041E+01 -0.86579464635E+01  0.10704984542E+02  0.13820919517E+02  0.51100000000E-03 0. -1.
        -11    1    3    3    0    0  0.77375392359E+01  0.12628237466E+01  0.30001536198E+02  0.31008973084E+02  0.51100000000E-03 0.  1.
         12    1    3    3    0    0  0.44276207591E+00  0.25719341030E+01  0.13910740860E+01  0.29573586862E+01  0.00000000000E+00 0. -1.
</event>
<event>
 7    1  0.5317846E-010  0.4778727E+02  0.7816164E-02  0.1312668E+00
        -11   -1    0    0    0    0  0.00000000000E+00  0.00000000000E+00  0.45593999997E+02  0.45594000000E+02  0.51100000000E-03 0.  1.
         11   -1    0    0    0    0 -0.00000000000E+00 -0.00000000000E+00 -0.45593999997E+02  0.45594000000E+02  0.51100000000E-03 0. -1.
    9900012    2    1    2    0    0  0.29208777037E+02  0.22714092582E+02  0.22683492794E+02  0.47787268403E+02  0.19999987958E+02 0.  0.
         12    1    1    2    0    0 -0.29208777037E+02 -0.22714092582E+02 -0.22683492794E+02  0.43400731597E+02  0.00000000000E+00 0. -1.
         11    1    3    3    0    0  0.11883775702E+02 -0.11159863925E+01  0.96738088243E+01  0.15363988024E+02  0.51100000000E-03 0. -1.
        -11    1    3    3    0    0  0.66611609564E+01  0.11120490246E+02  0.73032494266E+01  0.14878636397E+02  0.51100000000E-03 0.  1.
         12    1    3    3    0    0  0.10663840378E+02  0.12709588729E+02  0.57064345427E+01  0.17544643982E+02  0.00000000000E+00 0. -1.
</event>
<event>
 7    1  0.5317846E-010  0.4778727E+02  0.7816164E-02  0.1312668E+00
        -11   -1    0    0    0    0  0.00000000000E+00  0.00000000000E+00  0.45593999997E+02  0.45594000000E+02  0.51100000000E-03 0. -1.
         11   -1    0    0    0    0 -0.00000000000E+00 -0.00000000000E+00 -0.45593999997E+02  0.45594000000E+02  0.51100000000E-03 0.  1.
    9900012    2    1    2    0    0 -0.36760726407E+02  0.20219808831E+02 -0.11109966899E+02  0.47787273743E+02  0.20000012303E+02 0.  0.
         12    1    1    2    0    0  0.36760726407E+02 -0.20219808831E+02  0.11109966899E+02  0.43400726257E+02  0.00000000000E+00 0. -1.
         11    1    3    3    0    0 -0.23250622095E+02  0.80531167087E+01  0.92578414044E+00  0.24623184056E+02  0.51100000000E-03 0. -1.
        -11    1    3    3    0    0 -0.14005713615E+02  0.12763928943E+02 -0.11149736511E+02  0.21986234795E+02  0.51100000000E-03 0.  1.
        -12    1    3    3    0    0  0.49560930324E+00 -0.59723682055E+00 -0.88601452782E+00  0.11778548912E+01  0.00000000000E+00 0.  1.
</event>
<event>
 7    1  0.5317846E-010  0.4778728E+02  0.7816164E-02  0.1312668E+00
        -11   -1    0    0    0    0  0.00000000000E+00  0.00000000000E+00  0.45593999997E+02  0.45594000000E+02  0.51100000000E-03 0.  1.
         11   -1    0    0    0    0 -0.00000000000E+00 -0.00000000000E+00 -0.45593999997E+02  0.45594000000E+02  0.51100000000E-03 0. -1.
    9900012    2    1    2    0    0  0.29836018059E+00 -0.24706247794E+02  0.35681013673E+02  0.47787280702E+02  0.20000044032E+02 0.  0.
         12    1    1    2    0    0 -0.29836018059E+00  0.24706247794E+02 -0.35681013673E+02  0.43400719298E+02  0.00000000000E+00 0. -1.
         11    1    3    3    0    0  0.36577738717E+01 -0.11819328694E+02  0.64310387512E+01  0.13943962857E+02  0.51100000000E-03 0. -1.
        -11    1    3    3    0    0 -0.13259362121E+01 -0.10106711898E+02  0.28567848020E+02  0.30331924980E+02  0.51100000000E-03 0.  1.
         12    1    3    3    0    0 -0.20334774790E+01 -0.27802072025E+01  0.68212690231E+00  0.35113928657E+01  0.00000000000E+00 0. -1.
</event>
<event>
 7    1  0.5317846E-010  0.4778727E+02  0.7816164E-02  0.1312668E+00
        -11   -1    0    0    0    0  0.00000000000E+00  0.00000000000E+00  0.45593999997E+02  0.45594000000E+02  0.51100000000E-03 0.  1.
         11   -1    0    0    0    0 -0.00000000000E+00 -0.00000000000E+00 -0.45593999997E+02  0.45594000000E+02  0.51100000000E-03 0. -1.
    9900012    2    1    2    0    0  0.13359642131E+02 -0.83122777360E+01  0.40448107702E+02  0.47787269410E+02  0.19999992549E+02 0.  0.
         12    1    1    2    0    0 -0.13359642131E+02  0.83122777360E+01 -0.40448107702E+02  0.43400730590E+02  0.00000000000E+00 0. -1.
         11    1    3    3    0    0  0.56919439584E+01 -0.10040054661E+01  0.31481108757E+01  0.65815541743E+01  0.51100000000E-03 0. -1.
        -11    1    3    3    0    0  0.50089136138E+01 -0.94822506005E+01  0.35950151339E+02  0.37515539095E+02  0.51100000000E-03 0.  1.
        -12    1    3    3    0    0  0.26587845586E+01  0.21739783306E+01  0.13498454879E+01  0.36901761411E+01  0.00000000000E+00 0.  1.
</event>
<event>
 7    1  0.5317846E-010  0.4778727E+02  0.7816164E-02  0.1312668E+00
        -11   -1    0    0    0    0  0.00000000000E+00  0.00000000000E+00  0.45593999997E+02  0.45594000000E+02  0.51100000000E-03 0. -1.
         11   -1    0    0    0    0 -0.00000000000E+00 -0.00000000000E+00 -0.45593999997E+02  0.45594000000E+02  0.51100000000E-03 0.  1.
    9900012    2    1    2    0    0  0.33913197041E+02  0.98192195098E+01  0.25240863526E+02  0.47787271932E+02  0.20000004047E+02 0.  0.
         12    1    1    2    0    0 -0.33913197041E+02 -0.98192195098E+01 -0.25240863526E+02  0.43400728068E+02  0.00000000000E+00 0. -1.
         11    1    3    3    0    0  0.98055260206E+00  0.63348648499E+01  0.41887824760E+01  0.76575384403E+01  0.51100000000E-03 0. -1.
        -11    1    3    3    0    0  0.16758765142E+02 -0.24121000740E+01  0.97921478869E+01  0.19559156330E+02  0.51100000000E-03 0.  1.
        -12    1    3    3    0    0  0.16173879296E+02  0.58964547339E+01  0.11259933163E+02  0.20570577161E+02  0.00000000000E+00 0.  1.
</event>
<event>
 7    1  0.5317846E-010  0.4778728E+02  0.7816164E-02  0.1312668E+00
        -11   -1    0    0    0    0  0.00000000000E+00  0.00000000000E+00  0.45593999997E+02  0.45594000000E+02  0.51100000000E-03 0.  1.
         11   -1    0    0    0    0 -0.00000000000E+00 -0.00000000000E+00 -0.45593999997E+02  0.45594000000E+02  0.51100000000E-03 0. -1.
    9900012    2    1    2    0    0  0.27687755995E+02  0.18426062138E+02  0.27883525038E+02  0.47787279194E+02  0.20000037158E+02 0.  0.
         12    1    1    2    0    0 -0.27687755995E+02 -0.18426062138E+02 -0.27883525038E+02  0.43400720806E+02  0.00000000000E+00 0. -1.
         11    1    3    3    0    0  0.18828660314E+02  0.12484969839E+02  0.82822048297E+01  0.24062166116E+02  0.51100000000E-03 0. -1.
        -11    1    3    3    0    0  0.30672727020E+01  0.68371705646E+01  0.11502269383E+02  0.13727973790E+02  0.51100000000E-03 0.  1.
         12    1    3    3    0    0  0.57918229793E+01 -0.89607826572E+00  0.80990508245E+01  0.99971392878E+01  0.00000000000E+00 0. -1.
</event>
<event>
 7    1  0.5317846E-010  0.4778727E+02  0.7816164E-02  0.1312668E+00
        -11   -1    0    0    0    0  0.00000000000E+00  0.00000000000E+00  0.45593999997E+02  0.45594000000E+02  0.51100000000E-03 0. -1.
         11   -1    0    0    0    0 -0.00000000000E+00 -0.00000000000E+00 -0.45593999997E+02  0.45594000000E+02  0.51100000000E-03 0.  1.
    9900012    2    1    2    0    0 -0.15204245447E+02 -0.36941164289E+02 -0.16964805561E+02  0.47787270440E+02  0.19999997242E+02 0.  0.
         12    1    1    2    0    0  0.15204245447E+02  0.36941164289E+02  0.16964805561E+02  0.43400729560E+02  0.00000000000E+00 0. -1.
         11    1    3    3    0    0 -0.56770597651E+01 -0.13523105655E+01 -0.12053094262E+01  0.59590706084E+01  0.51100000000E-03 0. -1.
        -11    1    3    3    0    0 -0.98339381093E+01 -0.36490848903E+02 -0.15399865937E+02  0.40809854980E+02  0.51100000000E-03 0.  1.
        -12    1    3    3    0    0  0.30675242691E+00  0.90199517952E+00 -0.35963019861E+00  0.10183448507E+01  0.00000000000E+00 0.  1.
</event>
<event>
 7    1  0.5317846E-010  0.4778727E+02  0.7816164E-02  0.1312668E+00
        -11   -1    0    0    0    0  0.00000000000E+00  0.00000000000E+00  0.45593999997E+02  0.45594000000E+02  0.51100000000E-03 0. -1.
         11   -1    0    0    0    0 -0.00000000000E+00 -0.00000000000E+00 -0.45593999997E+02  0.45594000000E+02  0.51100000000E-03 0.  1.
    9900012    2    1    2    0    0  0.18490791097E+02 -0.27782769772E+02 -0.27745842087E+02  0.47787269537E+02  0.19999993129E+02 0.  0.
         12    1    1    2    0    0 -0.18490791097E+02  0.27782769772E+02  0.27745842087E+02  0.43400730463E+02  0.00000000000E+00 0. -1.
         11    1    3    3    0    0  0.18529157021E+02 -0.13360253140E+02 -0.15489421366E+02  0.27599786202E+02  0.51100000000E-03 0. -1.
        -11    1    3    3    0    0 -0.12801563963E+01 -0.47134555516E+01 -0.82990169521E+01  0.96295974095E+01  0.51100000000E-03 0.  1.
         12    1    3    3    0    0  0.12417904721E+01 -0.97090610806E+01 -0.39574037680E+01  0.10557885926E+02  0.00000000000E+00 0. -1.
</event>
<event>
 7    1  0.5317846E-010  0.4778727E+02  0.7816164E-02  0.1312668E+00
        -11   -1    0    0    0    0  0.00000000000E+00  0.00000000000E+00  0.45593999997E+02  0.45594000000E+02  0.51100000000E-03 0.  1.
         11   -1    0    0    0    0 -0.00000000000E+00 -0.00000000000E+00 -0.45593999997E+02  0.45594000000E+02  0.51100000000E-03 0. -1.
    9900012    2    1    2    0    0 -0.33097428380E+02 -0.19892604391E+02  0.19810792101E+02  0.47787274678E+02  0.20000016565E+02 0.  0.
         12    1    1    2    0    0  0.33097428380E+02  0.19892604391E+02 -0.19810792101E+02  0.43400725322E+02  0.00000000000E+00 0. -1.
         11    1    3    3    0    0 -0.51360888158E+01 -0.43523172886E+01 -0.15986297394E+01  0.69193707380E+01  0.51100000000E-03 0. -1.
        -11    1    3    3    0    0 -0.19214697251E+02 -0.12393002400E+02  0.21762202654E+02  0.31565559769E+02  0.51100000000E-03 0.  1.
        -12    1    3    3    0    0 -0.87466423137E+01 -0.31472847028E+01 -0.35278081392E+00  0.93023441706E+01  0.00000000000E+00 0.  1.
</event>
<event>
 7    1  0.5317846E-010  0.4778725E+02  0.7816164E-02  0.1312668E+00
        -11   -1    0    0    0    0  0.00000000000E+00  0.00000000000E+00  0.45593999997E+02  0.45594000000E+02  0.51100000000E-03 0.  1.
         11   -1    0    0    0    0 -0.00000000000E+00 -0.00000000000E+00 -0.45593999997E+02  0.45594000000E+02  0.51100000000E-03 0. -1.
    9900012    2    1    2    0    0 -0.16997412470E+02  0.32513795356E+01  0.39801270996E+02  0.47787254932E+02  0.19999926537E+02 0.  0.
         12    1    1    2    0    0  0.16997412470E+02 -0.32513795356E+01 -0.39801270996E+02  0.43400745068E+02  0.00000000000E+00 0. -1.
         11    1    3    3    0    0 -0.51970077449E+01 -0.48172108008E+01  0.27936975750E+02  0.28821676282E+02  0.51100000000E-03 0. -1.
        -11    1    3    3    0    0 -0.10994977903E+02  0.64300049116E+01  0.11370772741E+02  0.17074219608E+02  0.51100000000E-03 0.  1.
         12    1    3    3    0    0 -0.80542682208E+00  0.16385854248E+01  0.49352250483E+00  0.18913590412E+01  0.00000000000E+00 0. -1.
</event>
<event>
 7    1  0.5317846E-010  0.4778727E+02  0.7816164E-02  0.1312668E+00
        -11   -1    0    0    0    0  0.00000000000E+00  0.00000000000E+00  0.45593999997E+02  0.45594000000E+02  0.51100000000E-03 0. -1.
         11   -1    0    0    0    0 -0.00000000000E+00 -0.00000000000E+00 -0.45593999997E+02  0.45594000000E+02  0.51100000000E-03 0.  1.
    9900012    2    1    2    0    0  0.20744199191E+02 -0.66148783174E+01 -0.37543904871E+02  0.47787271801E+02  0.20000003451E+02 0.  0.
         12    1    1    2    0    0 -0.20744199191E+02  0.66148783174E+01  0.37543904871E+02  0.43400728199E+02  0.00000000000E+00 0. -1.
         11    1    3    3    0    0  0.58901452089E-01  0.14139551792E+01 -0.16357345584E+02  0.16418449788E+02  0.51100000000E-03 0. -1.
        -11    1    3    3    0    0  0.13620103311E+02 -0.26816580652E+01 -0.10051357999E+02  0.17138503495E+02  0.51100000000E-03 0.  1.
         12    1    3    3    0    0  0.70651944280E+01 -0.53471754314E+01 -0.11135201288E+02  0.14230318518E+02  0.00000000000E+00 0. -1.
</event>
<event>
 7    1  0.5317846E-010  0.4778727E+02  0.7816164E-02  0.1312668E+00
        -11   -1    0    0    0    0  0.00000000000E+00  0.00000000000E+00  0.45593999997E+02  0.45594000000E+02  0.51100000000E-03 0.  1.
         11   -1    0    0    0    0 -0.00000000000E+00 -0.00000000000E+00 -0.45593999997E+02  0.45594000000E+02  0.51100000000E-03 0. -1.
    9900012    2    1    2    0    0  0.23583063850E+02 -0.34531482045E+02  0.11620631222E+02  0.47787271633E+02  0.20000002684E+02 0.  0.
         12    1    1    2    0    0 -0.23583063850E+02  0.34531482045E+02 -0.11620631222E+02  0.43400728367E+02  0.00000000000E+00 0. -1.
         11    1    3    3    0    0  0.47417172379E+01 -0.15736434237E+02 -0.15850202951E+01  0.16511557602E+02  0.51100000000E-03 0. -1.
        -11    1    3    3    0    0  0.43003433609E+01 -0.29129595606E-02  0.37383484596E+01  0.56980883613E+01  0.51100000000E-03 0.  1.
        -12    1    3    3    0    0  0.14541003251E+02 -0.18792134849E+02  0.94673030577E+01  0.25577625670E+02  0.00000000000E+00 0.  1.
</event>
<event>
 7    1  0.5317846E-010  0.4778727E+02  0.7816164E-02  0.1312668E+00
        -11   -1    0    0    0    0  0.00000000000E+00  0.00000000000E+00  0.45593999997E+02  0.45594000000E+02  0.51100000000E-03 0.  1.
         11   -1    0    0    0    0 -0.00000000000E+00 -0.00000000000E+00 -0.45593999997E+02  0.45594000000E+02  0.51100000000E-03 0. -1.
    9900012    2    1    2    0    0  0.23180019568E+02  0.33098515627E+02  0.15836614252E+02  0.47787269650E+02  0.19999993644E+02 0.  0.
         12    1    1    2    0    0 -0.23180019568E+02 -0.33098515627E+02 -0.15836614252E+02  0.43400730350E+02  0.00000000000E+00 0. -1.
         11    1    3    3    0    0  0.17972228820E+02  0.21624244742E+02  0.18836060656E+02  0.33843849526E+02  0.51100000000E-03 0. -1.
        -11    1    3    3    0    0  0.10199350866E+00  0.62312165252E+01 -0.69444649643E+00  0.62706234345E+01  0.51100000000E-03 0.  1.
         12    1    3    3    0    0  0.51057972394E+01  0.52430543603E+01 -0.23049999078E+01  0.76727966902E+01  0.00000000000E+00 0. -1.
</event>
<event>
 7    1  0.5317846E-010  0.4778727E+02  0.7816164E-02  0.1312668E+00
        -11   -1    0    0    0    0  0.00000000000E+00  0.00000000000E+00  0.45593999997E+02  0.45594000000E+02  0.51100000000E-03 0.  1.
         11   -1    0    0    0    0 -0.00000000000E+00 -0.00000000000E+00 -0.45593999997E+02  0.45594000000E+02  0.51100000000E-03 0. -1.
    9900012    2    1    2    0    0 -0.21033339352E+02 -0.10939851595E+01  0.37947661476E+02  0.47787272133E+02  0.20000004965E+02 0.  0.
         12    1    1    2    0    0  0.21033339352E+02  0.10939851595E+01 -0.37947661476E+02  0.43400727867E+02  0.00000000000E+00 0. -1.
         11    1    3    3    0    0 -0.11734921206E+01  0.47472426971E+01  0.22137020957E+01  0.53678556437E+01  0.51100000000E-03 0. -1.
        -11    1    3    3    0    0 -0.41798690797E+01 -0.55835524479E+01  0.13717045697E+02  0.15388460169E+02  0.51100000000E-03 0.  1.
         12    1    3    3    0    0 -0.15679978152E+02 -0.25767540869E+00  0.22016913684E+02  0.27030956321E+02  0.00000000000E+00 0. -1.
</event>
<event>
 7    1  0.5317846E-010  0.4778727E+02  0.7816164E-02  0.1312668E+00
        -11   -1    0    0    0    0  0.00000000000E+00  0.00000000000E+00  0.45593999997E+02  0.45594000000E+02  0.51100000000E-03 0.  1.
         11   -1    0    0    0    0 -0.00000000000E+00 -0.00000000000E+00 -0.45593999997E+02  0.45594000000E+02  0.51100000000E-03 0. -1.
    9900012    2    1    2    0    0 -0.10244653369E+01  0.37524719323E+02  0.21782313990E+02  0.47787270832E+02  0.19999999033E+02 0.  0.
         12    1    1    2    0    0  0.10244653369E+01 -0.37524719323E+02 -0.21782313990E+02  0.43400729168E+02  0.00000000000E+00 0. -1.
         11    1    3    3    0    0  0.79683574513E+01  0.15871304542E+02  0.55230261369E+01  0.18598302243E+02  0.51100000000E-03 0. -1.
        -11    1    3    3    0    0 -0.77527824083E+01  0.21173556959E+02  0.13922024552E+02  0.26499960703E+02  0.51100000000E-03 0.  1.
         12    1    3    3    0    0 -0.12400403799E+01  0.47985782188E+00  0.23372633015E+01  0.26890078864E+01  0.00000000000E+00 0. -1.
</event>
<event>
 7    1  0.5317846E-010  0.4778727E+02  0.7816164E-02  0.1312668E+00
        -11   -1    0    0    0    0  0.00000000000E+00  0.00000000000E+00  0.45593999997E+02  0.45594000000E+02  0.51100000000E-03 0.  1.
         11   -1    0    0    0    0 -0.00000000000E+00 -0.00000000000E+00 -0.45593999997E+02  0.45594000000E+02  0.51100000000E-03 0. -1.
    9900012    2    1    2    0    0  0.87554200989E+01  0.35634987072E+02  0.23175719435E+02  0.47787266641E+02  0.19999979925E+02 0.  0.
         12    1    1    2    0    0 -0.87554200989E+01 -0.35634987072E+02 -0.23175719435E+02  0.43400733359E+02  0.00000000000E+00 0. -1.
         11    1    3    3    0    0  0.95201666984E+00  0.36544320955E+01 -0.48229391600E+00  0.38070746463E+01  0.51100000000E-03 0. -1.
        -11    1    3    3    0    0 -0.32971680195E+01  0.37690573230E+00  0.37779726304E+01  0.50285636456E+01  0.51100000000E-03 0.  1.
        -12    1    3    3    0    0  0.11100571449E+02  0.31603649245E+02  0.19880040720E+02  0.38951628350E+02  0.00000000000E+00 0.  1.
</event>
<event>
 7    1  0.5317846E-010  0.4778730E+02  0.7816164E-02  0.1312668E+00
        -11   -1    0    0    0    0  0.00000000000E+00  0.00000000000E+00  0.45593999997E+02  0.45594000000E+02  0.51100000000E-03 0.  1.
         11   -1    0    0    0    0 -0.00000000000E+00 -0.00000000000E+00 -0.45593999997E+02  0.45594000000E+02  0.51100000000E-03 0. -1.
    9900012    2    1    2    0    0 -0.23428573159E+02 -0.11005760443E+02  0.34836700675E+02  0.47787302804E+02  0.20000144804E+02 0.  0.
         12    1    1    2    0    0  0.23428573159E+02  0.11005760443E+02 -0.34836700675E+02  0.43400697196E+02  0.00000000000E+00 0. -1.
         11    1    3    3    0    0 -0.24499628295E+02 -0.45986201991E+01  0.29184818064E+02  0.38381410866E+02  0.51100000000E-03 0.  1.
        -11    1    3    3    0    0  0.14405670220E+01 -0.60982983899E+01  0.61022467779E+01  0.87465360341E+01  0.51100000000E-03 0. -1.
        -12    1    3    3    0    0 -0.36951188630E+00 -0.30884185368E+00 -0.45036416768E+00  0.65935590407E+00  0.00000000000E+00 0.  1.
</event>
<event>
 7    1  0.5317846E-010  0.4778727E+02  0.7816164E-02  0.1312668E+00
        -11   -1    0    0    0    0  0.00000000000E+00  0.00000000000E+00  0.45593999997E+02  0.45594000000E+02  0.51100000000E-03 0.  1.
         11   -1    0    0    0    0 -0.00000000000E+00 -0.00000000000E+00 -0.45593999997E+02  0.45594000000E+02  0.51100000000E-03 0. -1.
    9900012    2    1    2    0    0  0.32710881827E+02 -0.28501456376E+02  0.11351766619E+01  0.47787269228E+02  0.19999991720E+02 0.  0.
         12    1    1    2    0    0 -0.32710881827E+02  0.28501456376E+02 -0.11351766619E+01  0.43400730772E+02  0.00000000000E+00 0. -1.
         11    1    3    3    0    0  0.10552769847E+02 -0.18676083289E+02  0.55528252658E+01  0.22158314628E+02  0.51100000000E-03 0. -1.
        -11    1    3    3    0    0  0.66432130955E+01 -0.65450774257E+01 -0.77396170277E+00  0.93578488831E+01  0.51100000000E-03 0.  1.
         12    1    3    3    0    0  0.15514898884E+02 -0.32802956610E+01 -0.36436869012E+01  0.16271105717E+02  0.00000000000E+00 0. -1.
</event>
<event>
 7    1  0.6999625E-010  0.4778727E+02  0.7816164E-02  0.1312668E+00
        -11   -1    0    0    0    0  0.00000000000E+00  0.00000000000E+00  0.45593999997E+02  0.45594000000E+02  0.51100000000E-03 0.  1.
         11   -1    0    0    0    0 -0.00000000000E+00 -0.00000000000E+00 -0.45593999997E+02  0.45594000000E+02  0.51100000000E-03 0. -1.
    9900012    2    1    2    0    0 -0.40409273979E+02  0.14985648883E+02 -0.51131578247E+01  0.47787268683E+02  0.19999989232E+02 0.  0.
         12    1    1    2    0    0  0.40409273979E+02 -0.14985648883E+02  0.51131578247E+01  0.43400731317E+02  0.00000000000E+00 0. -1.
         11    1    3    3    0    0 -0.41021157683E+01  0.76972385009E+01  0.11675963204E+01  0.87998929394E+01  0.51100000000E-03 0. -1.
        -11    1    3    3    0    0 -0.28357578079E+02  0.79438327845E+01 -0.10876484583E+01  0.29469300861E+02  0.51100000000E-03 0.  1.
         12    1    3    3    0    0 -0.79495801312E+01 -0.65542240216E+00 -0.51931056868E+01  0.95180748821E+01  0.00000000000E+00 0. -1.
</event>
<event>
 7    1  0.5317846E-010  0.4778727E+02  0.7816164E-02  0.1312668E+00
        -11   -1    0    0    0    0  0.00000000000E+00  0.00000000000E+00  0.45593999997E+02  0.45594000000E+02  0.51100000000E-03 0.  1.
         11   -1    0    0    0    0 -0.00000000000E+00 -0.00000000000E+00 -0.45593999997E+02  0.45594000000E+02  0.51100000000E-03 0. -1.
    9900012    2    1    2    0    0  0.25281235367E+02 -0.27082043921E+02  0.22606308225E+02  0.47787272630E+02  0.20000007231E+02 0.  0.
         12    1    1    2    0    0 -0.25281235367E+02  0.27082043921E+02 -0.22606308225E+02  0.43400727370E+02  0.00000000000E+00 0. -1.
         11    1    3    3    0    0  0.12294041156E+02 -0.22575532436E+01  0.63387559531E+01  0.14014985619E+02  0.51100000000E-03 0. -1.
        -11    1    3    3    0    0  0.12184877355E+02 -0.14538546875E+02  0.81573802099E+01  0.20649054059E+02  0.51100000000E-03 0.  1.
         12    1    3    3    0    0  0.80231685599E+00 -0.10285943802E+02  0.81101720623E+01  0.13123232952E+02  0.00000000000E+00 0. -1.
</event>
<event>
 7    1  0.5317846E-010  0.4778727E+02  0.7816164E-02  0.1312668E+00
        -11   -1    0    0    0    0  0.00000000000E+00  0.00000000000E+00  0.45593999997E+02  0.45594000000E+02  0.51100000000E-03 0. -1.
         11   -1    0    0    0    0 -0.00000000000E+00 -0.00000000000E+00 -0.45593999997E+02  0.45594000000E+02  0.51100000000E-03 0.  1.
    9900012    2    1    2    0    0 -0.39714357880E+02 -0.17430773890E+02  0.16004174564E+01  0.47787269174E+02  0.19999991471E+02 0.  0.
         12    1    1    2    0    0  0.39714357880E+02  0.17430773890E+02 -0.16004174564E+01  0.43400730826E+02  0.00000000000E+00 0. -1.
         11    1    3    3    0    0 -0.27333724592E+02 -0.12394356581E+02  0.84182351239E+01  0.31170807785E+02  0.51100000000E-03 0. -1.
        -11    1    3    3    0    0 -0.81851196073E+01 -0.22165366011E+01 -0.45793033319E+00  0.84922857901E+01  0.51100000000E-03 0.  1.
         12    1    3    3    0    0 -0.41955136809E+01 -0.28198807080E+01 -0.63598873343E+01  0.81241755987E+01  0.00000000000E+00 0. -1.
</event>
<event>
 7    1  0.5317846E-010  0.4778727E+02  0.7816164E-02  0.1312668E+00
        -11   -1    0    0    0    0  0.00000000000E+00  0.00000000000E+00  0.45593999997E+02  0.45594000000E+02  0.51100000000E-03 0. -1.
         11   -1    0    0    0    0 -0.00000000000E+00 -0.00000000000E+00 -0.45593999997E+02  0.45594000000E+02  0.51100000000E-03 0.  1.
    9900012    2    1    2    0    0 -0.37670057011E+02 -0.20464138266E+02  0.67682509916E+01  0.47787269918E+02  0.19999994862E+02 0.  0.
         12    1    1    2    0    0  0.37670057011E+02  0.20464138266E+02 -0.67682509916E+01  0.43400730082E+02  0.00000000000E+00 0. -1.
         11    1    3    3    0    0  0.10495279286E+01 -0.16059333322E+01  0.61564071959E+00  0.20148311337E+01  0.51100000000E-03 0. -1.
        -11    1    3    3    0    0 -0.39610166521E+02 -0.19280009343E+02  0.68260154804E+01  0.44578902405E+02  0.51100000000E-03 0.  1.
        -12    1    3    3    0    0  0.89058158150E+00  0.42180440830E+00 -0.67340520833E+00  0.11935363785E+01  0.00000000000E+00 0.  1.
</event>
<event>
 7    1  0.5317846E-010  0.4778727E+02  0.7816164E-02  0.1312668E+00
        -11   -1    0    0    0    0  0.00000000000E+00  0.00000000000E+00  0.45593999997E+02  0.45594000000E+02  0.51100000000E-03 0.  1.
         11   -1    0    0    0    0 -0.00000000000E+00 -0.00000000000E+00 -0.45593999997E+02  0.45594000000E+02  0.51100000000E-03 0. -1.
    9900012    2    1    2    0    0 -0.22270710841E+01  0.78470425376E+01  0.42627307893E+02  0.47787270739E+02  0.19999998608E+02 0.  0.
         12    1    1    2    0    0  0.22270710841E+01 -0.78470425376E+01 -0.42627307893E+02  0.43400729261E+02  0.00000000000E+00 0. -1.
         11    1    3    3    0    0 -0.34296749187E+01  0.16891007233E+01  0.37820845959E+01  0.53777221435E+01  0.51100000000E-03 0. -1.
        -11    1    3    3    0    0 -0.59414464798E+01  0.28350158350E+00  0.25420232438E+02  0.26106883707E+02  0.51100000000E-03 0.  1.
        -12    1    3    3    0    0  0.71440503143E+01  0.58744402308E+01  0.13424990858E+02  0.16302664888E+02  0.00000000000E+00 0.  1.
</event>
<event>
 7    1  0.5317846E-010  0.4778727E+02  0.7816164E-02  0.1312668E+00
        -11   -1    0    0    0    0  0.00000000000E+00  0.00000000000E+00  0.45593999997E+02  0.45594000000E+02  0.51100000000E-03 0.  1.
         11   -1    0    0    0    0 -0.00000000000E+00 -0.00000000000E+00 -0.45593999997E+02  0.45594000000E+02  0.51100000000E-03 0. -1.
    9900012    2    1    2    0    0  0.18581181540E+02  0.31571686557E+02  0.23272114366E+02  0.47787274125E+02  0.20000014043E+02 0.  0.
         12    1    1    2    0    0 -0.18581181540E+02 -0.31571686557E+02 -0.23272114366E+02  0.43400725875E+02  0.00000000000E+00 0. -1.
         11    1    3    3    0    0  0.97536742009E+01  0.95820388967E+01  0.53223607734E+01  0.14672326138E+02  0.51100000000E-03 0. -1.
        -11    1    3    3    0    0 -0.18552815770E+01  0.40030504099E+01  0.96463547787E+01  0.10607480525E+02  0.51100000000E-03 0.  1.
        -12    1    3    3    0    0  0.10682788916E+02  0.17986597250E+02  0.83033988137E+01  0.22507467461E+02  0.00000000000E+00 0.  1.
</event>
<event>
 7    1  0.5317846E-010  0.4778727E+02  0.7816164E-02  0.1312668E+00
        -11   -1    0    0    0    0  0.00000000000E+00  0.00000000000E+00  0.45593999997E+02  0.45594000000E+02  0.51100000000E-03 0.  1.
         11   -1    0    0    0    0 -0.00000000000E+00 -0.00000000000E+00 -0.45593999997E+02  0.45594000000E+02  0.51100000000E-03 0. -1.
    9900012    2    1    2    0    0 -0.98490697648E+01  0.42216183771E+02  0.21006276042E+01  0.47787274387E+02  0.20000015240E+02 0.  0.
         12    1    1    2    0    0  0.98490697648E+01 -0.42216183771E+02 -0.21006276042E+01  0.43400725613E+02  0.00000000000E+00 0. -1.
         11    1    3    3    0    0 -0.33719285281E+01  0.15561965605E+02 -0.49593656370E+01  0.16677529292E+02  0.51100000000E-03 0.  1.
        -11    1    3    3    0    0 -0.80873539184E+01  0.10432682085E+02  0.67029359303E+01  0.14804576969E+02  0.51100000000E-03 0. -1.
         12    1    3    3    0    0  0.16102126816E+01  0.16221536081E+02  0.35705731086E+00  0.16305168127E+02  0.00000000000E+00 0. -1.
</event>
<event>
 7    1  0.5317846E-010  0.4778727E+02  0.7816164E-02  0.1312668E+00
        -11   -1    0    0    0    0  0.00000000000E+00  0.00000000000E+00  0.45593999997E+02  0.45594000000E+02  0.51100000000E-03 0.  1.
         11   -1    0    0    0    0 -0.00000000000E+00 -0.00000000000E+00 -0.45593999997E+02  0.45594000000E+02  0.51100000000E-03 0. -1.
    9900012    2    1    2    0    0  0.32396318339E+02  0.79688705582E+01  0.27759664230E+02  0.47787270766E+02  0.19999998728E+02 0.  0.
         12    1    1    2    0    0 -0.32396318339E+02 -0.79688705582E+01 -0.27759664230E+02  0.43400729234E+02  0.00000000000E+00 0. -1.
         11    1    3    3    0    0  0.88745646090E+01  0.61232937749E+01  0.44119627953E+00  0.10791074000E+02  0.51100000000E-03 0. -1.
        -11    1    3    3    0    0  0.16545656425E+02 -0.23967482026E+01  0.19585937444E+02  0.25750962978E+02  0.51100000000E-03 0.  1.
         12    1    3    3    0    0  0.69760973055E+01  0.42423249859E+01  0.77325305070E+01  0.11245233788E+02  0.00000000000E+00 0. -1.
</event>
<event>
 7    1  0.5317846E-010  0.4778727E+02  0.7816164E-02  0.1312668E+00
        -11   -1    0    0    0    0  0.00000000000E+00  0.00000000000E+00  0.45593999997E+02  0.45594000000E+02  0.51100000000E-03 0. -1.
         11   -1    0    0    0    0 -0.00000000000E+00 -0.00000000000E+00 -0.45593999997E+02  0.45594000000E+02  0.51100000000E-03 0.  1.
    9900012    2    1    2    0    0  0.20042872818E+02 -0.12274629376E+02 -0.36486158453E+02  0.47787273787E+02  0.20000012505E+02 0.  0.
         12    1    1    2    0    0 -0.20042872818E+02  0.12274629376E+02  0.36486158453E+02  0.43400726213E+02  0.00000000000E+00 0. -1.
         11    1    3    3    0    0  0.44137454484E+01  0.43346422219E+01 -0.79309364764E+01  0.10058331160E+02  0.51100000000E-03 0. -1.
        -11    1    3    3    0    0  0.12492252876E+02 -0.10861354865E+02 -0.13674936811E+02  0.21471593059E+02  0.51100000000E-03 0.  1.
        -12    1    3    3    0    0  0.31368744934E+01 -0.57479167327E+01 -0.14880285166E+02  0.16257349568E+02  0.00000000000E+00 0.  1.
</event>
<event>
 7    1  0.5317846E-010  0.4778727E+02  0.7816164E-02  0.1312668E+00
        -11   -1    0    0    0    0  0.00000000000E+00  0.00000000000E+00  0.45593999997E+02  0.45594000000E+02  0.51100000000E-03 0.  1.
         11   -1    0    0    0    0 -0.00000000000E+00 -0.00000000000E+00 -0.45593999997E+02  0.45594000000E+02  0.51100000000E-03 0. -1.
    9900012    2    1    2    0    0 -0.15145885514E+02 -0.25452450063E+01  0.40592456019E+02  0.47787267220E+02  0.19999982564E+02 0.  0.
         12    1    1    2    0    0  0.15145885514E+02  0.25452450063E+01 -0.40592456019E+02  0.43400732780E+02  0.00000000000E+00 0. -1.
         11    1    3    3    0    0 -0.19676067983E+01 -0.96131268704E+01  0.18259190062E+02  0.20728765200E+02  0.51100000000E-03 0. -1.
        -11    1    3    3    0    0 -0.10525565182E+02  0.56068807934E+01  0.19781571789E+02  0.23098381271E+02  0.51100000000E-03 0.  1.
         12    1    3    3    0    0 -0.26527135335E+01  0.14610010707E+01  0.25516941680E+01  0.39601207490E+01  0.00000000000E+00 0. -1.
</event>
<event>
 7    1  0.5317846E-010  0.4778727E+02  0.7816164E-02  0.1312668E+00
        -11   -1    0    0    0    0  0.00000000000E+00  0.00000000000E+00  0.45593999997E+02  0.45594000000E+02  0.51100000000E-03 0.  1.
         11   -1    0    0    0    0 -0.00000000000E+00 -0.00000000000E+00 -0.45593999997E+02  0.45594000000E+02  0.51100000000E-03 0. -1.
    9900012    2    1    2    0    0 -0.16478498484E+02 -0.39083307400E+02 -0.91965882051E+01  0.47787273459E+02  0.20000011011E+02 0.  0.
         12    1    1    2    0    0  0.16478498484E+02  0.39083307400E+02  0.91965882051E+01  0.43400726541E+02  0.00000000000E+00 0. -1.
         11    1    3    3    0    0  0.81828982101E+00 -0.13613363180E+02 -0.31157340333E+01  0.13989319287E+02  0.51100000000E-03 0.  1.
        -11    1    3    3    0    0 -0.15131777258E+02 -0.17456742441E+02  0.65014468143E+00  0.23111279238E+02  0.51100000000E-03 0. -1.
         12    1    3    3    0    0 -0.21650110475E+01 -0.80132017791E+01 -0.67309988532E+01  0.10686674934E+02  0.00000000000E+00 0. -1.
</event>
<event>
 7    1  0.5317846E-010  0.4778727E+02  0.7816164E-02  0.1312668E+00
        -11   -1    0    0    0    0  0.00000000000E+00  0.00000000000E+00  0.45593999997E+02  0.45594000000E+02  0.51100000000E-03 0. -1.
         11   -1    0    0    0    0 -0.00000000000E+00 -0.00000000000E+00 -0.45593999997E+02  0.45594000000E+02  0.51100000000E-03 0.  1.
    9900012    2    1    2    0    0  0.29236148110E+02  0.31957585252E+02 -0.27538251509E+01  0.47787272305E+02  0.20000005748E+02 0.  0.
         12    1    1    2    0    0 -0.29236148110E+02 -0.31957585252E+02  0.27538251509E+01  0.43400727695E+02  0.00000000000E+00 0. -1.
         11    1    3    3    0    0  0.75806454338E+01  0.19147722354E+02 -0.45658080615E-01  0.20593774338E+02  0.51100000000E-03 0. -1.
        -11    1    3    3    0    0  0.18399687410E+02  0.64228189656E+01 -0.40373978579E+01  0.19902303434E+02  0.51100000000E-03 0.  1.
        -12    1    3    3    0    0  0.32558152670E+01  0.63870439321E+01  0.13292307877E+01  0.72911945338E+01  0.00000000000E+00 0.  1.
</event>
<event>
 7    1  0.5317846E-010  0.4778727E+02  0.7816164E-02  0.1312668E+00
        -11   -1    0    0    0    0  0.00000000000E+00  0.00000000000E+00  0.45593999997E+02  0.45594000000E+02  0.51100000000E-03 0.  1.
         11   -1    0    0    0    0 -0.00000000000E+00 -0.00000000000E+00 -0.45593999997E+02  0.45594000000E+02  0.51100000000E-03 0. -1.
    9900012    2    1    2    0    0 -0.29702892098E+02  0.30886597694E+02  0.68832820092E+01  0.47787270889E+02  0.19999999292E+02 0.  0.
         12    1    1    2    0    0  0.29702892098E+02 -0.30886597694E+02 -0.68832820092E+01  0.43400729111E+02  0.00000000000E+00 0. -1.
         11    1    3    3    0    0 -0.45286885502E+01  0.12469819580E+02 -0.48230330119E+01  0.14116198781E+02  0.51100000000E-03 0. -1.
        -11    1    3    3    0    0 -0.14534831257E+02  0.13510401261E+02  0.77737494274E+01  0.21312518442E+02  0.51100000000E-03 0.  1.
         12    1    3    3    0    0 -0.10639372291E+02  0.49063768539E+01  0.39325655938E+01  0.12358553666E+02  0.00000000000E+00 0. -1.
</event>
<event>
 7    1  0.5317846E-010  0.4778727E+02  0.7816164E-02  0.1312668E+00
        -11   -1    0    0    0    0  0.00000000000E+00  0.00000000000E+00  0.45593999997E+02  0.45594000000E+02  0.51100000000E-03 0.  1.
         11   -1    0    0    0    0 -0.00000000000E+00 -0.00000000000E+00 -0.45593999997E+02  0.45594000000E+02  0.51100000000E-03 0. -1.
    9900012    2    1    2    0    0 -0.20188044636E+02  0.35112269788E+02  0.15594704717E+02  0.47787269002E+02  0.19999990689E+02 0.  0.
         12    1    1    2    0    0  0.20188044636E+02 -0.35112269788E+02 -0.15594704717E+02  0.43400730998E+02  0.00000000000E+00 0. -1.
         11    1    3    3    0    0 -0.52498481878E+00  0.14817124783E+02  0.93201866496E+01  0.17512529096E+02  0.51100000000E-03 0. -1.
        -11    1    3    3    0    0 -0.17854159648E+02  0.16498461121E+02  0.21837386603E+01  0.24407764152E+02  0.51100000000E-03 0.  1.
        -12    1    3    3    0    0 -0.18089001689E+01  0.37966838847E+01  0.40907794075E+01  0.58669757543E+01  0.00000000000E+00 0.  1.
</event>
<event>
 7    1  0.5317846E-010  0.4778727E+02  0.7816164E-02  0.1312668E+00
        -11   -1    0    0    0    0  0.00000000000E+00  0.00000000000E+00  0.45593999997E+02  0.45594000000E+02  0.51100000000E-03 0.  1.
         11   -1    0    0    0    0 -0.00000000000E+00 -0.00000000000E+00 -0.45593999997E+02  0.45594000000E+02  0.51100000000E-03 0. -1.
    9900012    2    1    2    0    0  0.33940461915E+02  0.18741951321E+02  0.19504038941E+02  0.47787271558E+02  0.20000002342E+02 0.  0.
         12    1    1    2    0    0 -0.33940461915E+02 -0.18741951321E+02 -0.19504038941E+02  0.43400728442E+02  0.00000000000E+00 0. -1.
         11    1    3    3    0    0  0.13370284545E+02  0.17810552742E+01  0.79086901273E+00  0.13511555823E+02  0.51100000000E-03 0. -1.
        -11    1    3    3    0    0  0.90622595944E+01  0.12940646493E+02  0.66974086514E+01  0.17159258828E+02  0.51100000000E-03 0.  1.
        -12    1    3    3    0    0  0.11507917775E+02  0.40202495534E+01  0.12015761277E+02  0.17116456907E+02  0.00000000000E+00 0.  1.
</event>
<event>
 7    1  0.5317846E-010  0.4778727E+02  0.7816164E-02  0.1312668E+00
        -11   -1    0    0    0    0  0.00000000000E+00  0.00000000000E+00  0.45593999997E+02  0.45594000000E+02  0.51100000000E-03 0. -1.
         11   -1    0    0    0    0 -0.00000000000E+00 -0.00000000000E+00 -0.45593999997E+02  0.45594000000E+02  0.51100000000E-03 0.  1.
    9900012    2    1    2    0    0  0.58427473545E+00 -0.43142356927E+02 -0.46924346163E+01  0.47787270964E+02  0.19999999634E+02 0.  0.
         12    1    1    2    0    0 -0.58427473545E+00  0.43142356927E+02  0.46924346163E+01  0.43400729036E+02  0.00000000000E+00 0. -1.
         11    1    3    3    0    0  0.76228013698E+01 -0.13148486851E+02  0.32314704889E+01  0.15538088975E+02  0.51100000000E-03 0. -1.
        -11    1    3    3    0    0 -0.53104107765E+01 -0.14243622115E+02 -0.57659025111E+01  0.16258132291E+02  0.51100000000E-03 0.  1.
        -12    1    3    3    0    0 -0.17281158579E+01 -0.15750247961E+02 -0.21580025941E+01  0.15991049698E+02  0.00000000000E+00 0.  1.
</event>
<event>
 7    1  0.5317846E-010  0.4778727E+02  0.7816164E-02  0.1312668E+00
        -11   -1    0    0    0    0  0.00000000000E+00  0.00000000000E+00  0.45593999997E+02  0.45594000000E+02  0.51100000000E-03 0.  1.
         11   -1    0    0    0    0 -0.00000000000E+00 -0.00000000000E+00 -0.45593999997E+02  0.45594000000E+02  0.51100000000E-03 0. -1.
    9900012    2    1    2    0    0 -0.36745726354E+02 -0.10566502213E+02  0.20535918764E+02  0.47787270355E+02  0.19999996856E+02 0.  0.
         12    1    1    2    0    0  0.36745726354E+02  0.10566502213E+02 -0.20535918764E+02  0.43400729645E+02  0.00000000000E+00 0. -1.
         11    1    3    3    0    0 -0.10611981950E+02  0.25119343790E+01 -0.61758981686E+00  0.10922700796E+02  0.51100000000E-03 0. -1.
        -11    1    3    3    0    0 -0.65632889831E+01 -0.72294726217E+01  0.70057611463E+01  0.12017600683E+02  0.51100000000E-03 0.  1.
         12    1    3    3    0    0 -0.19570455420E+02 -0.58489639704E+01  0.14147747434E+02  0.24846968877E+02  0.00000000000E+00 0. -1.
</event>
<event>
 7    1  0.5317846E-010  0.4778726E+02  0.7816164E-02  0.1312668E+00
        -11   -1    0    0    0    0  0.00000000000E+00  0.00000000000E+00  0.45593999997E+02  0.45594000000E+02  0.51100000000E-03 0. -1.
         11   -1    0    0    0    0 -0.00000000000E+00 -0.00000000000E+00 -0.45593999997E+02  0.45594000000E+02  0.51100000000E-03 0.  1.
    9900012    2    1    2    0    0  0.22846724181E+02 -0.30824077321E+02  0.20286146485E+02  0.47787259364E+02  0.19999946746E+02 0.  0.
         12    1    1    2    0    0 -0.22846724181E+02  0.30824077321E+02 -0.20286146485E+02  0.43400740636E+02  0.00000000000E+00 0. -1.
         11    1    3    3    0    0 -0.15015620254E+01 -0.10853520926E+01  0.62341690247E+01  0.65036560003E+01  0.51100000000E-03 0. -1.
        -11    1    3    3    0    0  0.97174892006E+01 -0.15993750899E+02  0.59742137577E+01  0.19644869418E+02  0.51100000000E-03 0.  1.
         12    1    3    3    0    0  0.14630797006E+02 -0.13744974330E+02  0.80777637027E+01  0.21638733946E+02  0.00000000000E+00 0. -1.
</event>
<event>
 7    1  0.5317846E-010  0.4778728E+02  0.7816164E-02  0.1312668E+00
        -11   -1    0    0    0    0  0.00000000000E+00  0.00000000000E+00  0.45593999997E+02  0.45594000000E+02  0.51100000000E-03 0.  1.
         11   -1    0    0    0    0 -0.00000000000E+00 -0.00000000000E+00 -0.45593999997E+02  0.45594000000E+02  0.51100000000E-03 0. -1.
    9900012    2    1    2    0    0  0.16332364021E+02 -0.39788458160E+02 -0.58099156391E+01  0.47787278382E+02  0.20000033455E+02 0.  0.
         12    1    1    2    0    0 -0.16332364021E+02  0.39788458160E+02  0.58099156391E+01  0.43400721618E+02  0.00000000000E+00 0. -1.
         11    1    3    3    0    0 -0.14626552520E+01  0.15730662139E+01  0.18383778630E+00  0.21558511758E+01  0.51100000000E-03 0. -1.
        -11    1    3    3    0    0  0.17209145202E+02 -0.38851196150E+02 -0.65512079160E+01  0.42994051290E+02  0.51100000000E-03 0.  1.
        -12    1    3    3    0    0  0.58587407143E+00 -0.25103282232E+01  0.55745449068E+00  0.26373759165E+01  0.00000000000E+00 0.  1.
</event>
<event>
 7    1  0.5317846E-010  0.4778727E+02  0.7816164E-02  0.1312668E+00
        -11   -1    0    0    0    0  0.00000000000E+00  0.00000000000E+00  0.45593999997E+02  0.45594000000E+02  0.51100000000E-03 0. -1.
         11   -1    0    0    0    0 -0.00000000000E+00 -0.00000000000E+00 -0.45593999997E+02  0.45594000000E+02  0.51100000000E-03 0.  1.
    9900012    2    1    2    0    0  0.37991413370E+02 -0.20510391116E+02 -0.44271560217E+01  0.47787270237E+02  0.19999996317E+02 0.  0.
         12    1    1    2    0    0 -0.37991413370E+02  0.20510391116E+02  0.44271560217E+01  0.43400729763E+02  0.00000000000E+00 0. -1.
         11    1    3    3    0    0  0.93635320295E+01 -0.10251977916E+02 -0.76628020372E+01  0.15858666986E+02  0.51100000000E-03 0. -1.
        -11    1    3    3    0    0  0.11483314545E+02 -0.38860814426E+00  0.39032865469E+01  0.12134791937E+02  0.51100000000E-03 0.  1.
         12    1    3    3    0    0  0.17144566795E+02 -0.98698050553E+01 -0.66764053131E+00  0.19793811313E+02  0.00000000000E+00 0. -1.
</event>
<event>
 7    1  0.5317846E-010  0.4778727E+02  0.7816164E-02  0.1312668E+00
        -11   -1    0    0    0    0  0.00000000000E+00  0.00000000000E+00  0.45593999997E+02  0.45594000000E+02  0.51100000000E-03 0.  1.
         11   -1    0    0    0    0 -0.00000000000E+00 -0.00000000000E+00 -0.45593999997E+02  0.45594000000E+02  0.51100000000E-03 0. -1.
    9900012    2    1    2    0    0 -0.25002933389E+02 -0.35052021209E+02  0.54619356718E+01  0.47787267171E+02  0.19999982338E+02 0.  0.
         12    1    1    2    0    0  0.25002933389E+02  0.35052021209E+02 -0.54619356718E+01  0.43400732829E+02  0.00000000000E+00 0. -1.
         11    1    3    3    0    0  0.25238503901E+00 -0.21086387390E+01 -0.27802938721E+01  0.34985839729E+01  0.51100000000E-03 0. -1.
        -11    1    3    3    0    0 -0.18519997581E+02 -0.29701746869E+02  0.29432520048E+01  0.35126155641E+02  0.51100000000E-03 0.  1.
        -12    1    3    3    0    0 -0.67353208465E+01 -0.32416356006E+01  0.52989775391E+01  0.91625275570E+01  0.00000000000E+00 0.  1.
</event>
<event>
 7    1  0.5317846E-010  0.4778726E+02  0.7816164E-02  0.1312668E+00
        -11   -1    0    0    0    0  0.00000000000E+00  0.00000000000E+00  0.45593999997E+02  0.45594000000E+02  0.51100000000E-03 0.  1.
         11   -1    0    0    0    0 -0.00000000000E+00 -0.00000000000E+00 -0.45593999997E+02  0.45594000000E+02  0.51100000000E-03 0. -1.
    9900012    2    1    2    0    0  0.30531796752E+01  0.38830005921E+02  0.19145041729E+02  0.47787263961E+02  0.19999967703E+02 0.  0.
         12    1    1    2    0    0 -0.30531796752E+01 -0.38830005921E+02 -0.19145041729E+02  0.43400736039E+02  0.00000000000E+00 0. -1.
         11    1    3    3    0    0 -0.18779491400E+01  0.31221671366E+02  0.10062398788E+02  0.32856830728E+02  0.51100000000E-03 0. -1.
        -11    1    3    3    0    0  0.15365268080E+01  0.75399308785E+01  0.36324736117E+01  0.85091913297E+01  0.51100000000E-03 0.  1.
         12    1    3    3    0    0  0.33946020072E+01  0.68403675609E-01  0.54501693299E+01  0.64212419029E+01  0.00000000000E+00 0. -1.
</event>
<event>
 7    1  0.5317846E-010  0.4778727E+02  0.7816164E-02  0.1312668E+00
        -11   -1    0    0    0    0  0.00000000000E+00  0.00000000000E+00  0.45593999997E+02  0.45594000000E+02  0.51100000000E-03 0.  1.
         11   -1    0    0    0    0 -0.00000000000E+00 -0.00000000000E+00 -0.45593999997E+02  0.45594000000E+02  0.51100000000E-03 0. -1.
    9900012    2    1    2    0    0  0.88885371154E+01  0.20079990834E+02  0.37435423953E+02  0.47787273157E+02  0.20000009633E+02 0.  0.
         12    1    1    2    0    0 -0.88885371154E+01 -0.20079990834E+02 -0.37435423953E+02  0.43400726843E+02  0.00000000000E+00 0. -1.
         11    1    3    3    0    0  0.32000033623E+01  0.18445899281E+00  0.73278026352E+00  0.32880106165E+01  0.51100000000E-03 0. -1.
        -11    1    3    3    0    0  0.41471864310E+01  0.19159161116E+02  0.37720991694E+02  0.42510537806E+02  0.51100000000E-03 0.  1.
        -12    1    3    3    0    0  0.15413473221E+01  0.73637072480E+00 -0.10183480042E+01  0.19887247345E+01  0.00000000000E+00 0.  1.
</event>
<event>
 7    1  0.5317846E-010  0.4778727E+02  0.7816164E-02  0.1312668E+00
        -11   -1    0    0    0    0  0.00000000000E+00  0.00000000000E+00  0.45593999997E+02  0.45594000000E+02  0.51100000000E-03 0. -1.
         11   -1    0    0    0    0 -0.00000000000E+00 -0.00000000000E+00 -0.45593999997E+02  0.45594000000E+02  0.51100000000E-03 0.  1.
    9900012    2    1    2    0    0 -0.64033309276E+01  0.41455500926E+02  0.11138316980E+02  0.47787270638E+02  0.19999998148E+02 0.  0.
         12    1    1    2    0    0  0.64033309276E+01 -0.41455500926E+02 -0.11138316980E+02  0.43400729362E+02  0.00000000000E+00 0. -1.
         11    1    3    3    0    0 -0.67863309560E+01  0.94679522702E+01 -0.19783685587E+00  0.11650559974E+02  0.51100000000E-03 0.  1.
        -11    1    3    3    0    0 -0.39431038826E+01  0.88708444368E+01  0.75889908415E+01  0.12322042505E+02  0.51100000000E-03 0. -1.
         12    1    3    3    0    0  0.43261039110E+01  0.23116704219E+02  0.37471629946E+01  0.23814668158E+02  0.00000000000E+00 0. -1.
</event>
<event>
 7    1  0.5317846E-010  0.4778727E+02  0.7816164E-02  0.1312668E+00
        -11   -1    0    0    0    0  0.00000000000E+00  0.00000000000E+00  0.45593999997E+02  0.45594000000E+02  0.51100000000E-03 0.  1.
         11   -1    0    0    0    0 -0.00000000000E+00 -0.00000000000E+00 -0.45593999997E+02  0.45594000000E+02  0.51100000000E-03 0. -1.
    9900012    2    1    2    0    0  0.62213224480E+00 -0.17090295846E+02  0.39889323815E+02  0.47787269418E+02  0.19999992584E+02 0.  0.
         12    1    1    2    0    0 -0.62213224480E+00  0.17090295846E+02 -0.39889323815E+02  0.43400730582E+02  0.00000000000E+00 0. -1.
         11    1    3    3    0    0 -0.10140788020E-01  0.29391199366E+01  0.90500310146E+01  0.95153344904E+01  0.51100000000E-03 0. -1.
        -11    1    3    3    0    0 -0.32416584717E+01 -0.14213517164E+02  0.25877785117E+02  0.29701720197E+02  0.51100000000E-03 0.  1.
        -12    1    3    3    0    0  0.38739315045E+01 -0.58158986179E+01  0.49615076836E+01  0.85702147306E+01  0.00000000000E+00 0.  1.
</event>
<event>
 7    1  0.5317846E-010  0.4778728E+02  0.7816164E-02  0.1312668E+00
        -11   -1    0    0    0    0  0.00000000000E+00  0.00000000000E+00  0.45593999997E+02  0.45594000000E+02  0.51100000000E-03 0.  1.
         11   -1    0    0    0    0 -0.00000000000E+00 -0.00000000000E+00 -0.45593999997E+02  0.45594000000E+02  0.51100000000E-03 0. -1.
    9900012    2    1    2    0    0  0.39667379328E+02  0.98531316931E+00  0.17582682480E+02  0.47787279407E+02  0.20000038129E+02 0.  0.
         12    1    1    2    0    0 -0.39667379328E+02 -0.98531316931E+00 -0.17582682480E+02  0.43400720593E+02  0.00000000000E+00 0. -1.
         11    1    3    3    0    0  0.26881994003E+02  0.23457742321E+01  0.66320667386E+01  0.27787201511E+02  0.51100000000E-03 0. -1.
        -11    1    3    3    0    0  0.12082077291E+02 -0.37114742279E+01  0.11908687241E+02  0.17365726725E+02  0.51100000000E-03 0.  1.
         12    1    3    3    0    0  0.70330803337E+00  0.23510131650E+01 -0.95807149984E+00  0.26343511707E+01  0.00000000000E+00 0. -1.
</event>
<event>
 7    1  0.5317846E-010  0.4778727E+02  0.7816164E-02  0.1312668E+00
        -11   -1    0    0    0    0  0.00000000000E+00  0.00000000000E+00  0.45593999997E+02  0.45594000000E+02  0.51100000000E-03 0.  1.
         11   -1    0    0    0    0 -0.00000000000E+00 -0.00000000000E+00 -0.45593999997E+02  0.45594000000E+02  0.51100000000E-03 0. -1.
    9900012    2    1    2    0    0  0.42828555632E+02  0.29514975427E+01 -0.63739161294E+01  0.47787270489E+02  0.19999997466E+02 0.  0.
         12    1    1    2    0    0 -0.42828555632E+02 -0.29514975427E+01  0.63739161294E+01  0.43400729511E+02  0.00000000000E+00 0. -1.
         11    1    3    3    0    0  0.26403260917E+02  0.70732108325E+00 -0.96234178100E+01  0.28111255055E+02  0.51100000000E-03 0. -1.
        -11    1    3    3    0    0  0.10639488180E+02  0.34490319519E+01  0.64949145227E+01  0.12933616859E+02  0.51100000000E-03 0.  1.
         12    1    3    3    0    0  0.57858065349E+01 -0.12048554924E+01 -0.32454128422E+01  0.67423985742E+01  0.00000000000E+00 0. -1.
</event>
<event>
 7    1  0.5317846E-010  0.4778727E+02  0.7816164E-02  0.1312668E+00
        -11   -1    0    0    0    0  0.00000000000E+00  0.00000000000E+00  0.45593999997E+02  0.45594000000E+02  0.51100000000E-03 0. -1.
         11   -1    0    0    0    0 -0.00000000000E+00 -0.00000000000E+00 -0.45593999997E+02  0.45594000000E+02  0.51100000000E-03 0.  1.
    9900012    2    1    2    0    0  0.35230589017E+02 -0.11360484756E+02 -0.22657628389E+02  0.47787272580E+02  0.20000007002E+02 0.  0.
         12    1    1    2    0    0 -0.35230589017E+02  0.11360484756E+02  0.22657628389E+02  0.43400727420E+02  0.00000000000E+00 0. -1.
         11    1    3    3    0    0  0.41294730423E+01 -0.48005591355E+01  0.17260304039E+01  0.65633144703E+01  0.51100000000E-03 0. -1.
        -11    1    3    3    0    0  0.14982787094E+02 -0.85024150205E-01 -0.16054793991E+02  0.21960135440E+02  0.51100000000E-03 0.  1.
        -12    1    3    3    0    0  0.16118328881E+02 -0.64749014699E+01 -0.83288648020E+01  0.19263822670E+02  0.00000000000E+00 0.  1.
</event>
<event>
 7    1  0.5317846E-010  0.4778726E+02  0.7816164E-02  0.1312668E+00
        -11   -1    0    0    0    0  0.00000000000E+00  0.00000000000E+00  0.45593999997E+02  0.45594000000E+02  0.51100000000E-03 0.  1.
         11   -1    0    0    0    0 -0.00000000000E+00 -0.00000000000E+00 -0.45593999997E+02  0.45594000000E+02  0.51100000000E-03 0. -1.
    9900012    2    1    2    0    0 -0.40246678895E+02  0.11694522541E+02  0.11272391284E+02  0.47787264698E+02  0.19999971063E+02 0.  0.
         12    1    1    2    0    0  0.40246678895E+02 -0.11694522541E+02 -0.11272391284E+02  0.43400735302E+02  0.00000000000E+00 0. -1.
         11    1    3    3    0    0 -0.30572777464E+01  0.18870668949E+01  0.48471772591E+01  0.60334978518E+01  0.51100000000E-03 0.  1.
        -11    1    3    3    0    0 -0.12478081950E+02 -0.27423206242E+01 -0.16595406921E+01  0.12883203294E+02  0.51100000000E-03 0. -1.
        -12    1    3    3    0    0 -0.24711319198E+02  0.12549776270E+02  0.80847547172E+01  0.28870563552E+02  0.00000000000E+00 0.  1.
</event>
<event>
 7    1  0.5317846E-010  0.4778727E+02  0.7816164E-02  0.1312668E+00
        -11   -1    0    0    0    0  0.00000000000E+00  0.00000000000E+00  0.45593999997E+02  0.45594000000E+02  0.51100000000E-03 0.  1.
         11   -1    0    0    0    0 -0.00000000000E+00 -0.00000000000E+00 -0.45593999997E+02  0.45594000000E+02  0.51100000000E-03 0. -1.
    9900012    2    1    2    0    0 -0.25314865106E+02  0.12033311004E+02  0.33135790833E+02  0.47787267250E+02  0.19999982701E+02 0.  0.
         12    1    1    2    0    0  0.25314865106E+02 -0.12033311004E+02 -0.33135790833E+02  0.43400732750E+02  0.00000000000E+00 0. -1.
         11    1    3    3    0    0 -0.13153587162E+01  0.86098226873E+01  0.12409536649E+02  0.15160996516E+02  0.51100000000E-03 0.  1.
        -11    1    3    3    0    0 -0.95664632708E+01 -0.14097626637E+01  0.56332930259E+01  0.11191007142E+02  0.51100000000E-03 0. -1.
        -12    1    3    3    0    0 -0.14433043119E+02  0.48332509809E+01  0.15092961158E+02  0.21435263592E+02  0.00000000000E+00 0.  1.
</event>
<event>
 7    1  0.5317846E-010  0.4778727E+02  0.7816164E-02  0.1312668E+00
        -11   -1    0    0    0    0  0.00000000000E+00  0.00000000000E+00  0.45593999997E+02  0.45594000000E+02  0.51100000000E-03 0. -1.
         11   -1    0    0    0    0 -0.00000000000E+00 -0.00000000000E+00 -0.45593999997E+02  0.45594000000E+02  0.51100000000E-03 0.  1.
    9900012    2    1    2    0    0  0.23765528352E+02  0.35540930948E+02 -0.74609239822E+01  0.47787268472E+02  0.19999988271E+02 0.  0.
         12    1    1    2    0    0 -0.23765528352E+02 -0.35540930948E+02  0.74609239822E+01  0.43400731528E+02  0.00000000000E+00 0. -1.
         11    1    3    3    0    0  0.35009933738E+01  0.11173525080E+02  0.45042010564E+01  0.12545614562E+02  0.51100000000E-03 0. -1.
        -11    1    3    3    0    0  0.11553659627E+02  0.15329828880E+02 -0.12095086972E+02  0.22688804142E+02  0.51100000000E-03 0.  1.
        -12    1    3    3    0    0  0.87108753509E+01  0.90375769890E+01  0.12996193345E+00  0.12552849769E+02  0.00000000000E+00 0.  1.
</event>
<event>
 7    1  0.5317846E-010  0.4778726E+02  0.7816164E-02  0.1312668E+00
        -11   -1    0    0    0    0  0.00000000000E+00  0.00000000000E+00  0.45593999997E+02  0.45594000000E+02  0.51100000000E-03 0.  1.
         11   -1    0    0    0    0 -0.00000000000E+00 -0.00000000000E+00 -0.45593999997E+02  0.45594000000E+02  0.51100000000E-03 0. -1.
    9900012    2    1    2    0    0  0.58587205037E+01 -0.35805920341E+02 -0.23816711698E+02  0.47787259298E+02  0.19999946443E+02 0.  0.
         12    1    1    2    0    0 -0.58587205037E+01  0.35805920341E+02  0.23816711698E+02  0.43400740702E+02  0.00000000000E+00 0. -1.
         11    1    3    3    0    0  0.66340801457E+01 -0.15768461893E+02 -0.14148101508E+02  0.22199643835E+02  0.51100000000E-03 0. -1.
        -11    1    3    3    0    0  0.19608398963E+01 -0.16923255316E+02 -0.11993486694E+02  0.20834711107E+02  0.51100000000E-03 0.  1.
         12    1    3    3    0    0 -0.27361995382E+01 -0.31142031317E+01  0.23248765038E+01  0.47529043559E+01  0.00000000000E+00 0. -1.
</event>
<event>
 7    1  0.5317846E-010  0.4778727E+02  0.7816164E-02  0.1312668E+00
        -11   -1    0    0    0    0  0.00000000000E+00  0.00000000000E+00  0.45593999997E+02  0.45594000000E+02  0.51100000000E-03 0.  1.
         11   -1    0    0    0    0 -0.00000000000E+00 -0.00000000000E+00 -0.45593999997E+02  0.45594000000E+02  0.51100000000E-03 0. -1.
    9900012    2    1    2    0    0 -0.11433673368E+02 -0.20411248954E+00  0.41867089896E+02  0.47787265387E+02  0.19999974205E+02 0.  0.
         12    1    1    2    0    0  0.11433673368E+02  0.20411248954E+00 -0.41867089896E+02  0.43400734613E+02  0.00000000000E+00 0. -1.
         11    1    3    3    0    0 -0.11145380582E+02 -0.65195953913E+01  0.17068192789E+02  0.21402052185E+02  0.51100000000E-03 0. -1.
        -11    1    3    3    0    0 -0.15015909792E+01  0.22836579277E+01  0.25385057290E+01  0.37301314450E+01  0.51100000000E-03 0.  1.
         12    1    3    3    0    0  0.12132981927E+01  0.40318249741E+01  0.22260391377E+02  0.22655081757E+02  0.00000000000E+00 0. -1.
</event>
<event>
 7    1  0.5317846E-010  0.4778727E+02  0.7816164E-02  0.1312668E+00
        -11   -1    0    0    0    0  0.00000000000E+00  0.00000000000E+00  0.45593999997E+02  0.45594000000E+02  0.51100000000E-03 0.  1.
         11   -1    0    0    0    0 -0.00000000000E+00 -0.00000000000E+00 -0.45593999997E+02  0.45594000000E+02  0.51100000000E-03 0. -1.
    9900012    2    1    2    0    0  0.32877486388E+02  0.86324452361E+01  0.26984712516E+02  0.47787274989E+02  0.20000017984E+02 0.  0.
         12    1    1    2    0    0 -0.32877486388E+02 -0.86324452361E+01 -0.26984712516E+02  0.43400725011E+02  0.00000000000E+00 0. -1.
         11    1    3    3    0    0  0.52403265500E+01  0.33818731208E+01  0.23882846348E+01  0.66784722739E+01  0.51100000000E-03 0. -1.
        -11    1    3    3    0    0 -0.13430606755E+01  0.13181024602E+01 -0.10983354775E+01  0.21788866781E+01  0.51100000000E-03 0.  1.
        -12    1    3    3    0    0  0.28980220513E+02  0.39324696551E+01  0.25694763359E+02  0.38929916037E+02  0.00000000000E+00 0.  1.
</event>
<event>
 7    1  0.5317846E-010  0.4778727E+02  0.7816164E-02  0.1312668E+00
        -11   -1    0    0    0    0  0.00000000000E+00  0.00000000000E+00  0.45593999997E+02  0.45594000000E+02  0.51100000000E-03 0.  1.
         11   -1    0    0    0    0 -0.00000000000E+00 -0.00000000000E+00 -0.45593999997E+02  0.45594000000E+02  0.51100000000E-03 0. -1.
    9900012    2    1    2    0    0 -0.84936996933E+00  0.50041854147E+01  0.43102900361E+02  0.47787270507E+02  0.19999997549E+02 0.  0.
         12    1    1    2    0    0  0.84936996933E+00 -0.50041854147E+01 -0.43102900361E+02  0.43400729493E+02  0.00000000000E+00 0. -1.
         11    1    3    3    0    0 -0.46051742560E+01 -0.67380546101E+00  0.97670506700E+00  0.47555858500E+01  0.51100000000E-03 0. -1.
        -11    1    3    3    0    0 -0.39683906996E+00  0.31733391063E+01  0.25888542735E+02  0.26085325520E+02  0.51100000000E-03 0.  1.
         12    1    3    3    0    0  0.41526433567E+01  0.25046517694E+01  0.16237652560E+02  0.16946359136E+02  0.00000000000E+00 0. -1.
</event>
<event>
 7    1  0.5317846E-010  0.4778727E+02  0.7816164E-02  0.1312668E+00
        -11   -1    0    0    0    0  0.00000000000E+00  0.00000000000E+00  0.45593999997E+02  0.45594000000E+02  0.51100000000E-03 0.  1.
         11   -1    0    0    0    0 -0.00000000000E+00 -0.00000000000E+00 -0.45593999997E+02  0.45594000000E+02  0.51100000000E-03 0. -1.
    9900012    2    1    2    0    0 -0.13786024031E+02 -0.39564996031E+02  0.11321651647E+02  0.47787272292E+02  0.20000005690E+02 0.  0.
         12    1    1    2    0    0  0.13786024031E+02  0.39564996031E+02 -0.11321651647E+02  0.43400727708E+02  0.00000000000E+00 0. -1.
         11    1    3    3    0    0  0.13324226699E+01 -0.18123883046E+01  0.41430911812E+01  0.47143723161E+01  0.51100000000E-03 0. -1.
        -11    1    3    3    0    0 -0.16891450818E+02 -0.29288330193E+02  0.52968096460E+01  0.34222559649E+02  0.51100000000E-03 0.  1.
        -12    1    3    3    0    0  0.17730041171E+01 -0.84642775335E+01  0.18817508194E+01  0.88503403274E+01  0.00000000000E+00 0.  1.
</event>
<event>
 7    1  0.5317846E-010  0.4778727E+02  0.7816164E-02  0.1312668E+00
        -11   -1    0    0    0    0  0.00000000000E+00  0.00000000000E+00  0.45593999997E+02  0.45594000000E+02  0.51100000000E-03 0.  1.
         11   -1    0    0    0    0 -0.00000000000E+00 -0.00000000000E+00 -0.45593999997E+02  0.45594000000E+02  0.51100000000E-03 0. -1.
    9900012    2    1    2    0    0 -0.21677426134E+02  0.36661291477E+02 -0.83463855165E+01  0.47787271346E+02  0.20000001373E+02 0.  0.
         12    1    1    2    0    0  0.21677426134E+02 -0.36661291477E+02  0.83463855165E+01  0.43400728654E+02  0.00000000000E+00 0. -1.
         11    1    3    3    0    0 -0.30494345426E+01  0.52583402161E+01 -0.15379878581E+01  0.62701355464E+01  0.51100000000E-03 0. -1.
        -11    1    3    3    0    0 -0.10256939567E+02  0.92617605608E+01 -0.10765288425E+02  0.17517889516E+02  0.51100000000E-03 0.  1.
        -12    1    3    3    0    0 -0.83710520239E+01  0.22141190700E+02  0.39568907667E+01  0.23999246283E+02  0.00000000000E+00 0.  1.
</event>
<event>
 7    1  0.5317846E-010  0.4778727E+02  0.7816164E-02  0.1312668E+00
        -11   -1    0    0    0    0  0.00000000000E+00  0.00000000000E+00  0.45593999997E+02  0.45594000000E+02  0.51100000000E-03 0. -1.
         11   -1    0    0    0    0 -0.00000000000E+00 -0.00000000000E+00 -0.45593999997E+02  0.45594000000E+02  0.51100000000E-03 0.  1.
    9900012    2    1    2    0    0  0.35182554459E+02 -0.12873177628E+02 -0.21911019781E+02  0.47787266961E+02  0.19999981383E+02 0.  0.
         12    1    1    2    0    0 -0.35182554459E+02  0.12873177628E+02  0.21911019781E+02  0.43400733039E+02  0.00000000000E+00 0. -1.
         11    1    3    3    0    0  0.34706237191E+01  0.14887945273E+01 -0.11203739678E+01  0.39391593308E+01  0.51100000000E-03 0. -1.
        -11    1    3    3    0    0  0.30579175901E+02 -0.80276044870E+01 -0.19887333590E+02  0.37350160243E+02  0.51100000000E-03 0.  1.
        -12    1    3    3    0    0  0.11327548383E+01 -0.63343676682E+01 -0.90331222301E+00  0.64979473876E+01  0.00000000000E+00 0.  1.
</event>
<event>
 7    1  0.5317846E-010  0.4778727E+02  0.7816164E-02  0.1312668E+00
        -11   -1    0    0    0    0  0.00000000000E+00  0.00000000000E+00  0.45593999997E+02  0.45594000000E+02  0.51100000000E-03 0.  1.
         11   -1    0    0    0    0 -0.00000000000E+00 -0.00000000000E+00 -0.45593999997E+02  0.45594000000E+02  0.51100000000E-03 0. -1.
    9900012    2    1    2    0    0  0.21904033783E+02  0.19091349522E+02  0.32239057977E+02  0.47787272106E+02  0.20000004839E+02 0.  0.
         12    1    1    2    0    0 -0.21904033783E+02 -0.19091349522E+02 -0.32239057977E+02  0.43400727894E+02  0.00000000000E+00 0. -1.
         11    1    3    3    0    0  0.11023460705E+01  0.92704811263E+01  0.44264077625E+01  0.10331992698E+02  0.51100000000E-03 0. -1.
        -11    1    3    3    0    0  0.16729118556E+02  0.84932605922E+01  0.27322403956E+02  0.33143817543E+02  0.51100000000E-03 0.  1.
         12    1    3    3    0    0  0.40725691567E+01  0.13276078031E+01  0.49024625830E+00  0.43114618644E+01  0.00000000000E+00 0. -1.
</event>
<event>
 7    1  0.5317846E-010  0.4778727E+02  0.7816164E-02  0.1312668E+00
        -11   -1    0    0    0    0  0.00000000000E+00  0.00000000000E+00  0.45593999997E+02  0.45594000000E+02  0.51100000000E-03 0.  1.
         11   -1    0    0    0    0 -0.00000000000E+00 -0.00000000000E+00 -0.45593999997E+02  0.45594000000E+02  0.51100000000E-03 0. -1.
    9900012    2    1    2    0    0 -0.39754834713E+01 -0.37433272328E+02  0.21600204024E+02  0.47787272357E+02  0.20000005986E+02 0.  0.
         12    1    1    2    0    0  0.39754834713E+01  0.37433272328E+02 -0.21600204024E+02  0.43400727643E+02  0.00000000000E+00 0. -1.
         11    1    3    3    0    0  0.71368919769E-01 -0.23428029062E+01  0.68597970864E+01  0.72491816991E+01  0.51100000000E-03 0. -1.
        -11    1    3    3    0    0 -0.34467148806E+01 -0.34619510961E+02  0.16585296761E+02  0.38541697570E+02  0.51100000000E-03 0.  1.
        -12    1    3    3    0    0 -0.60013751042E+00 -0.47095846079E+00 -0.18448898231E+01  0.19963930882E+01  0.00000000000E+00 0.  1.
</event>
<event>
 7    1  0.5317846E-010  0.4778727E+02  0.7816164E-02  0.1312668E+00
        -11   -1    0    0    0    0  0.00000000000E+00  0.00000000000E+00  0.45593999997E+02  0.45594000000E+02  0.51100000000E-03 0. -1.
         11   -1    0    0    0    0 -0.00000000000E+00 -0.00000000000E+00 -0.45593999997E+02  0.45594000000E+02  0.51100000000E-03 0.  1.
    9900012    2    1    2    0    0  0.26432586319E+02  0.26745211074E+02 -0.21671081744E+02  0.47787265918E+02  0.19999976626E+02 0.  0.
         12    1    1    2    0    0 -0.26432586319E+02 -0.26745211074E+02  0.21671081744E+02  0.43400734082E+02  0.00000000000E+00 0. -1.
         11    1    3    3    0    0  0.27574857279E+00  0.21664309529E+01 -0.44861279505E+01  0.49894693705E+01  0.51100000000E-03 0. -1.
        -11    1    3    3    0    0  0.25550321226E+02  0.19693512893E+02 -0.94244676272E+01  0.33607647271E+02  0.51100000000E-03 0.  1.
        -12    1    3    3    0    0  0.60651652036E+00  0.48852672285E+01 -0.77604861663E+01  0.91901492763E+01  0.00000000000E+00 0.  1.
</event>
<event>
 7    1  0.5317846E-010  0.4778727E+02  0.7816164E-02  0.1312668E+00
        -11   -1    0    0    0    0  0.00000000000E+00  0.00000000000E+00  0.45593999997E+02  0.45594000000E+02  0.51100000000E-03 0.  1.
         11   -1    0    0    0    0 -0.00000000000E+00 -0.00000000000E+00 -0.45593999997E+02  0.45594000000E+02  0.51100000000E-03 0. -1.
    9900012    2    1    2    0    0  0.12505537863E+02  0.40293952875E+01  0.41364218117E+02  0.47787273692E+02  0.20000012073E+02 0.  0.
         12    1    1    2    0    0 -0.12505537863E+02 -0.40293952875E+01 -0.41364218117E+02  0.43400726308E+02  0.00000000000E+00 0. -1.
         11    1    3    3    0    0  0.29265026811E+01 -0.51914033858E+01  0.81518858192E+01  0.10097936905E+02  0.51100000000E-03 0. -1.
        -11    1    3    3    0    0  0.59000354120E+01  0.71400422643E+01  0.31968797590E+02  0.33283549105E+02  0.51100000000E-03 0.  1.
         12    1    3    3    0    0  0.36789997699E+01  0.20807564090E+01  0.12435347077E+01  0.44057876832E+01  0.00000000000E+00 0. -1.
</event>
<event>
 7    1  0.5317846E-010  0.4778727E+02  0.7816164E-02  0.1312668E+00
        -11   -1    0    0    0    0  0.00000000000E+00  0.00000000000E+00  0.45593999997E+02  0.45594000000E+02  0.51100000000E-03 0.  1.
         11   -1    0    0    0    0 -0.00000000000E+00 -0.00000000000E+00 -0.45593999997E+02  0.45594000000E+02  0.51100000000E-03 0. -1.
    9900012    2    1    2    0    0  0.22921916732E+02  0.21062465261E+02  0.30242055159E+02  0.47787267175E+02  0.19999982356E+02 0.  0.
         12    1    1    2    0    0 -0.22921916732E+02 -0.21062465261E+02 -0.30242055159E+02  0.43400732825E+02  0.00000000000E+00 0. -1.
         11    1    3    3    0    0  0.12398511614E+02  0.61650971089E+01  0.54143691926E+01  0.14867646304E+02  0.51100000000E-03 0. -1.
        -11    1    3    3    0    0  0.11445778828E+01  0.10088359836E+02  0.16961033777E+02  0.19767694094E+02  0.51100000000E-03 0.  1.
        -12    1    3    3    0    0  0.93788272352E+01  0.48090083162E+01  0.78666521885E+01  0.13151926777E+02  0.00000000000E+00 0.  1.
</event>
<event>
 7    1  0.5317846E-010  0.4778728E+02  0.7816164E-02  0.1312668E+00
        -11   -1    0    0    0    0  0.00000000000E+00  0.00000000000E+00  0.45593999997E+02  0.45594000000E+02  0.51100000000E-03 0.  1.
         11   -1    0    0    0    0 -0.00000000000E+00 -0.00000000000E+00 -0.45593999997E+02  0.45594000000E+02  0.51100000000E-03 0. -1.
    9900012    2    1    2    0    0 -0.32593268358E+02 -0.17585173246E+02  0.22628805638E+02  0.47787282207E+02  0.20000050893E+02 0.  0.
         12    1    1    2    0    0  0.32593268358E+02  0.17585173246E+02 -0.22628805638E+02  0.43400717793E+02  0.00000000000E+00 0. -1.
         11    1    3    3    0    0 -0.13093537269E+02 -0.14333436301E+02  0.37995251966E+01  0.19781923728E+02  0.51100000000E-03 0. -1.
        -11    1    3    3    0    0 -0.11753050338E+02 -0.40586052539E+01  0.14475018134E+02  0.19082259277E+02  0.51100000000E-03 0.  1.
         12    1    3    3    0    0 -0.77466807513E+01  0.80686830865E+00  0.43542623073E+01  0.89230992021E+01  0.00000000000E+00 0. -1.
</event>
<event>
 7    1  0.5317846E-010  0.4778727E+02  0.7816164E-02  0.1312668E+00
        -11   -1    0    0    0    0  0.00000000000E+00  0.00000000000E+00  0.45593999997E+02  0.45594000000E+02  0.51100000000E-03 0. -1.
         11   -1    0    0    0    0 -0.00000000000E+00 -0.00000000000E+00 -0.45593999997E+02  0.45594000000E+02  0.51100000000E-03 0.  1.
    9900012    2    1    2    0    0 -0.83781878551E+01  0.17156153947E+02 -0.38975577376E+02  0.47787270954E+02  0.19999999586E+02 0.  0.
         12    1    1    2    0    0  0.83781878551E+01 -0.17156153947E+02  0.38975577376E+02  0.43400729046E+02  0.00000000000E+00 0. -1.
         11    1    3    3    0    0 -0.56132877240E+01  0.40768609811E+01 -0.30634247593E+02  0.31409981222E+02  0.51100000000E-03 0. -1.
        -11    1    3    3    0    0 -0.35571059643E+01  0.66266687881E+01 -0.52942947127E+01  0.91975702680E+01  0.51100000000E-03 0.  1.
         12    1    3    3    0    0  0.79220583324E+00  0.64526241774E+01 -0.30470350703E+01  0.71797194636E+01  0.00000000000E+00 0. -1.
</event>
<event>
 7    1  0.5317846E-010  0.4778727E+02  0.7816164E-02  0.1312668E+00
        -11   -1    0    0    0    0  0.00000000000E+00  0.00000000000E+00  0.45593999997E+02  0.45594000000E+02  0.51100000000E-03 0. -1.
         11   -1    0    0    0    0 -0.00000000000E+00 -0.00000000000E+00 -0.45593999997E+02  0.45594000000E+02  0.51100000000E-03 0.  1.
    9900012    2    1    2    0    0  0.27247670666E+02  0.30035428490E+02 -0.15461592982E+02  0.47787269835E+02  0.19999994486E+02 0.  0.
         12    1    1    2    0    0 -0.27247670666E+02 -0.30035428490E+02  0.15461592982E+02  0.43400730165E+02  0.00000000000E+00 0. -1.
         11    1    3    3    0    0  0.12615008352E+02  0.14131616314E+02 -0.81452564149E+00  0.18960603040E+02  0.51100000000E-03 0. -1.
        -11    1    3    3    0    0  0.13366658050E+02  0.11056855265E+02 -0.16040766030E+02  0.23626844285E+02  0.51100000000E-03 0.  1.
        -12    1    3    3    0    0  0.12660042641E+01  0.48469569112E+01  0.13936986897E+01  0.51998225098E+01  0.00000000000E+00 0.  1.
</event>
<event>
 7    1  0.5317846E-010  0.4778727E+02  0.7816164E-02  0.1312668E+00
        -11   -1    0    0    0    0  0.00000000000E+00  0.00000000000E+00  0.45593999997E+02  0.45594000000E+02  0.51100000000E-03 0.  1.
         11   -1    0    0    0    0 -0.00000000000E+00 -0.00000000000E+00 -0.45593999997E+02  0.45594000000E+02  0.51100000000E-03 0. -1.
    9900012    2    1    2    0    0  0.36767132958E+02 -0.14601750707E+02  0.17849092767E+02  0.47787270717E+02  0.19999998509E+02 0.  0.
         12    1    1    2    0    0 -0.36767132958E+02  0.14601750707E+02 -0.17849092767E+02  0.43400729283E+02  0.00000000000E+00 0. -1.
         11    1    3    3    0    0  0.26646428148E+02 -0.15426971353E+02  0.94383169424E+01  0.32204120934E+02  0.51100000000E-03 0. -1.
        -11    1    3    3    0    0  0.51560941400E+01 -0.28600094549E+01  0.71595407470E+01  0.92749115808E+01  0.51100000000E-03 0.  1.
         12    1    3    3    0    0  0.49646106698E+01  0.36852301009E+01  0.12512350779E+01  0.63082382025E+01  0.00000000000E+00 0. -1.
</event>
<event>
 7    1  0.5317846E-010  0.4778727E+02  0.7816164E-02  0.1312668E+00
        -11   -1    0    0    0    0  0.00000000000E+00  0.00000000000E+00  0.45593999997E+02  0.45594000000E+02  0.51100000000E-03 0.  1.
         11   -1    0    0    0    0 -0.00000000000E+00 -0.00000000000E+00 -0.45593999997E+02  0.45594000000E+02  0.51100000000E-03 0. -1.
    9900012    2    1    2    0    0 -0.78127510320E+01  0.17664652234E+02  0.38865723044E+02  0.47787269074E+02  0.19999991015E+02 0.  0.
         12    1    1    2    0    0  0.78127510320E+01 -0.17664652234E+02 -0.38865723044E+02  0.43400730926E+02  0.00000000000E+00 0. -1.
         11    1    3    3    0    0  0.47359342426E+01  0.53164200964E+01  0.54371368105E+01  0.89585630962E+01  0.51100000000E-03 0. -1.
        -11    1    3    3    0    0 -0.98249904489E+01  0.48760831130E+01  0.13648752030E+02  0.17509855970E+02  0.51100000000E-03 0.  1.
         12    1    3    3    0    0 -0.27236948257E+01  0.74721490247E+01  0.19779834203E+02  0.21318850007E+02  0.00000000000E+00 0. -1.
</event>
<event>
 7    1  0.5317846E-010  0.4778727E+02  0.7816164E-02  0.1312668E+00
        -11   -1    0    0    0    0  0.00000000000E+00  0.00000000000E+00  0.45593999997E+02  0.45594000000E+02  0.51100000000E-03 0.  1.
         11   -1    0    0    0    0 -0.00000000000E+00 -0.00000000000E+00 -0.45593999997E+02  0.45594000000E+02  0.51100000000E-03 0. -1.
    9900012    2    1    2    0    0 -0.68268951160E+01  0.67424669545E+01  0.42326778047E+02  0.47787268469E+02  0.19999988258E+02 0.  0.
         12    1    1    2    0    0  0.68268951160E+01 -0.67424669545E+01 -0.42326778047E+02  0.43400731531E+02  0.00000000000E+00 0. -1.
         11    1    3    3    0    0  0.35070392850E+01  0.27372270640E+01  0.57699058904E+01  0.72858459215E+01  0.51100000000E-03 0. -1.
        -11    1    3    3    0    0 -0.11521851278E+02  0.57707981174E+01  0.36091706789E+02  0.38323184457E+02  0.51100000000E-03 0.  1.
        -12    1    3    3    0    0  0.11879168767E+01 -0.17655582270E+01  0.46516536822E+00  0.21782380904E+01  0.00000000000E+00 0.  1.
</event>
<event>
 7    1  0.6659836E-010  0.4778727E+02  0.7816164E-02  0.1312668E+00
        -11   -1    0    0    0    0  0.00000000000E+00  0.00000000000E+00  0.45593999997E+02  0.45594000000E+02  0.51100000000E-03 0. -1.
         11   -1    0    0    0    0 -0.00000000000E+00 -0.00000000000E+00 -0.45593999997E+02  0.45594000000E+02  0.51100000000E-03 0.  1.
    9900012    2    1    2    0    0 -0.27952806743E+02  0.62782019827E+01 -0.32601350600E+02  0.47787270906E+02  0.19999999369E+02 0.  0.
         12    1    1    2    0    0  0.27952806743E+02 -0.62782019827E+01  0.32601350600E+02  0.43400729094E+02  0.00000000000E+00 0. -1.
         11    1    3    3    0    0 -0.31680703067E+01  0.20822069068E+01  0.17275949074E+01  0.41661540413E+01  0.51100000000E-03 0. -1.
        -11    1    3    3    0    0 -0.21804120194E+02  0.41162811339E+01 -0.23213770632E+02  0.32112965840E+02  0.51100000000E-03 0.  1.
         12    1    3    3    0    0 -0.29806162414E+01  0.79713942049E-01 -0.11115174876E+02  0.11508151025E+02  0.00000000000E+00 0. -1.
</event>
<event>
 7    1  0.5317846E-010  0.4778728E+02  0.7816164E-02  0.1312668E+00
        -11   -1    0    0    0    0  0.00000000000E+00  0.00000000000E+00  0.45593999997E+02  0.45594000000E+02  0.51100000000E-03 0.  1.
         11   -1    0    0    0    0 -0.00000000000E+00 -0.00000000000E+00 -0.45593999997E+02  0.45594000000E+02  0.51100000000E-03 0. -1.
    9900012    2    1    2    0    0  0.21361952559E+02  0.17108433660E+02  0.33683696089E+02  0.47787275333E+02  0.20000019554E+02 0.  0.
         12    1    1    2    0    0 -0.21361952559E+02 -0.17108433660E+02 -0.33683696089E+02  0.43400724667E+02  0.00000000000E+00 0. -1.
         11    1    3    3    0    0  0.91209554184E+01 -0.32548715675E+01  0.71727410908E+01  0.12051316595E+02  0.51100000000E-03 0. -1.
        -11    1    3    3    0    0  0.94679047245E+01  0.13470461349E+02  0.16990141814E+02  0.23659236419E+02  0.51100000000E-03 0.  1.
         12    1    3    3    0    0  0.27730924158E+01  0.68928438784E+01  0.95208131839E+01  0.12076722319E+02  0.00000000000E+00 0. -1.
</event>
<event>
 7    1  0.5317846E-010  0.4778727E+02  0.7816164E-02  0.1312668E+00
        -11   -1    0    0    0    0  0.00000000000E+00  0.00000000000E+00  0.45593999997E+02  0.45594000000E+02  0.51100000000E-03 0.  1.
         11   -1    0    0    0    0 -0.00000000000E+00 -0.00000000000E+00 -0.45593999997E+02  0.45594000000E+02  0.51100000000E-03 0. -1.
    9900012    2    1    2    0    0  0.10967043151E+02 -0.29187381326E+01  0.41890669636E+02  0.47787271085E+02  0.20000000186E+02 0.  0.
         12    1    1    2    0    0 -0.10967043151E+02  0.29187381326E+01 -0.41890669636E+02  0.43400728915E+02  0.00000000000E+00 0. -1.
         11    1    3    3    0    0  0.36633769590E+01  0.20435578466E+01  0.60260299544E+01  0.73423086756E+01  0.51100000000E-03 0. -1.
        -11    1    3    3    0    0  0.99990566992E+01  0.76970424687E+00  0.30622965947E+02  0.32223277660E+02  0.51100000000E-03 0.  1.
        -12    1    3    3    0    0 -0.26953905077E+01 -0.57320002260E+01  0.52416737351E+01  0.82216847498E+01  0.00000000000E+00 0.  1.
</event>
<event>
 7    1  0.5317846E-010  0.4778727E+02  0.7816164E-02  0.1312668E+00
        -11   -1    0    0    0    0  0.00000000000E+00  0.00000000000E+00  0.45593999997E+02  0.45594000000E+02  0.51100000000E-03 0.  1.
         11   -1    0    0    0    0 -0.00000000000E+00 -0.00000000000E+00 -0.45593999997E+02  0.45594000000E+02  0.51100000000E-03 0. -1.
    9900012    2    1    2    0    0 -0.23379079787E+01 -0.43238118304E+02 -0.29364017489E+01  0.47787272548E+02  0.20000006853E+02 0.  0.
         12    1    1    2    0    0  0.23379079787E+01  0.43238118304E+02  0.29364017489E+01  0.43400727452E+02  0.00000000000E+00 0. -1.
         11    1    3    3    0    0 -0.56031415634E+01 -0.13764445750E+02  0.64146657839E+01  0.16186509802E+02  0.51100000000E-03 0. -1.
        -11    1    3    3    0    0  0.41383503645E+01 -0.13606069068E+02 -0.55095890664E+01  0.15251446854E+02  0.51100000000E-03 0.  1.
         12    1    3    3    0    0 -0.87311677982E+00 -0.15867603486E+02 -0.38414784664E+01  0.16349315891E+02  0.00000000000E+00 0. -1.
</event>
<event>
 7    1  0.5317846E-010  0.4778727E+02  0.7816164E-02  0.1312668E+00
        -11   -1    0    0    0    0  0.00000000000E+00  0.00000000000E+00  0.45593999997E+02  0.45594000000E+02  0.51100000000E-03 0. -1.
         11   -1    0    0    0    0 -0.00000000000E+00 -0.00000000000E+00 -0.45593999997E+02  0.45594000000E+02  0.51100000000E-03 0.  1.
    9900012    2    1    2    0    0 -0.26791238954E+02 -0.30956845418E+01 -0.34003963842E+02  0.47787270692E+02  0.19999998395E+02 0.  0.
         12    1    1    2    0    0  0.26791238954E+02  0.30956845418E+01  0.34003963842E+02  0.43400729308E+02  0.00000000000E+00 0. -1.
         11    1    3    3    0    0 -0.15478787672E+01  0.63995223838E+01 -0.69269333199E+01  0.95567892568E+01  0.51100000000E-03 0. -1.
        -11    1    3    3    0    0 -0.20518475079E+02 -0.81168393394E+01 -0.21980893801E+02  0.31145635215E+02  0.51100000000E-03 0.  1.
         12    1    3    3    0    0 -0.47248851082E+01 -0.13783675863E+01 -0.50961367208E+01  0.70848462203E+01  0.00000000000E+00 0. -1.
</event>
<event>
 7    1  0.5317846E-010  0.4778727E+02  0.7816164E-02  0.1312668E+00
        -11   -1    0    0    0    0  0.00000000000E+00  0.00000000000E+00  0.45593999997E+02  0.45594000000E+02  0.51100000000E-03 0.  1.
         11   -1    0    0    0    0 -0.00000000000E+00 -0.00000000000E+00 -0.45593999997E+02  0.45594000000E+02  0.51100000000E-03 0. -1.
    9900012    2    1    2    0    0 -0.12547806205E+02  0.91680743576E+01  0.40523109944E+02  0.47787268813E+02  0.19999989827E+02 0.  0.
         12    1    1    2    0    0  0.12547806205E+02 -0.91680743576E+01 -0.40523109944E+02  0.43400731187E+02  0.00000000000E+00 0. -1.
         11    1    3    3    0    0 -0.12424093790E+02  0.55574245278E+01  0.40777344515E+02  0.42988776441E+02  0.51100000000E-03 0.  1.
        -11    1    3    3    0    0  0.36193654146E+00  0.10421063835E+01 -0.15328018047E+01  0.18885087789E+01  0.51100000000E-03 0. -1.
        -12    1    3    3    0    0 -0.48564895716E+00  0.25685434464E+01  0.12785672335E+01  0.29099835938E+01  0.00000000000E+00 0.  1.
</event>
<event>
 7    1  0.5317846E-010  0.4778727E+02  0.7816164E-02  0.1312668E+00
        -11   -1    0    0    0    0  0.00000000000E+00  0.00000000000E+00  0.45593999997E+02  0.45594000000E+02  0.51100000000E-03 0.  1.
         11   -1    0    0    0    0 -0.00000000000E+00 -0.00000000000E+00 -0.45593999997E+02  0.45594000000E+02  0.51100000000E-03 0. -1.
    9900012    2    1    2    0    0  0.59197179312E+01  0.31264909767E+02  0.29514162140E+02  0.47787269477E+02  0.19999992853E+02 0.  0.
         12    1    1    2    0    0 -0.59197179312E+01 -0.31264909767E+02 -0.29514162140E+02  0.43400730523E+02  0.00000000000E+00 0. -1.
         11    1    3    3    0    0  0.37855895412E+00 -0.10995978248E+01 -0.18999608285E+01  0.22276161404E+01  0.51100000000E-03 0. -1.
        -11    1    3    3    0    0  0.57174998398E+01  0.25910755478E+02  0.24882901652E+02  0.36376033988E+02  0.51100000000E-03 0.  1.
         12    1    3    3    0    0 -0.17634086271E+00  0.64537521139E+01  0.65312213165E+01  0.91836193481E+01  0.00000000000E+00 0. -1.
</event>
<event>
 7    1  0.5317846E-010  0.4778727E+02  0.7816164E-02  0.1312668E+00
        -11   -1    0    0    0    0  0.00000000000E+00  0.00000000000E+00  0.45593999997E+02  0.45594000000E+02  0.51100000000E-03 0.  1.
         11   -1    0    0    0    0 -0.00000000000E+00 -0.00000000000E+00 -0.45593999997E+02  0.45594000000E+02  0.51100000000E-03 0. -1.
    9900012    2    1    2    0    0 -0.19638688113E+02  0.82646207798E+00  0.38694471065E+02  0.47787271880E+02  0.20000003809E+02 0.  0.
         12    1    1    2    0    0  0.19638688113E+02 -0.82646207798E+00 -0.38694471065E+02  0.43400728120E+02  0.00000000000E+00 0. -1.
         11    1    3    3    0    0 -0.77468557065E+01  0.71988794833E+01  0.55426459428E+01  0.11939789088E+02  0.51100000000E-03 0. -1.
        -11    1    3    3    0    0 -0.52493634007E+01 -0.23063889792E+01  0.16409354198E+02  0.17382236671E+02  0.51100000000E-03 0.  1.
         12    1    3    3    0    0 -0.66424690055E+01 -0.40660284261E+01  0.16742470925E+02  0.18465246121E+02  0.00000000000E+00 0. -1.
</event>
<event>
 7    1  0.5317846E-010  0.4778727E+02  0.7816164E-02  0.1312668E+00
        -11   -1    0    0    0    0  0.00000000000E+00  0.00000000000E+00  0.45593999997E+02  0.45594000000E+02  0.51100000000E-03 0.  1.
         11   -1    0    0    0    0 -0.00000000000E+00 -0.00000000000E+00 -0.45593999997E+02  0.45594000000E+02  0.51100000000E-03 0. -1.
    9900012    2    1    2    0    0  0.24708557179E+02 -0.35280200683E+02  0.53308500439E+01  0.47787270509E+02  0.19999997561E+02 0.  0.
         12    1    1    2    0    0 -0.24708557179E+02  0.35280200683E+02 -0.53308500439E+01  0.43400729491E+02  0.00000000000E+00 0. -1.
         11    1    3    3    0    0 -0.52662459573E+00 -0.37853767516E+01 -0.37121540806E+01  0.53278981593E+01  0.51100000000E-03 0. -1.
        -11    1    3    3    0    0  0.15016148808E+02 -0.25182372603E+02  0.47391278612E+01  0.29700100136E+02  0.51100000000E-03 0.  1.
         12    1    3    3    0    0  0.10219032966E+02 -0.63124513290E+01  0.43038762633E+01  0.12759272214E+02  0.00000000000E+00 0. -1.
</event>
<event>
 7    1  0.5317846E-010  0.4778727E+02  0.7816164E-02  0.1312668E+00
        -11   -1    0    0    0    0  0.00000000000E+00  0.00000000000E+00  0.45593999997E+02  0.45594000000E+02  0.51100000000E-03 0. -1.
         11   -1    0    0    0    0 -0.00000000000E+00 -0.00000000000E+00 -0.45593999997E+02  0.45594000000E+02  0.51100000000E-03 0.  1.
    9900012    2    1    2    0    0 -0.23615551625E+02 -0.33920001324E+02 -0.13242453053E+02  0.47787270383E+02  0.19999996986E+02 0.  0.
         12    1    1    2    0    0  0.23615551625E+02  0.33920001324E+02  0.13242453053E+02  0.43400729617E+02  0.00000000000E+00 0. -1.
         11    1    3    3    0    0 -0.28454198767E+00 -0.78983737948E+01  0.24382887514E+01  0.82710655324E+01  0.51100000000E-03 0. -1.
        -11    1    3    3    0    0 -0.12683013605E+02 -0.85560117726E+01 -0.10032485938E+02  0.18295216476E+02  0.51100000000E-03 0.  1.
        -12    1    3    3    0    0 -0.10647996033E+02 -0.17465615757E+02 -0.56482558656E+01  0.21220988375E+02  0.00000000000E+00 0.  1.
</event>
<event>
 7    1  0.5317846E-010  0.4778727E+02  0.7816164E-02  0.1312668E+00
        -11   -1    0    0    0    0  0.00000000000E+00  0.00000000000E+00  0.45593999997E+02  0.45594000000E+02  0.51100000000E-03 0.  1.
         11   -1    0    0    0    0 -0.00000000000E+00 -0.00000000000E+00 -0.45593999997E+02  0.45594000000E+02  0.51100000000E-03 0. -1.
    9900012    2    1    2    0    0  0.21719877511E+02  0.19038458735E+02  0.32394554431E+02  0.47787272507E+02  0.20000006670E+02 0.  0.
         12    1    1    2    0    0 -0.21719877511E+02 -0.19038458735E+02 -0.32394554431E+02  0.43400727493E+02  0.00000000000E+00 0. -1.
         11    1    3    3    0    0  0.51910288741E+01 -0.26590015819E+01  0.42402251377E+01  0.72108653894E+01  0.51100000000E-03 0. -1.
        -11    1    3    3    0    0  0.11473402330E+02  0.21044172366E+02  0.24705953108E+02  0.34422089867E+02  0.51100000000E-03 0.  1.
        -12    1    3    3    0    0  0.50554463063E+01  0.65328795146E+00  0.34483761854E+01  0.61543172505E+01  0.00000000000E+00 0.  1.
</event>
<event>
 7    1  0.5317846E-010  0.4778728E+02  0.7816164E-02  0.1312668E+00
        -11   -1    0    0    0    0  0.00000000000E+00  0.00000000000E+00  0.45593999997E+02  0.45594000000E+02  0.51100000000E-03 0.  1.
         11   -1    0    0    0    0 -0.00000000000E+00 -0.00000000000E+00 -0.45593999997E+02  0.45594000000E+02  0.51100000000E-03 0. -1.
    9900012    2    1    2    0    0 -0.15214431589E+02 -0.36219651968E+02  0.18446691767E+02  0.47787279333E+02  0.20000037791E+02 0.  0.
         12    1    1    2    0    0  0.15214431589E+02  0.36219651968E+02 -0.18446691767E+02  0.43400720667E+02  0.00000000000E+00 0. -1.
         11    1    3    3    0    0 -0.61629017594E+01 -0.15023919273E+01  0.15396826863E+01  0.65275694278E+01  0.51100000000E-03 0. -1.
        -11    1    3    3    0    0 -0.67007022186E+01 -0.28434440029E+02  0.18212755720E+02  0.34425590207E+02  0.51100000000E-03 0.  1.
        -12    1    3    3    0    0 -0.23508276113E+01 -0.62828200119E+01 -0.13057466386E+01  0.68341196978E+01  0.00000000000E+00 0.  1.
</event>
<event>
 7    1  0.5317846E-010  0.4778727E+02  0.7816164E-02  0.1312668E+00
        -11   -1    0    0    0    0  0.00000000000E+00  0.00000000000E+00  0.45593999997E+02  0.45594000000E+02  0.51100000000E-03 0.  1.
         11   -1    0    0    0    0 -0.00000000000E+00 -0.00000000000E+00 -0.45593999997E+02  0.45594000000E+02  0.51100000000E-03 0. -1.
    9900012    2    1    2    0    0  0.10852801648E+02  0.34022691279E+02  0.24663668439E+02  0.47787269979E+02  0.19999995141E+02 0.  0.
         12    1    1    2    0    0 -0.10852801648E+02 -0.34022691279E+02 -0.24663668439E+02  0.43400730021E+02  0.00000000000E+00 0. -1.
         11    1    3    3    0    0 -0.98176142593E+00 -0.86759979155E+00  0.92426749383E-01  0.13134412286E+01  0.51100000000E-03 0. -1.
        -11    1    3    3    0    0  0.75024107197E+01  0.31109998499E+02  0.25140657947E+02  0.40696079117E+02  0.51100000000E-03 0.  1.
        -12    1    3    3    0    0  0.43321523543E+01  0.37802925715E+01 -0.56941625729E+00  0.57777496329E+01  0.00000000000E+00 0.  1.
</event>
<event>
 7    1  0.5317846E-010  0.4778727E+02  0.7816164E-02  0.1312668E+00
        -11   -1    0    0    0    0  0.00000000000E+00  0.00000000000E+00  0.45593999997E+02  0.45594000000E+02  0.51100000000E-03 0.  1.
         11   -1    0    0    0    0 -0.00000000000E+00 -0.00000000000E+00 -0.45593999997E+02  0.45594000000E+02  0.51100000000E-03 0. -1.
    9900012    2    1    2    0    0 -0.36142675189E+02 -0.22149919688E+02  0.93118909490E+01  0.47787271607E+02  0.20000002564E+02 0.  0.
         12    1    1    2    0    0  0.36142675189E+02  0.22149919688E+02 -0.93118909490E+01  0.43400728393E+02  0.00000000000E+00 0. -1.
         11    1    3    3    0    0 -0.18081639906E+01 -0.50925459239E+01 -0.37854142417E+01  0.65979422736E+01  0.51100000000E-03 0. -1.
        -11    1    3    3    0    0 -0.24295606296E+02 -0.15524988495E+02  0.86402171150E+01  0.30099088111E+02  0.51100000000E-03 0.  1.
         12    1    3    3    0    0 -0.10038904902E+02 -0.15323852692E+01  0.44570880756E+01  0.11090241222E+02  0.00000000000E+00 0. -1.
</event>
<event>
 7    1  0.5317846E-010  0.4778727E+02  0.7816164E-02  0.1312668E+00
        -11   -1    0    0    0    0  0.00000000000E+00  0.00000000000E+00  0.45593999997E+02  0.45594000000E+02  0.51100000000E-03 0.  1.
         11   -1    0    0    0    0 -0.00000000000E+00 -0.00000000000E+00 -0.45593999997E+02  0.45594000000E+02  0.51100000000E-03 0. -1.
    9900012    2    1    2    0    0 -0.27727681235E+02  0.41566164649E+01  0.33128863839E+02  0.47787269748E+02  0.19999994090E+02 0.  0.
         12    1    1    2    0    0  0.27727681235E+02 -0.41566164649E+01 -0.33128863839E+02  0.43400730252E+02  0.00000000000E+00 0. -1.
         11    1    3    3    0    0 -0.12280604402E+02  0.66054911777E+01  0.37842056145E+01  0.14448735951E+02  0.51100000000E-03 0. -1.
        -11    1    3    3    0    0 -0.11005119063E+02 -0.27925593643E+01  0.20449605373E+02  0.23390113158E+02  0.51100000000E-03 0.  1.
         12    1    3    3    0    0 -0.44419577702E+01  0.34368465151E+00  0.88950528520E+01  0.99484206391E+01  0.00000000000E+00 0. -1.
</event>
<event>
 7    1  0.5317846E-010  0.4778727E+02  0.7816164E-02  0.1312668E+00
        -11   -1    0    0    0    0  0.00000000000E+00  0.00000000000E+00  0.45593999997E+02  0.45594000000E+02  0.51100000000E-03 0. -1.
         11   -1    0    0    0    0 -0.00000000000E+00 -0.00000000000E+00 -0.45593999997E+02  0.45594000000E+02  0.51100000000E-03 0.  1.
    9900012    2    1    2    0    0  0.22938993799E+02 -0.12468835049E+02 -0.34669207834E+02  0.47787271253E+02  0.20000000950E+02 0.  0.
         12    1    1    2    0    0 -0.22938993799E+02  0.12468835049E+02  0.34669207834E+02  0.43400728747E+02  0.00000000000E+00 0. -1.
         11    1    3    3    0    0  0.23117260870E+01 -0.20652440591E+01  0.13769234958E+01  0.33919358926E+01  0.51100000000E-03 0. -1.
        -11    1    3    3    0    0  0.17260145293E+02 -0.27431843159E+01 -0.25879324223E+02  0.31227825705E+02  0.51100000000E-03 0.  1.
        -12    1    3    3    0    0  0.33671224189E+01 -0.76604066737E+01 -0.10166807106E+02  0.13167509655E+02  0.00000000000E+00 0.  1.
</event>
<event>
 7    1  0.5317846E-010  0.4778727E+02  0.7816164E-02  0.1312668E+00
        -11   -1    0    0    0    0  0.00000000000E+00  0.00000000000E+00  0.45593999997E+02  0.45594000000E+02  0.51100000000E-03 0.  1.
         11   -1    0    0    0    0 -0.00000000000E+00 -0.00000000000E+00 -0.45593999997E+02  0.45594000000E+02  0.51100000000E-03 0. -1.
    9900012    2    1    2    0    0  0.22715346953E+02  0.44190909939E+01  0.36716588298E+02  0.47787271796E+02  0.20000003425E+02 0.  0.
         12    1    1    2    0    0 -0.22715346953E+02 -0.44190909939E+01 -0.36716588298E+02  0.43400728204E+02  0.00000000000E+00 0. -1.
         11    1    3    3    0    0  0.11134027745E+01 -0.23322855238E+01 -0.11061505966E+01  0.28111903006E+01  0.51100000000E-03 0. -1.
        -11    1    3    3    0    0  0.20934978325E+02  0.60143117069E+01  0.38149406801E+02  0.43929745074E+02  0.51100000000E-03 0.  1.
        -12    1    3    3    0    0  0.66696585347E+00  0.73706481078E+00 -0.32666790593E+00  0.10463364209E+01  0.00000000000E+00 0.  1.
</event>
<event>
 7    1  0.5317846E-010  0.4778727E+02  0.7816164E-02  0.1312668E+00
        -11   -1    0    0    0    0  0.00000000000E+00  0.00000000000E+00  0.45593999997E+02  0.45594000000E+02  0.51100000000E-03 0.  1.
         11   -1    0    0    0    0 -0.00000000000E+00 -0.00000000000E+00 -0.45593999997E+02  0.45594000000E+02  0.51100000000E-03 0. -1.
    9900012    2    1    2    0    0 -0.91543011648E+01 -0.31428792820E+02  0.28496544578E+02  0.47787270734E+02  0.19999998584E+02 0.  0.
         12    1    1    2    0    0  0.91543011648E+01  0.31428792820E+02 -0.28496544578E+02  0.43400729266E+02  0.00000000000E+00 0. -1.
         11    1    3    3    0    0  0.30434306441E+01 -0.11007985910E+02  0.24589570920E+01  0.11682666396E+02  0.51100000000E-03 0. -1.
        -11    1    3    3    0    0 -0.94609159726E+01 -0.18224660150E+02  0.17892490595E+02  0.27235792417E+02  0.51100000000E-03 0.  1.
         12    1    3    3    0    0 -0.27368158364E+01 -0.21961467596E+01  0.81450968914E+01  0.88688119205E+01  0.00000000000E+00 0. -1.
</event>
<event>
 7    1  0.5317846E-010  0.4778728E+02  0.7816164E-02  0.1312668E+00
        -11   -1    0    0    0    0  0.00000000000E+00  0.00000000000E+00  0.45593999997E+02  0.45594000000E+02  0.51100000000E-03 0.  1.
         11   -1    0    0    0    0 -0.00000000000E+00 -0.00000000000E+00 -0.45593999997E+02  0.45594000000E+02  0.51100000000E-03 0. -1.
    9900012    2    1    2    0    0 -0.69532318269E+01 -0.10354976608E+02  0.41569818251E+02  0.47787276932E+02  0.20000026846E+02 0.  0.
         12    1    1    2    0    0  0.69532318269E+01  0.10354976608E+02 -0.41569818251E+02  0.43400723068E+02  0.00000000000E+00 0. -1.
         11    1    3    3    0    0  0.12063395612E+01 -0.15973895040E+01  0.15074139537E+01  0.25058342829E+01  0.51100000000E-03 0. -1.
        -11    1    3    3    0    0  0.17280478365E+01 -0.46163918566E+01  0.13478633837E+01  0.51101819009E+01  0.51100000000E-03 0.  1.
        -12    1    3    3    0    0 -0.98876192245E+01 -0.41411952470E+01  0.38714540913E+02  0.40171260749E+02  0.00000000000E+00 0.  1.
</event>
<event>
 7    1  0.5317846E-010  0.4778726E+02  0.7816164E-02  0.1312668E+00
        -11   -1    0    0    0    0  0.00000000000E+00  0.00000000000E+00  0.45593999997E+02  0.45594000000E+02  0.51100000000E-03 0.  1.
         11   -1    0    0    0    0 -0.00000000000E+00 -0.00000000000E+00 -0.45593999997E+02  0.45594000000E+02  0.51100000000E-03 0. -1.
    9900012    2    1    2    0    0  0.36804534512E+02 -0.19762088339E+02  0.11769046825E+02  0.47787258539E+02  0.19999942984E+02 0.  0.
         12    1    1    2    0    0 -0.36804534512E+02  0.19762088339E+02 -0.11769046825E+02  0.43400741461E+02  0.00000000000E+00 0. -1.
         11    1    3    3    0    0  0.96101633309E+01 -0.82305503472E+01 -0.43587554155E+01  0.13382673399E+02  0.51100000000E-03 0. -1.
        -11    1    3    3    0    0  0.15279527736E+02 -0.27754537004E+01  0.70572168490E+01  0.17057884423E+02  0.51100000000E-03 0.  1.
         12    1    3    3    0    0  0.11914843445E+02 -0.87560842911E+01  0.90705853913E+01  0.17346700717E+02  0.00000000000E+00 0. -1.
</event>
<event>
 7    1  0.5317846E-010  0.4778727E+02  0.7816164E-02  0.1312668E+00
        -11   -1    0    0    0    0  0.00000000000E+00  0.00000000000E+00  0.45593999997E+02  0.45594000000E+02  0.51100000000E-03 0.  1.
         11   -1    0    0    0    0 -0.00000000000E+00 -0.00000000000E+00 -0.45593999997E+02  0.45594000000E+02  0.51100000000E-03 0. -1.
    9900012    2    1    2    0    0 -0.14159567994E+02  0.15648083325E+02  0.37924499001E+02  0.47787268416E+02  0.19999988017E+02 0.  0.
         12    1    1    2    0    0  0.14159567994E+02 -0.15648083325E+02 -0.37924499001E+02  0.43400731584E+02  0.00000000000E+00 0. -1.
         11    1    3    3    0    0 -0.18616973469E+01 -0.14160684051E+01  0.63345702015E+00  0.24233107099E+01  0.51100000000E-03 0. -1.
        -11    1    3    3    0    0  0.25182280904E+01  0.78727437842E+01  0.14186799520E+02  0.16419100106E+02  0.51100000000E-03 0.  1.
        -12    1    3    3    0    0 -0.14816098737E+02  0.91914079455E+01  0.23104242461E+02  0.28944857600E+02  0.00000000000E+00 0.  1.
</event>
<event>
 7    1  0.5317846E-010  0.4778727E+02  0.7816164E-02  0.1312668E+00
        -11   -1    0    0    0    0  0.00000000000E+00  0.00000000000E+00  0.45593999997E+02  0.45594000000E+02  0.51100000000E-03 0.  1.
         11   -1    0    0    0    0 -0.00000000000E+00 -0.00000000000E+00 -0.45593999997E+02  0.45594000000E+02  0.51100000000E-03 0. -1.
    9900012    2    1    2    0    0 -0.11683719743E+02  0.38844449033E+02  0.15434468796E+02  0.47787270113E+02  0.19999995752E+02 0.  0.
         12    1    1    2    0    0  0.11683719743E+02 -0.38844449033E+02 -0.15434468796E+02  0.43400729887E+02  0.00000000000E+00 0. -1.
         11    1    3    3    0    0  0.51472424972E+00  0.57466761617E+01 -0.98115300732E+00  0.58525113794E+01  0.51100000000E-03 0. -1.
        -11    1    3    3    0    0  0.33348077906E+01  0.64950813037E+01  0.58893640793E+01  0.93803855817E+01  0.51100000000E-03 0.  1.
        -12    1    3    3    0    0 -0.15533251783E+02  0.26602691568E+02  0.10526257724E+02  0.32554373152E+02  0.00000000000E+00 0.  1.
</event>
<event>
 7    1  0.5317846E-010  0.4778727E+02  0.7816164E-02  0.1312668E+00
        -11   -1    0    0    0    0  0.00000000000E+00  0.00000000000E+00  0.45593999997E+02  0.45594000000E+02  0.51100000000E-03 0.  1.
         11   -1    0    0    0    0 -0.00000000000E+00 -0.00000000000E+00 -0.45593999997E+02  0.45594000000E+02  0.51100000000E-03 0. -1.
    9900012    2    1    2    0    0 -0.17242749661E+00  0.11927956010E+02  0.41729095926E+02  0.47787270597E+02  0.19999997962E+02 0.  0.
         12    1    1    2    0    0  0.17242749661E+00 -0.11927956010E+02 -0.41729095926E+02  0.43400729403E+02  0.00000000000E+00 0. -1.
         11    1    3    3    0    0 -0.38418407641E+01 -0.24210094098E+01  0.70110835516E+01  0.83532221237E+01  0.51100000000E-03 0. -1.
        -11    1    3    3    0    0  0.22893888519E+01  0.14942344181E+02  0.34787762023E+02  0.37930243049E+02  0.51100000000E-03 0.  1.
         12    1    3    3    0    0  0.13800244156E+01 -0.59337876114E+00 -0.69749647944E-01  0.15038054246E+01  0.00000000000E+00 0. -1.
</event>
<event>
 7    1  0.5317846E-010  0.4778727E+02  0.7816164E-02  0.1312668E+00
        -11   -1    0    0    0    0  0.00000000000E+00  0.00000000000E+00  0.45593999997E+02  0.45594000000E+02  0.51100000000E-03 0. -1.
         11   -1    0    0    0    0 -0.00000000000E+00 -0.00000000000E+00 -0.45593999997E+02  0.45594000000E+02  0.51100000000E-03 0.  1.
    9900012    2    1    2    0    0 -0.81169585975E+01 -0.12719363206E+02 -0.40693443506E+02  0.47787267729E+02  0.19999984885E+02 0.  0.
         12    1    1    2    0    0  0.81169585975E+01  0.12719363206E+02  0.40693443506E+02  0.43400732271E+02  0.00000000000E+00 0. -1.
         11    1    3    3    0    0 -0.40996541468E+01 -0.63398910975E+01 -0.25567822956E+01  0.79711052697E+01  0.51100000000E-03 0. -1.
        -11    1    3    3    0    0 -0.62390569174E+01 -0.20358397609E+01 -0.22046040949E+02  0.23002138956E+02  0.51100000000E-03 0.  1.
        -12    1    3    3    0    0  0.22217524667E+01 -0.43436323478E+01 -0.16090620261E+02  0.16814023504E+02  0.00000000000E+00 0.  1.
</event>
<event>
 7    1  0.5317846E-010  0.4778727E+02  0.7816164E-02  0.1312668E+00
        -11   -1    0    0    0    0  0.00000000000E+00  0.00000000000E+00  0.45593999997E+02  0.45594000000E+02  0.51100000000E-03 0.  1.
         11   -1    0    0    0    0 -0.00000000000E+00 -0.00000000000E+00 -0.45593999997E+02  0.45594000000E+02  0.51100000000E-03 0. -1.
    9900012    2    1    2    0    0  0.33231577141E+02  0.73770077114E+01  0.26923329167E+02  0.47787267109E+02  0.19999982057E+02 0.  0.
         12    1    1    2    0    0 -0.33231577141E+02 -0.73770077114E+01 -0.26923329167E+02  0.43400732891E+02  0.00000000000E+00 0. -1.
         11    1    3    3    0    0  0.28398567096E+01  0.41704099939E+01 -0.96080058796E+00  0.51361701373E+01  0.51100000000E-03 0.  1.
        -11    1    3    3    0    0  0.22582484897E+02  0.58679116433E+00  0.14210149874E+02  0.26687849440E+02  0.51100000000E-03 0. -1.
         12    1    3    3    0    0  0.78092355344E+01  0.26198065532E+01  0.13673979880E+02  0.15963247532E+02  0.00000000000E+00 0. -1.
</event>
<event>
 7    1  0.5317846E-010  0.4778727E+02  0.7816164E-02  0.1312668E+00
        -11   -1    0    0    0    0  0.00000000000E+00  0.00000000000E+00  0.45593999997E+02  0.45594000000E+02  0.51100000000E-03 0.  1.
         11   -1    0    0    0    0 -0.00000000000E+00 -0.00000000000E+00 -0.45593999997E+02  0.45594000000E+02  0.51100000000E-03 0. -1.
    9900012    2    1    2    0    0 -0.19437953326E+01 -0.38867134237E+02  0.19214339074E+02  0.47787270857E+02  0.19999999146E+02 0.  0.
         12    1    1    2    0    0  0.19437953326E+01  0.38867134237E+02 -0.19214339074E+02  0.43400729143E+02  0.00000000000E+00 0. -1.
         11    1    3    3    0    0 -0.44146267619E+01 -0.28710472021E+02  0.20681006433E+02  0.35657876556E+02  0.51100000000E-03 0. -1.
        -11    1    3    3    0    0 -0.10863599685E+01 -0.60075070357E+01 -0.24466583516E+01  0.65769640501E+01  0.51100000000E-03 0.  1.
        -12    1    3    3    0    0  0.35571913978E+01 -0.41491551801E+01  0.97999099230E+00  0.55524302512E+01  0.00000000000E+00 0.  1.
</event>
<event>
 7    1  0.5317846E-010  0.4778728E+02  0.7816164E-02  0.1312668E+00
        -11   -1    0    0    0    0  0.00000000000E+00  0.00000000000E+00  0.45593999997E+02  0.45594000000E+02  0.51100000000E-03 0.  1.
         11   -1    0    0    0    0 -0.00000000000E+00 -0.00000000000E+00 -0.45593999997E+02  0.45594000000E+02  0.51100000000E-03 0. -1.
    9900012    2    1    2    0    0 -0.99832873820E+01  0.10807260075E+02  0.40830867208E+02  0.47787278644E+02  0.20000034650E+02 0.  0.
         12    1    1    2    0    0  0.99832873820E+01 -0.10807260075E+02 -0.40830867208E+02  0.43400721356E+02  0.00000000000E+00 0. -1.
         11    1    3    3    0    0 -0.59069812516E+01  0.10405885714E+01  0.26798656982E+01  0.65693936176E+01  0.51100000000E-03 0. -1.
        -11    1    3    3    0    0  0.93293683322E+00  0.10059515559E+02  0.29902790471E+02  0.31563287260E+02  0.51100000000E-03 0.  1.
         12    1    3    3    0    0 -0.50092429636E+01 -0.29284405560E+00  0.82482110381E+01  0.96545977668E+01  0.00000000000E+00 0. -1.
</event>
<event>
 7    1  0.5317846E-010  0.4778727E+02  0.7816164E-02  0.1312668E+00
        -11   -1    0    0    0    0  0.00000000000E+00  0.00000000000E+00  0.45593999997E+02  0.45594000000E+02  0.51100000000E-03 0.  1.
         11   -1    0    0    0    0 -0.00000000000E+00 -0.00000000000E+00 -0.45593999997E+02  0.45594000000E+02  0.51100000000E-03 0. -1.
    9900012    2    1    2    0    0 -0.48484329898E+01 -0.87958916191E+01  0.42222604054E+02  0.47787270687E+02  0.19999998369E+02 0.  0.
         12    1    1    2    0    0  0.48484329898E+01  0.87958916191E+01 -0.42222604054E+02  0.43400729313E+02  0.00000000000E+00 0. -1.
         11    1    3    3    0    0 -0.50204613867E+01  0.17281568783E+01  0.25462042274E+02  0.26009751167E+02  0.51100000000E-03 0. -1.
        -11    1    3    3    0    0  0.19299234934E+00 -0.16815261852E+01  0.11210405124E+02  0.11337458254E+02  0.51100000000E-03 0.  1.
         12    1    3    3    0    0 -0.20963952454E-01 -0.88425223122E+01  0.55501566559E+01  0.10440061266E+02  0.00000000000E+00 0. -1.
</event>
<event>
 7    1  0.5317846E-010  0.4778727E+02  0.7816164E-02  0.1312668E+00
        -11   -1    0    0    0    0  0.00000000000E+00  0.00000000000E+00  0.45593999997E+02  0.45594000000E+02  0.51100000000E-03 0. -1.
         11   -1    0    0    0    0 -0.00000000000E+00 -0.00000000000E+00 -0.45593999997E+02  0.45594000000E+02  0.51100000000E-03 0.  1.
    9900012    2    1    2    0    0 -0.40271015982E+02  0.10324135720E+02 -0.12461163518E+02  0.47787273015E+02  0.20000008987E+02 0.  0.
         12    1    1    2    0    0  0.40271015982E+02 -0.10324135720E+02  0.12461163518E+02  0.43400726985E+02  0.00000000000E+00 0. -1.
         11    1    3    3    0    0 -0.36294872142E+02  0.10911263185E+02 -0.59045817052E+01  0.38356713799E+02  0.51100000000E-03 0. -1.
        -11    1    3    3    0    0 -0.21955209478E+00  0.18765301726E+01 -0.35605374346E+01  0.40307562188E+01  0.51100000000E-03 0.  1.
         12    1    3    3    0    0 -0.37565917446E+01 -0.24636576376E+01 -0.29960443786E+01  0.53998029973E+01  0.00000000000E+00 0. -1.
</event>
<event>
 7    1  0.5317846E-010  0.4778728E+02  0.7816164E-02  0.1312668E+00
        -11   -1    0    0    0    0  0.00000000000E+00  0.00000000000E+00  0.45593999997E+02  0.45594000000E+02  0.51100000000E-03 0.  1.
         11   -1    0    0    0    0 -0.00000000000E+00 -0.00000000000E+00 -0.45593999997E+02  0.45594000000E+02  0.51100000000E-03 0. -1.
    9900012    2    1    2    0    0 -0.40962003708E+02 -0.13292343116E+02  0.53898526968E+01  0.47787278285E+02  0.20000033014E+02 0.  0.
         12    1    1    2    0    0  0.40962003708E+02  0.13292343116E+02 -0.53898526968E+01  0.43400721715E+02  0.00000000000E+00 0. -1.
         11    1    3    3    0    0 -0.19258440902E+02 -0.22034351928E+01 -0.46078169282E+01  0.19924222688E+02  0.51100000000E-03 0. -1.
        -11    1    3    3    0    0 -0.22056568175E+02 -0.11542496110E+02  0.85766817221E+01  0.26330227605E+02  0.51100000000E-03 0.  1.
         12    1    3    3    0    0  0.35300536913E+00  0.45358818676E+00  0.14209879029E+01  0.15328279923E+01  0.00000000000E+00 0. -1.
</event>
<event>
 7    1  0.5317846E-010  0.4778727E+02  0.7816164E-02  0.1312668E+00
        -11   -1    0    0    0    0  0.00000000000E+00  0.00000000000E+00  0.45593999997E+02  0.45594000000E+02  0.51100000000E-03 0.  1.
         11   -1    0    0    0    0 -0.00000000000E+00 -0.00000000000E+00 -0.45593999997E+02  0.45594000000E+02  0.51100000000E-03 0. -1.
    9900012    2    1    2    0    0 -0.33693017845E+02  0.26280806613E+02  0.75975673466E+01  0.47787271005E+02  0.19999999819E+02 0.  0.
         12    1    1    2    0    0  0.33693017845E+02 -0.26280806613E+02 -0.75975673466E+01  0.43400728995E+02  0.00000000000E+00 0. -1.
         11    1    3    3    0    0 -0.47476741827E+00  0.15519240692E+01 -0.20563912281E+01  0.26196598180E+01  0.51100000000E-03 0. -1.
        -11    1    3    3    0    0 -0.14226605789E+02  0.23204584552E+01  0.58809205794E+00  0.14426596696E+02  0.51100000000E-03 0.  1.
        -12    1    3    3    0    0 -0.18991644638E+02  0.22408424089E+02  0.90658665167E+01  0.30741014490E+02  0.00000000000E+00 0.  1.
</event>
<event>
 7    1  0.5317846E-010  0.4778726E+02  0.7816164E-02  0.1312668E+00
        -11   -1    0    0    0    0  0.00000000000E+00  0.00000000000E+00  0.45593999997E+02  0.45594000000E+02  0.51100000000E-03 0.  1.
         11   -1    0    0    0    0 -0.00000000000E+00 -0.00000000000E+00 -0.45593999997E+02  0.45594000000E+02  0.51100000000E-03 0. -1.
    9900012    2    1    2    0    0  0.32568856430E+02  0.27367502315E+02  0.85972962051E+01  0.47787261594E+02  0.19999956913E+02 0.  0.
         12    1    1    2    0    0 -0.32568856430E+02 -0.27367502315E+02 -0.85972962051E+01  0.43400738406E+02  0.00000000000E+00 0. -1.
         11    1    3    3    0    0  0.18277108013E+02  0.10162990838E+02 -0.82051264065E+00  0.20928743425E+02  0.51100000000E-03 0. -1.
        -11    1    3    3    0    0  0.12389071569E+02  0.10213573937E+02  0.10973720324E+02  0.19448103376E+02  0.51100000000E-03 0.  1.
        -12    1    3    3    0    0  0.19026768484E+01  0.69909375405E+01 -0.15559114786E+01  0.74104147937E+01  0.00000000000E+00 0.  1.
</event>
<event>
 7    1  0.5317846E-010  0.4778727E+02  0.7816164E-02  0.1312668E+00
        -11   -1    0    0    0    0  0.00000000000E+00  0.00000000000E+00  0.45593999997E+02  0.45594000000E+02  0.51100000000E-03 0. -1.
         11   -1    0    0    0    0 -0.00000000000E+00 -0.00000000000E+00 -0.45593999997E+02  0.45594000000E+02  0.51100000000E-03 0.  1.
    9900012    2    1    2    0    0  0.92572692683E+01 -0.21060077472E+02 -0.36802167470E+02  0.47787269270E+02  0.19999991910E+02 0.  0.
         12    1    1    2    0    0 -0.92572692683E+01  0.21060077472E+02  0.36802167470E+02  0.43400730730E+02  0.00000000000E+00 0. -1.
         11    1    3    3    0    0 -0.28878338003E+01 -0.22825244497E+01  0.75909507062E+00  0.37584208797E+01  0.51100000000E-03 0. -1.
        -11    1    3    3    0    0  0.93703228814E+01 -0.17363298221E+02 -0.30695494037E+02  0.36489730479E+02  0.51100000000E-03 0.  1.
         12    1    3    3    0    0  0.27747801872E+01 -0.14142548004E+01 -0.68657685040E+01  0.75391179112E+01  0.00000000000E+00 0. -1.
</event>
<event>
 7    1  0.5317846E-010  0.4778727E+02  0.7816164E-02  0.1312668E+00
        -11   -1    0    0    0    0  0.00000000000E+00  0.00000000000E+00  0.45593999997E+02  0.45594000000E+02  0.51100000000E-03 0.  1.
         11   -1    0    0    0    0 -0.00000000000E+00 -0.00000000000E+00 -0.45593999997E+02  0.45594000000E+02  0.51100000000E-03 0. -1.
    9900012    2    1    2    0    0  0.10162774058E+02 -0.40223191415E+02  0.12745034302E+02  0.47787274159E+02  0.20000014199E+02 0.  0.
         12    1    1    2    0    0 -0.10162774058E+02  0.40223191415E+02 -0.12745034302E+02  0.43400725841E+02  0.00000000000E+00 0. -1.
         11    1    3    3    0    0 -0.28734197974E+01 -0.10678914410E+02 -0.31981866117E+01  0.11511913489E+02  0.51100000000E-03 0.  1.
        -11    1    3    3    0    0  0.10191486572E+02 -0.18190307314E+02  0.94815852271E+01  0.22905329891E+02  0.51100000000E-03 0. -1.
         12    1    3    3    0    0  0.28447072829E+01 -0.11353969691E+02  0.64616356871E+01  0.13370030779E+02  0.00000000000E+00 0. -1.
</event>
<event>
 7    1  0.5317846E-010  0.4778727E+02  0.7816164E-02  0.1312668E+00
        -11   -1    0    0    0    0  0.00000000000E+00  0.00000000000E+00  0.45593999997E+02  0.45594000000E+02  0.51100000000E-03 0.  1.
         11   -1    0    0    0    0 -0.00000000000E+00 -0.00000000000E+00 -0.45593999997E+02  0.45594000000E+02  0.51100000000E-03 0. -1.
    9900012    2    1    2    0    0 -0.30470825225E+02  0.19435517529E+02 -0.24029423135E+02  0.47787266047E+02  0.19999977214E+02 0.  0.
         12    1    1    2    0    0  0.30470825225E+02 -0.19435517529E+02  0.24029423135E+02  0.43400733953E+02  0.00000000000E+00 0. -1.
         11    1    3    3    0    0 -0.55747545480E+01 -0.57312943199E+00 -0.22428074216E+01  0.60362696268E+01  0.51100000000E-03 0. -1.
        -11    1    3    3    0    0 -0.17008898521E+02  0.12766410254E+02 -0.50111279638E+01  0.21849376728E+02  0.51100000000E-03 0.  1.
        -12    1    3    3    0    0 -0.78871721553E+01  0.72422367070E+01 -0.16775487749E+02  0.19901619692E+02  0.00000000000E+00 0.  1.
</event>
<event>
 7    1  0.5317846E-010  0.4778728E+02  0.7816164E-02  0.1312668E+00
        -11   -1    0    0    0    0  0.00000000000E+00  0.00000000000E+00  0.45593999997E+02  0.45594000000E+02  0.51100000000E-03 0. -1.
         11   -1    0    0    0    0 -0.00000000000E+00 -0.00000000000E+00 -0.45593999997E+02  0.45594000000E+02  0.51100000000E-03 0.  1.
    9900012    2    1    2    0    0  0.18290461032E+02  0.23059297288E+02 -0.31895935103E+02  0.47787276132E+02  0.20000023198E+02 0.  0.
         12    1    1    2    0    0 -0.18290461032E+02 -0.23059297288E+02  0.31895935103E+02  0.43400723868E+02  0.00000000000E+00 0. -1.
         11    1    3    3    0    0  0.44644375680E-01 -0.23608794946E+01 -0.15356833374E+01  0.28167478912E+01  0.51100000000E-03 0. -1.
        -11    1    3    3    0    0  0.15379736196E+02  0.19538963065E+02 -0.29153876291E+02  0.38317827002E+02  0.51100000000E-03 0.  1.
        -12    1    3    3    0    0  0.28660804603E+01  0.58812137172E+01 -0.12063754741E+01  0.66527012391E+01  0.00000000000E+00 0.  1.
</event>
<event>
 7    1  0.5317846E-010  0.4778727E+02  0.7816164E-02  0.1312668E+00
        -11   -1    0    0    0    0  0.00000000000E+00  0.00000000000E+00  0.45593999997E+02  0.45594000000E+02  0.51100000000E-03 0. -1.
         11   -1    0    0    0    0 -0.00000000000E+00 -0.00000000000E+00 -0.45593999997E+02  0.45594000000E+02  0.51100000000E-03 0.  1.
    9900012    2    1    2    0    0  0.30312414699E+02  0.30793336377E+02  0.40683628079E+01  0.47787266987E+02  0.19999981500E+02 0.  0.
         12    1    1    2    0    0 -0.30312414699E+02 -0.30793336377E+02 -0.40683628079E+01  0.43400733013E+02  0.00000000000E+00 0. -1.
         11    1    3    3    0    0  0.16066238653E+02  0.19657705244E+02  0.97952133755E+01  0.27212048899E+02  0.51100000000E-03 0. -1.
        -11    1    3    3    0    0  0.79604807784E+01  0.13831059105E+01 -0.32635555273E+01  0.87139561121E+01  0.51100000000E-03 0.  1.
        -12    1    3    3    0    0  0.62856952674E+01  0.97525252229E+01 -0.24632950403E+01  0.11861261976E+02  0.00000000000E+00 0.  1.
</event>
<event>
 7    1  0.5317846E-010  0.4778726E+02  0.7816164E-02  0.1312668E+00
        -11   -1    0    0    0    0  0.00000000000E+00  0.00000000000E+00  0.45593999997E+02  0.45594000000E+02  0.51100000000E-03 0.  1.
         11   -1    0    0    0    0 -0.00000000000E+00 -0.00000000000E+00 -0.45593999997E+02  0.45594000000E+02  0.51100000000E-03 0. -1.
    9900012    2    1    2    0    0 -0.40573279259E+02 -0.14628705539E+02 -0.48408454636E+01  0.47787264979E+02  0.19999972344E+02 0.  0.
         12    1    1    2    0    0  0.40573279259E+02  0.14628705539E+02  0.48408454636E+01  0.43400735021E+02  0.00000000000E+00 0. -1.
         11    1    3    3    0    0 -0.13625969110E+02 -0.39678371255E+01  0.44679451778E+01  0.14878618888E+02  0.51100000000E-03 0. -1.
        -11    1    3    3    0    0 -0.28134127036E+02 -0.95595351115E+01 -0.78597130484E+01  0.30735791923E+02  0.51100000000E-03 0.  1.
        -12    1    3    3    0    0  0.11868168873E+01 -0.11013333016E+01 -0.14490775930E+01  0.21728541681E+01  0.00000000000E+00 0.  1.
</event>
<event>
 7    1  0.5317846E-010  0.4778724E+02  0.7816164E-02  0.1312668E+00
        -11   -1    0    0    0    0  0.00000000000E+00  0.00000000000E+00  0.45593999997E+02  0.45594000000E+02  0.51100000000E-03 0. -1.
         11   -1    0    0    0    0 -0.00000000000E+00 -0.00000000000E+00 -0.45593999997E+02  0.45594000000E+02  0.51100000000E-03 0.  1.
    9900012    2    1    2    0    0  0.18047055233E+02 -0.34524901096E+02  0.19130107798E+02  0.47787239377E+02  0.19999855615E+02 0.  0.
         12    1    1    2    0    0 -0.18047055233E+02  0.34524901096E+02 -0.19130107798E+02  0.43400760623E+02  0.00000000000E+00 0. -1.
         11    1    3    3    0    0  0.65070854402E+01 -0.14680482118E+02  0.14312986921E+02  0.21510934685E+02  0.51100000000E-03 0. -1.
        -11    1    3    3    0    0  0.13462887626E+02 -0.16141799778E+02  0.17379933915E+01  0.21090937974E+02  0.51100000000E-03 0.  1.
        -12    1    3    3    0    0 -0.19229178335E+01 -0.37026191995E+01  0.30791274857E+01  0.51853667184E+01  0.00000000000E+00 0.  1.
</event>
<event>
 7    1  0.5317846E-010  0.4778728E+02  0.7816164E-02  0.1312668E+00
        -11   -1    0    0    0    0  0.00000000000E+00  0.00000000000E+00  0.45593999997E+02  0.45594000000E+02  0.51100000000E-03 0. -1.
         11   -1    0    0    0    0 -0.00000000000E+00 -0.00000000000E+00 -0.45593999997E+02  0.45594000000E+02  0.51100000000E-03 0.  1.
    9900012    2    1    2    0    0 -0.15733861869E+02 -0.12619143270E+02 -0.38429490186E+02  0.47787275327E+02  0.20000019524E+02 0.  0.
         12    1    1    2    0    0  0.15733861869E+02  0.12619143270E+02  0.38429490186E+02  0.43400724673E+02  0.00000000000E+00 0. -1.
         11    1    3    3    0    0  0.34390006081E+01 -0.58851745312E+01 -0.56456099534E+01  0.88507014667E+01  0.51100000000E-03 0. -1.
        -11    1    3    3    0    0 -0.17269313032E+02 -0.42099048423E+01 -0.26615922311E+02  0.32005621258E+02  0.51100000000E-03 0.  1.
        -12    1    3    3    0    0 -0.19035494450E+01 -0.25240638969E+01 -0.61679579221E+01  0.69309526022E+01  0.00000000000E+00 0.  1.
</event>
<event>
 7    1  0.5317846E-010  0.4778727E+02  0.7816164E-02  0.1312668E+00
        -11   -1    0    0    0    0  0.00000000000E+00  0.00000000000E+00  0.45593999997E+02  0.45594000000E+02  0.51100000000E-03 0.  1.
         11   -1    0    0    0    0 -0.00000000000E+00 -0.00000000000E+00 -0.45593999997E+02  0.45594000000E+02  0.51100000000E-03 0. -1.
    9900012    2    1    2    0    0  0.42882623166E+02  0.64505393199E+01  0.17591230727E+01  0.47787270270E+02  0.19999996470E+02 0.  0.
         12    1    1    2    0    0 -0.42882623166E+02 -0.64505393199E+01 -0.17591230727E+01  0.43400729730E+02  0.00000000000E+00 0. -1.
         11    1    3    3    0    0  0.12178072768E+02  0.64142811166E+01 -0.52829441931E+01  0.14743064749E+02  0.51100000000E-03 0. -1.
        -11    1    3    3    0    0  0.19838086226E+02 -0.48331963449E-01  0.93561475422E+01  0.21933752488E+02  0.51100000000E-03 0.  1.
        -12    1    3    3    0    0  0.10866464172E+02  0.84590166724E-01 -0.23140802764E+01  0.11110453034E+02  0.00000000000E+00 0.  1.
</event>
<event>
 7    1  0.5317846E-010  0.4778727E+02  0.7816164E-02  0.1312668E+00
        -11   -1    0    0    0    0  0.00000000000E+00  0.00000000000E+00  0.45593999997E+02  0.45594000000E+02  0.51100000000E-03 0. -1.
         11   -1    0    0    0    0 -0.00000000000E+00 -0.00000000000E+00 -0.45593999997E+02  0.45594000000E+02  0.51100000000E-03 0.  1.
    9900012    2    1    2    0    0  0.42121479713E+02 -0.10459548213E+02  0.44928630465E-01  0.47787271658E+02  0.20000002796E+02 0.  0.
         12    1    1    2    0    0 -0.42121479713E+02  0.10459548213E+02 -0.44928630465E-01  0.43400728342E+02  0.00000000000E+00 0. -1.
         11    1    3    3    0    0  0.40367178074E+01 -0.14018996670E+01  0.58465618434E+01  0.72417331477E+01  0.51100000000E-03 0. -1.
        -11    1    3    3    0    0  0.50206943946E+01  0.86496535352E+00  0.13956414319E+01  0.52823624009E+01  0.51100000000E-03 0.  1.
         12    1    3    3    0    0  0.33064067511E+02 -0.99226138997E+01 -0.71972746448E+01  0.35263176109E+02  0.00000000000E+00 0. -1.
</event>
<event>
 7    1  0.5317846E-010  0.4778727E+02  0.7816164E-02  0.1312668E+00
        -11   -1    0    0    0    0  0.00000000000E+00  0.00000000000E+00  0.45593999997E+02  0.45594000000E+02  0.51100000000E-03 0. -1.
         11   -1    0    0    0    0 -0.00000000000E+00 -0.00000000000E+00 -0.45593999997E+02  0.45594000000E+02  0.51100000000E-03 0.  1.
    9900012    2    1    2    0    0  0.16852950710E+02 -0.37076373330E+02 -0.14998140922E+02  0.47787266849E+02  0.19999980869E+02 0.  0.
         12    1    1    2    0    0 -0.16852950710E+02  0.37076373330E+02  0.14998140922E+02  0.43400733151E+02  0.00000000000E+00 0. -1.
         11    1    3    3    0    0  0.59038098280E+01 -0.80921570468E+01 -0.11762496123E+02  0.15449734349E+02  0.51100000000E-03 0. -1.
        -11    1    3    3    0    0  0.11181904521E+02 -0.29486349379E+02 -0.34909845183E+01  0.31728012254E+02  0.51100000000E-03 0.  1.
        -12    1    3    3    0    0 -0.23276363904E+00  0.50213309558E+00  0.25533971917E+00  0.60952024537E+00  0.00000000000E+00 0.  1.
</event>
<event>
 7    1  0.5317846E-010  0.4778725E+02  0.7816164E-02  0.1312668E+00
        -11   -1    0    0    0    0  0.00000000000E+00  0.00000000000E+00  0.45593999997E+02  0.45594000000E+02  0.51100000000E-03 0.  1.
         11   -1    0    0    0    0 -0.00000000000E+00 -0.00000000000E+00 -0.45593999997E+02  0.45594000000E+02  0.51100000000E-03 0. -1.
    9900012    2    1    2    0    0 -0.31164485480E+02  0.11728497097E+02  0.27835987732E+02  0.47787251016E+02  0.19999908680E+02 0.  0.
         12    1    1    2    0    0  0.31164485480E+02 -0.11728497097E+02 -0.27835987732E+02  0.43400748984E+02  0.00000000000E+00 0. -1.
         11    1    3    3    0    0 -0.10024796660E+02 -0.31646217891E+01  0.37247778517E+01  0.11152818004E+02  0.51100000000E-03 0. -1.
        -11    1    3    3    0    0 -0.21748474811E+02  0.12749705159E+02  0.23078808977E+02  0.34178685790E+02  0.51100000000E-03 0.  1.
         12    1    3    3    0    0  0.60878599106E+00  0.21434137273E+01  0.10324009031E+01  0.24557472211E+01  0.00000000000E+00 0. -1.
</event>
<event>
 7    1  0.5317846E-010  0.4778727E+02  0.7816164E-02  0.1312668E+00
        -11   -1    0    0    0    0  0.00000000000E+00  0.00000000000E+00  0.45593999997E+02  0.45594000000E+02  0.51100000000E-03 0. -1.
         11   -1    0    0    0    0 -0.00000000000E+00 -0.00000000000E+00 -0.45593999997E+02  0.45594000000E+02  0.51100000000E-03 0.  1.
    9900012    2    1    2    0    0  0.42654369073E+02  0.79917313456E+01  0.60050816982E+00  0.47787267506E+02  0.19999983868E+02 0.  0.
         12    1    1    2    0    0 -0.42654369073E+02 -0.79917313456E+01 -0.60050816982E+00  0.43400732494E+02  0.00000000000E+00 0. -1.
         11    1    3    3    0    0  0.20242733207E+02  0.72717799261E+01 -0.34785050430E+01  0.21788690382E+02  0.51100000000E-03 0.  1.
        -11    1    3    3    0    0  0.57053252270E+01 -0.46233721744E+01  0.41969462933E+01  0.84581714725E+01  0.51100000000E-03 0. -1.
         12    1    3    3    0    0  0.16706310639E+02  0.53433235939E+01 -0.11793308045E+00  0.17540405651E+02  0.00000000000E+00 0. -1.
</event>
<event>
 7    1  0.5317846E-010  0.4778727E+02  0.7816164E-02  0.1312668E+00
        -11   -1    0    0    0    0  0.00000000000E+00  0.00000000000E+00  0.45593999997E+02  0.45594000000E+02  0.51100000000E-03 0.  1.
         11   -1    0    0    0    0 -0.00000000000E+00 -0.00000000000E+00 -0.45593999997E+02  0.45594000000E+02  0.51100000000E-03 0. -1.
    9900012    2    1    2    0    0  0.32290285755E+02 -0.27773128145E+02  0.83434974077E+01  0.47787272470E+02  0.20000006500E+02 0.  0.
         12    1    1    2    0    0 -0.32290285755E+02  0.27773128145E+02 -0.83434974077E+01  0.43400727530E+02  0.00000000000E+00 0. -1.
         11    1    3    3    0    0  0.10104678471E+02 -0.62482320661E+01  0.11328471699E+02  0.16415821705E+02  0.51100000000E-03 0. -1.
        -11    1    3    3    0    0  0.96653554323E+01 -0.11680585132E+02  0.33495252024E-01  0.15161012066E+02  0.51100000000E-03 0.  1.
         12    1    3    3    0    0  0.12520251852E+02 -0.98443109468E+01 -0.30184695429E+01  0.16210438700E+02  0.00000000000E+00 0. -1.
</event>
<event>
 7    1  0.5317846E-010  0.4778727E+02  0.7816164E-02  0.1312668E+00
        -11   -1    0    0    0    0  0.00000000000E+00  0.00000000000E+00  0.45593999997E+02  0.45594000000E+02  0.51100000000E-03 0.  1.
         11   -1    0    0    0    0 -0.00000000000E+00 -0.00000000000E+00 -0.45593999997E+02  0.45594000000E+02  0.51100000000E-03 0. -1.
    9900012    2    1    2    0    0  0.13225881134E+02  0.10642551898E+02  0.39942903194E+02  0.47787270073E+02  0.19999995571E+02 0.  0.
         12    1    1    2    0    0 -0.13225881134E+02 -0.10642551898E+02 -0.39942903194E+02  0.43400729927E+02  0.00000000000E+00 0. -1.
         11    1    3    3    0    0 -0.27416144975E+00 -0.28150202348E+01  0.18734527730E+01  0.33925401953E+01  0.51100000000E-03 0. -1.
        -11    1    3    3    0    0  0.94969988524E+01  0.15038426121E+02  0.34453032761E+02  0.38773170029E+02  0.51100000000E-03 0.  1.
        -12    1    3    3    0    0  0.40030437313E+01 -0.15808539884E+01  0.36164176599E+01  0.56215598492E+01  0.00000000000E+00 0.  1.
</event>
<event>
 7    1  0.5317846E-010  0.4778727E+02  0.7816164E-02  0.1312668E+00
        -11   -1    0    0    0    0  0.00000000000E+00  0.00000000000E+00  0.45593999997E+02  0.45594000000E+02  0.51100000000E-03 0.  1.
         11   -1    0    0    0    0 -0.00000000000E+00 -0.00000000000E+00 -0.45593999997E+02  0.45594000000E+02  0.51100000000E-03 0. -1.
    9900012    2    1    2    0    0 -0.17619158445E+02 -0.23747370818E+02  0.31768715892E+02  0.47787266429E+02  0.19999978958E+02 0.  0.
         12    1    1    2    0    0  0.17619158445E+02  0.23747370818E+02 -0.31768715892E+02  0.43400733571E+02  0.00000000000E+00 0. -1.
         11    1    3    3    0    0 -0.91414832947E+01 -0.18863564963E+02  0.13388542482E+02  0.24872753567E+02  0.51100000000E-03 0. -1.
        -11    1    3    3    0    0 -0.71848517027E+01 -0.44823296250E+01  0.19434032667E+02  0.21198938625E+02  0.51100000000E-03 0.  1.
        -12    1    3    3    0    0 -0.12928234477E+01 -0.40147622952E+00 -0.10538592576E+01  0.17155742375E+01  0.00000000000E+00 0.  1.
</event>
<event>
 7    1  0.5317846E-010  0.4778727E+02  0.7816164E-02  0.1312668E+00
        -11   -1    0    0    0    0  0.00000000000E+00  0.00000000000E+00  0.45593999997E+02  0.45594000000E+02  0.51100000000E-03 0.  1.
         11   -1    0    0    0    0 -0.00000000000E+00 -0.00000000000E+00 -0.45593999997E+02  0.45594000000E+02  0.51100000000E-03 0. -1.
    9900012    2    1    2    0    0 -0.34853185512E+02 -0.23205608262E+02 -0.11418336857E+02  0.47787271761E+02  0.20000003267E+02 0.  0.
         12    1    1    2    0    0  0.34853185512E+02  0.23205608262E+02  0.11418336857E+02  0.43400728239E+02  0.00000000000E+00 0. -1.
         11    1    3    3    0    0 -0.56643594742E+01 -0.88736192825E+01 -0.89897200669E+01  0.13843451685E+02  0.51100000000E-03 0. -1.
        -11    1    3    3    0    0 -0.25442169288E+01 -0.48372104686E+01  0.59076986701E+00  0.54973315522E+01  0.51100000000E-03 0.  1.
         12    1    3    3    0    0 -0.26644609109E+02 -0.94947785109E+01 -0.30193866567E+01  0.28446488523E+02  0.00000000000E+00 0. -1.
</event>
<event>
 7    1  0.5317846E-010  0.4778727E+02  0.7816164E-02  0.1312668E+00
        -11   -1    0    0    0    0  0.00000000000E+00  0.00000000000E+00  0.45593999997E+02  0.45594000000E+02  0.51100000000E-03 0.  1.
         11   -1    0    0    0    0 -0.00000000000E+00 -0.00000000000E+00 -0.45593999997E+02  0.45594000000E+02  0.51100000000E-03 0. -1.
    9900012    2    1    2    0    0 -0.21496977918E+02  0.33149949661E+02  0.17960634133E+02  0.47787267281E+02  0.19999982839E+02 0.  0.
         12    1    1    2    0    0  0.21496977918E+02 -0.33149949661E+02 -0.17960634133E+02  0.43400732719E+02  0.00000000000E+00 0. -1.
         11    1    3    3    0    0  0.22434942245E+00  0.54211013591E+01 -0.57377954953E+00  0.54559963198E+01  0.51100000000E-03 0. -1.
        -11    1    3    3    0    0 -0.14909847477E+02  0.27421645749E+02  0.14595626954E+02  0.34456966405E+02  0.51100000000E-03 0.  1.
        -12    1    3    3    0    0 -0.68114798641E+01  0.30720255232E+00  0.39387867282E+01  0.78743045558E+01  0.00000000000E+00 0.  1.
</event>
<event>
 7    1  0.5521392E-010  0.4778727E+02  0.7816164E-02  0.1312668E+00
        -11   -1    0    0    0    0  0.00000000000E+00  0.00000000000E+00  0.45593999997E+02  0.45594000000E+02  0.51100000000E-03 0.  1.
         11   -1    0    0    0    0 -0.00000000000E+00 -0.00000000000E+00 -0.45593999997E+02  0.45594000000E+02  0.51100000000E-03 0. -1.
    9900012    2    1    2    0    0  0.31914104960E+02  0.17513567084E+02  0.23630237835E+02  0.47787271117E+02  0.20000000332E+02 0.  0.
         12    1    1    2    0    0 -0.31914104960E+02 -0.17513567084E+02 -0.23630237835E+02  0.43400728883E+02  0.00000000000E+00 0. -1.
         11    1    3    3    0    0 -0.18045451989E+01 -0.49521160348E+00  0.13317699947E+01  0.22967867744E+01  0.51100000000E-03 0. -1.
        -11    1    3    3    0    0  0.22363433046E+02  0.61554097611E+01  0.12038877588E+02  0.26133250482E+02  0.51100000000E-03 0.  1.
         12    1    3    3    0    0  0.11355217113E+02  0.11853368927E+02  0.10259590253E+02  0.19357233861E+02  0.00000000000E+00 0. -1.
</event>
<event>
 7    1  0.5317846E-010  0.4778727E+02  0.7816164E-02  0.1312668E+00
        -11   -1    0    0    0    0  0.00000000000E+00  0.00000000000E+00  0.45593999997E+02  0.45594000000E+02  0.51100000000E-03 0. -1.
         11   -1    0    0    0    0 -0.00000000000E+00 -0.00000000000E+00 -0.45593999997E+02  0.45594000000E+02  0.51100000000E-03 0.  1.
    9900012    2    1    2    0    0  0.19756779515E+02 -0.36806118026E+02 -0.11772962103E+02  0.47787270770E+02  0.19999998751E+02 0.  0.
         12    1    1    2    0    0 -0.19756779515E+02  0.36806118026E+02  0.11772962103E+02  0.43400729230E+02  0.00000000000E+00 0. -1.
         11    1    3    3    0    0  0.17930806598E+02 -0.16174824722E+02 -0.42022851873E+01  0.24511180737E+02  0.51100000000E-03 0. -1.
        -11    1    3    3    0    0 -0.25922062666E+01 -0.96511818943E+01 -0.49576242241E+01  0.11155397057E+02  0.51100000000E-03 0.  1.
        -12    1    3    3    0    0  0.44181791837E+01 -0.10980111410E+02 -0.26130526914E+01  0.12120692977E+02  0.00000000000E+00 0.  1.
</event>
<event>
 7    1  0.5317846E-010  0.4778727E+02  0.7816164E-02  0.1312668E+00
        -11   -1    0    0    0    0  0.00000000000E+00  0.00000000000E+00  0.45593999997E+02  0.45594000000E+02  0.51100000000E-03 0.  1.
         11   -1    0    0    0    0 -0.00000000000E+00 -0.00000000000E+00 -0.45593999997E+02  0.45594000000E+02  0.51100000000E-03 0. -1.
    9900012    2    1    2    0    0 -0.27934236630E+02  0.14119697527E+02  0.30065531909E+02  0.47787266788E+02  0.19999980593E+02 0.  0.
         12    1    1    2    0    0  0.27934236630E+02 -0.14119697527E+02 -0.30065531909E+02  0.43400733212E+02  0.00000000000E+00 0. -1.
         11    1    3    3    0    0  0.11557200319E+01 -0.77120749716E+00  0.36451766855E+01  0.39009951455E+01  0.51100000000E-03 0. -1.
        -11    1    3    3    0    0 -0.29531135671E+02  0.15663084148E+02  0.23573952099E+02  0.40904173343E+02  0.51100000000E-03 0.  1.
        -12    1    3    3    0    0  0.44117900892E+00 -0.77217912404E+00  0.28464031253E+01  0.29820982997E+01  0.00000000000E+00 0.  1.
</event>
<event>
 7    1  0.5317846E-010  0.4778727E+02  0.7816164E-02  0.1312668E+00
        -11   -1    0    0    0    0  0.00000000000E+00  0.00000000000E+00  0.45593999997E+02  0.45594000000E+02  0.51100000000E-03 0.  1.
         11   -1    0    0    0    0 -0.00000000000E+00 -0.00000000000E+00 -0.45593999997E+02  0.45594000000E+02  0.51100000000E-03 0. -1.
    9900012    2    1    2    0    0 -0.99914522309E+01 -0.77069783971E+01  0.41525860533E+02  0.47787265828E+02  0.19999976216E+02 0.  0.
         12    1    1    2    0    0  0.99914522309E+01  0.77069783971E+01 -0.41525860533E+02  0.43400734172E+02  0.00000000000E+00 0. -1.
         11    1    3    3    0    0 -0.12259852114E+02 -0.44443038892E+01  0.31978888260E+02  0.34535562910E+02  0.51100000000E-03 0.  1.
        -11    1    3    3    0    0  0.99867830001E+00 -0.44764223306E+01  0.12262083492E+01  0.47475575200E+01  0.51100000000E-03 0. -1.
         12    1    3    3    0    0  0.12697215834E+01  0.12137478226E+01  0.83207639236E+01  0.85041453979E+01  0.00000000000E+00 0. -1.
</event>
<event>
 7    1  0.5317846E-010  0.4778727E+02  0.7816164E-02  0.1312668E+00
        -11   -1    0    0    0    0  0.00000000000E+00  0.00000000000E+00  0.45593999997E+02  0.45594000000E+02  0.51100000000E-03 0.  1.
         11   -1    0    0    0    0 -0.00000000000E+00 -0.00000000000E+00 -0.45593999997E+02  0.45594000000E+02  0.51100000000E-03 0. -1.
    9900012    2    1    2    0    0 -0.36956819305E+02 -0.19899900338E+02 -0.11036781552E+02  0.47787273351E+02  0.20000010516E+02 0.  0.
         12    1    1    2    0    0  0.36956819305E+02  0.19899900338E+02  0.11036781552E+02  0.43400726649E+02  0.00000000000E+00 0. -1.
         11    1    3    3    0    0 -0.10909732753E+02 -0.82431390799E+01 -0.67054478378E+01  0.15229400566E+02  0.51100000000E-03 0. -1.
        -11    1    3    3    0    0 -0.12348204119E+02 -0.58135413325E+00  0.41054317285E+01  0.13025770132E+02  0.51100000000E-03 0.  1.
        -12    1    3    3    0    0 -0.13698882434E+02 -0.11075407125E+02 -0.84367654426E+01  0.19532102654E+02  0.00000000000E+00 0.  1.
</event>
<event>
 7    1  0.5317846E-010  0.4778726E+02  0.7816164E-02  0.1312668E+00
        -11   -1    0    0    0    0  0.00000000000E+00  0.00000000000E+00  0.45593999997E+02  0.45594000000E+02  0.51100000000E-03 0.  1.
         11   -1    0    0    0    0 -0.00000000000E+00 -0.00000000000E+00 -0.45593999997E+02  0.45594000000E+02  0.51100000000E-03 0. -1.
    9900012    2    1    2    0    0 -0.64096284093E+01 -0.12037429404E+02  0.41202436381E+02  0.47787264906E+02  0.19999972011E+02 0.  0.
         12    1    1    2    0    0  0.64096284093E+01  0.12037429404E+02 -0.41202436381E+02  0.43400735094E+02  0.00000000000E+00 0. -1.
         11    1    3    3    0    0 -0.72978991438E+01 -0.17220009154E+01  0.13730079105E+02  0.15644158384E+02  0.51100000000E-03 0. -1.
        -11    1    3    3    0    0  0.38707035176E+01 -0.57310030981E+01  0.25350278920E+02  0.26276669953E+02  0.51100000000E-03 0.  1.
        -12    1    3    3    0    0 -0.29824327831E+01 -0.45844253904E+01  0.21220783565E+01  0.58664365689E+01  0.00000000000E+00 0.  1.
</event>
<event>
 7    1  0.5317846E-010  0.4778727E+02  0.7816164E-02  0.1312668E+00
        -11   -1    0    0    0    0  0.00000000000E+00  0.00000000000E+00  0.45593999997E+02  0.45594000000E+02  0.51100000000E-03 0. -1.
         11   -1    0    0    0    0 -0.00000000000E+00 -0.00000000000E+00 -0.45593999997E+02  0.45594000000E+02  0.51100000000E-03 0.  1.
    9900012    2    1    2    0    0 -0.36546303855E+02 -0.20360852028E+02 -0.11551044483E+02  0.47787271326E+02  0.20000001284E+02 0.  0.
         12    1    1    2    0    0  0.36546303855E+02  0.20360852028E+02  0.11551044483E+02  0.43400728674E+02  0.00000000000E+00 0. -1.
         11    1    3    3    0    0 -0.21086591329E+02 -0.46852928881E+01  0.12060948407E+00  0.21601177057E+02  0.51100000000E-03 0. -1.
        -11    1    3    3    0    0 -0.44217946103E+01 -0.97835109150E+01 -0.37270318944E+01  0.11364863413E+02  0.51100000000E-03 0.  1.
        -12    1    3    3    0    0 -0.11037917916E+02 -0.58920482248E+01 -0.79446220731E+01  0.14821230856E+02  0.00000000000E+00 0.  1.
</event>
<event>
 7    1  0.5317846E-010  0.4778728E+02  0.7816164E-02  0.1312668E+00
        -11   -1    0    0    0    0  0.00000000000E+00  0.00000000000E+00  0.45593999997E+02  0.45594000000E+02  0.51100000000E-03 0.  1.
         11   -1    0    0    0    0 -0.00000000000E+00 -0.00000000000E+00 -0.45593999997E+02  0.45594000000E+02  0.51100000000E-03 0. -1.
    9900012    2    1    2    0    0 -0.79747906128E+01  0.42396660292E+02  0.47485422957E+01  0.47787277158E+02  0.20000027875E+02 0.  0.
         12    1    1    2    0    0  0.79747906128E+01 -0.42396660292E+02 -0.47485422957E+01  0.43400722842E+02  0.00000000000E+00 0. -1.
         11    1    3    3    0    0  0.26756050003E+01 -0.25601836374E+00  0.15360298110E+01  0.30957705602E+01  0.51100000000E-03 0. -1.
        -11    1    3    3    0    0 -0.94226019779E+00  0.26666997209E+01 -0.16227857304E+01  0.32607630195E+01  0.51100000000E-03 0.  1.
         12    1    3    3    0    0 -0.97081354153E+01  0.39985978935E+02  0.48352982151E+01  0.41430743578E+02  0.00000000000E+00 0. -1.
</event>
<event>
 7    1  0.5317846E-010  0.4778722E+02  0.7816164E-02  0.1312668E+00
        -11   -1    0    0    0    0  0.00000000000E+00  0.00000000000E+00  0.45593999997E+02  0.45594000000E+02  0.51100000000E-03 0.  1.
         11   -1    0    0    0    0 -0.00000000000E+00 -0.00000000000E+00 -0.45593999997E+02  0.45594000000E+02  0.51100000000E-03 0. -1.
    9900012    2    1    2    0    0 -0.31961244478E+02 -0.26373519035E+02  0.12905195524E+02  0.47787219748E+02  0.19999766120E+02 0.  0.
         12    1    1    2    0    0  0.31961244478E+02  0.26373519035E+02 -0.12905195524E+02  0.43400780252E+02  0.00000000000E+00 0. -1.
         11    1    3    3    0    0 -0.78605973714E+01 -0.84802306742E+00  0.73978625277E+01  0.10827580727E+02  0.51100000000E-03 0. -1.
        -11    1    3    3    0    0 -0.74055282883E+01 -0.62584566113E+01 -0.28913572348E+01  0.10117809808E+02  0.51100000000E-03 0.  1.
         12    1    3    3    0    0 -0.16695118819E+02 -0.19267039357E+02  0.83986902315E+01  0.26841829214E+02  0.00000000000E+00 0. -1.
</event>
<event>
 7    1  0.5317846E-010  0.4778727E+02  0.7816164E-02  0.1312668E+00
        -11   -1    0    0    0    0  0.00000000000E+00  0.00000000000E+00  0.45593999997E+02  0.45594000000E+02  0.51100000000E-03 0. -1.
         11   -1    0    0    0    0 -0.00000000000E+00 -0.00000000000E+00 -0.45593999997E+02  0.45594000000E+02  0.51100000000E-03 0.  1.
    9900012    2    1    2    0    0 -0.24189154251E+02  0.12415339307E+02 -0.33828503553E+02  0.47787268599E+02  0.19999988852E+02 0.  0.
         12    1    1    2    0    0  0.24189154251E+02 -0.12415339307E+02  0.33828503553E+02  0.43400731401E+02  0.00000000000E+00 0. -1.
         11    1    3    3    0    0 -0.20013817479E+02  0.65565484204E+01 -0.12736419460E+02  0.24612143308E+02  0.51100000000E-03 0.  1.
        -11    1    3    3    0    0 -0.45574807017E+00  0.21102958040E+00 -0.11090343619E+02  0.11101709852E+02  0.51100000000E-03 0. -1.
        -12    1    3    3    0    0 -0.37195887025E+01  0.56477613059E+01 -0.10001740473E+02  0.12073415440E+02  0.00000000000E+00 0.  1.
</event>
<event>
 7    1  0.5317846E-010  0.4778726E+02  0.7816164E-02  0.1312668E+00
        -11   -1    0    0    0    0  0.00000000000E+00  0.00000000000E+00  0.45593999997E+02  0.45594000000E+02  0.51100000000E-03 0.  1.
         11   -1    0    0    0    0 -0.00000000000E+00 -0.00000000000E+00 -0.45593999997E+02  0.45594000000E+02  0.51100000000E-03 0. -1.
    9900012    2    1    2    0    0  0.11992082226E+02  0.21729663002E+02  0.35603871054E+02  0.47787263551E+02  0.19999965833E+02 0.  0.
         12    1    1    2    0    0 -0.11992082226E+02 -0.21729663002E+02 -0.35603871054E+02  0.43400736449E+02  0.00000000000E+00 0. -1.
         11    1    3    3    0    0  0.83339634426E+00  0.59052622166E+01  0.45372992720E+01  0.74935810036E+01  0.51100000000E-03 0. -1.
        -11    1    3    3    0    0  0.81446426823E+01  0.18532177153E+02  0.19782078752E+02  0.28303841338E+02  0.51100000000E-03 0.  1.
        -12    1    3    3    0    0  0.30140431994E+01 -0.27077763681E+01  0.11284493030E+02  0.11989841209E+02  0.00000000000E+00 0.  1.
</event>
<event>
 7    1  0.5317846E-010  0.4778727E+02  0.7816164E-02  0.1312668E+00
        -11   -1    0    0    0    0  0.00000000000E+00  0.00000000000E+00  0.45593999997E+02  0.45594000000E+02  0.51100000000E-03 0.  1.
         11   -1    0    0    0    0 -0.00000000000E+00 -0.00000000000E+00 -0.45593999997E+02  0.45594000000E+02  0.51100000000E-03 0. -1.
    9900012    2    1    2    0    0 -0.17685280773E+02 -0.24887104819E+02  0.30846168205E+02  0.47787271490E+02  0.20000002031E+02 0.  0.
         12    1    1    2    0    0  0.17685280773E+02  0.24887104819E+02 -0.30846168205E+02  0.43400728510E+02  0.00000000000E+00 0. -1.
         11    1    3    3    0    0 -0.15672862160E+02 -0.16752890161E+02  0.27268809187E+02  0.35635458350E+02  0.51100000000E-03 0. -1.
        -11    1    3    3    0    0 -0.20012035360E+01 -0.25364045371E+01  0.53760022478E+01  0.62721259552E+01  0.51100000000E-03 0.  1.
         12    1    3    3    0    0 -0.11215076350E-01 -0.55978101208E+01 -0.17986432296E+01  0.58796871850E+01  0.00000000000E+00 0. -1.
</event>
<event>
 7    1  0.5317846E-010  0.4778727E+02  0.7816164E-02  0.1312668E+00
        -11   -1    0    0    0    0  0.00000000000E+00  0.00000000000E+00  0.45593999997E+02  0.45594000000E+02  0.51100000000E-03 0.  1.
         11   -1    0    0    0    0 -0.00000000000E+00 -0.00000000000E+00 -0.45593999997E+02  0.45594000000E+02  0.51100000000E-03 0. -1.
    9900012    2    1    2    0    0  0.21875102959E+02 -0.14357017249E+02  0.34626279451E+02  0.47787270716E+02  0.19999998502E+02 0.  0.
         12    1    1    2    0    0 -0.21875102959E+02  0.14357017249E+02 -0.34626279451E+02  0.43400729284E+02  0.00000000000E+00 0. -1.
         11    1    3    3    0    0  0.14182683885E+02 -0.39565030406E+00  0.99714035842E+01  0.17341682474E+02  0.51100000000E-03 0. -1.
        -11    1    3    3    0    0  0.91986999152E+01 -0.11308081362E+02  0.22055737365E+02  0.26437555394E+02  0.51100000000E-03 0.  1.
         12    1    3    3    0    0 -0.15062808407E+01 -0.26532855832E+01  0.25991385017E+01  0.40080328477E+01  0.00000000000E+00 0. -1.
</event>
<event>
 7    1  0.5317846E-010  0.4778728E+02  0.7816164E-02  0.1312668E+00
        -11   -1    0    0    0    0  0.00000000000E+00  0.00000000000E+00  0.45593999997E+02  0.45594000000E+02  0.51100000000E-03 0.  1.
         11   -1    0    0    0    0 -0.00000000000E+00 -0.00000000000E+00 -0.45593999997E+02  0.45594000000E+02  0.51100000000E-03 0. -1.
    9900012    2    1    2    0    0  0.37397288148E+02  0.15120389504E+02  0.16013724954E+02  0.47787277351E+02  0.20000028753E+02 0.  0.
         12    1    1    2    0    0 -0.37397288148E+02 -0.15120389504E+02 -0.16013724954E+02  0.43400722649E+02  0.00000000000E+00 0. -1.
         11    1    3    3    0    0  0.76115994891E+01  0.14444047023E+01 -0.43888069894E+01  0.89041776026E+01  0.51100000000E-03 0. -1.
        -11    1    3    3    0    0  0.15179455474E+02  0.45098272070E+01  0.10458520906E+02  0.18977225027E+02  0.51100000000E-03 0.  1.
         12    1    3    3    0    0  0.14606233184E+02  0.91661575948E+01  0.99440110383E+01  0.19905874721E+02  0.00000000000E+00 0. -1.
</event>
<event>
 7    1  0.5317846E-010  0.4778728E+02  0.7816164E-02  0.1312668E+00
        -11   -1    0    0    0    0  0.00000000000E+00  0.00000000000E+00  0.45593999997E+02  0.45594000000E+02  0.51100000000E-03 0. -1.
         11   -1    0    0    0    0 -0.00000000000E+00 -0.00000000000E+00 -0.45593999997E+02  0.45594000000E+02  0.51100000000E-03 0.  1.
    9900012    2    1    2    0    0 -0.42600320945E+02  0.70904245266E+01  0.43082570562E+01  0.47787279459E+02  0.20000038367E+02 0.  0.
         12    1    1    2    0    0  0.42600320945E+02 -0.70904245266E+01 -0.43082570562E+01  0.43400720541E+02  0.00000000000E+00 0. -1.
         11    1    3    3    0    0 -0.14380007313E+02 -0.48763125178E+01  0.46747684949E+01  0.15887620805E+02  0.51100000000E-03 0. -1.
        -11    1    3    3    0    0 -0.99811642627E+01  0.39625304123E+00 -0.21797404862E+01  0.10224085551E+02  0.51100000000E-03 0.  1.
         12    1    3    3    0    0 -0.18239149369E+02  0.11570484003E+02  0.18132290475E+01  0.21675573103E+02  0.00000000000E+00 0. -1.
</event>
<event>
 7    1  0.5317846E-010  0.4778727E+02  0.7816164E-02  0.1312668E+00
        -11   -1    0    0    0    0  0.00000000000E+00  0.00000000000E+00  0.45593999997E+02  0.45594000000E+02  0.51100000000E-03 0.  1.
         11   -1    0    0    0    0 -0.00000000000E+00 -0.00000000000E+00 -0.45593999997E+02  0.45594000000E+02  0.51100000000E-03 0. -1.
    9900012    2    1    2    0    0  0.22339835600E+02 -0.32643930773E+02 -0.17858578211E+02  0.47787270897E+02  0.19999999328E+02 0.  0.
         12    1    1    2    0    0 -0.22339835600E+02  0.32643930773E+02  0.17858578211E+02  0.43400729103E+02  0.00000000000E+00 0. -1.
         11    1    3    3    0    0  0.13365582606E+02 -0.65493310769E+01 -0.11419379024E+02  0.18759924134E+02  0.51100000000E-03 0. -1.
        -11    1    3    3    0    0  0.36551543752E+01 -0.19026284924E+02 -0.54495745145E+01  0.20126041194E+02  0.51100000000E-03 0.  1.
        -12    1    3    3    0    0  0.53190986192E+01 -0.70683147722E+01 -0.98962467236E+00  0.89013055690E+01  0.00000000000E+00 0.  1.
</event>
<event>
 7    1  0.5317846E-010  0.4778727E+02  0.7816164E-02  0.1312668E+00
        -11   -1    0    0    0    0  0.00000000000E+00  0.00000000000E+00  0.45593999997E+02  0.45594000000E+02  0.51100000000E-03 0. -1.
         11   -1    0    0    0    0 -0.00000000000E+00 -0.00000000000E+00 -0.45593999997E+02  0.45594000000E+02  0.51100000000E-03 0.  1.
    9900012    2    1    2    0    0  0.35599016886E+01 -0.37137771393E+02 -0.22175126859E+02  0.47787271719E+02  0.20000003076E+02 0.  0.
         12    1    1    2    0    0 -0.35599016886E+01  0.37137771393E+02  0.22175126859E+02  0.43400728281E+02  0.00000000000E+00 0. -1.
         11    1    3    3    0    0  0.19679194127E+01 -0.26814330436E+01 -0.11672218269E+01  0.35249392955E+01  0.51100000000E-03 0. -1.
        -11    1    3    3    0    0  0.25719031477E+01  0.13751981114E+01 -0.28614886339E+01  0.40858258786E+01  0.51100000000E-03 0.  1.
        -12    1    3    3    0    0 -0.97992087185E+00 -0.35831536461E+02 -0.18146416398E+02  0.40176506545E+02  0.00000000000E+00 0.  1.
</event>
<event>
 7    1  0.5317846E-010  0.4778727E+02  0.7816164E-02  0.1312668E+00
        -11   -1    0    0    0    0  0.00000000000E+00  0.00000000000E+00  0.45593999997E+02  0.45594000000E+02  0.51100000000E-03 0. -1.
         11   -1    0    0    0    0 -0.00000000000E+00 -0.00000000000E+00 -0.45593999997E+02  0.45594000000E+02  0.51100000000E-03 0.  1.
    9900012    2    1    2    0    0  0.35379527112E+02 -0.22425227837E+02 -0.11358760975E+02  0.47787271514E+02  0.20000002141E+02 0.  0.
         12    1    1    2    0    0 -0.35379527112E+02  0.22425227837E+02  0.11358760975E+02  0.43400728486E+02  0.00000000000E+00 0. -1.
         11    1    3    3    0    0  0.15159863487E+01 -0.87814818314E+01 -0.26262726220E+01  0.92903146293E+01  0.51100000000E-03 0. -1.
        -11    1    3    3    0    0  0.25176666784E+02 -0.12708645709E+02 -0.37819109247E+01  0.28454825190E+02  0.51100000000E-03 0.  1.
         12    1    3    3    0    0  0.86868739796E+01 -0.93510029686E+00 -0.49505774280E+01  0.10042131695E+02  0.00000000000E+00 0. -1.
</event>
<event>
 7    1  0.5317846E-010  0.4778727E+02  0.7816164E-02  0.1312668E+00
        -11   -1    0    0    0    0  0.00000000000E+00  0.00000000000E+00  0.45593999997E+02  0.45594000000E+02  0.51100000000E-03 0.  1.
         11   -1    0    0    0    0 -0.00000000000E+00 -0.00000000000E+00 -0.45593999997E+02  0.45594000000E+02  0.51100000000E-03 0. -1.
    9900012    2    1    2    0    0 -0.95495478996E+01  0.21330702828E+02  0.36570895119E+02  0.47787272840E+02  0.20000008188E+02 0.  0.
         12    1    1    2    0    0  0.95495478996E+01 -0.21330702828E+02 -0.36570895119E+02  0.43400727160E+02  0.00000000000E+00 0. -1.
         11    1    3    3    0    0 -0.53355821662E+01 -0.23560264104E+01  0.65498646327E+01  0.87704061745E+01  0.51100000000E-03 0. -1.
        -11    1    3    3    0    0 -0.35724597962E+01  0.10414588700E+02  0.93563151625E+01  0.14448763285E+02  0.51100000000E-03 0.  1.
         12    1    3    3    0    0 -0.64150593724E+00  0.13272140538E+02  0.20664715323E+02  0.24568103381E+02  0.00000000000E+00 0. -1.
</event>
<event>
 7    1  0.5317846E-010  0.4778727E+02  0.7816164E-02  0.1312668E+00
        -11   -1    0    0    0    0  0.00000000000E+00  0.00000000000E+00  0.45593999997E+02  0.45594000000E+02  0.51100000000E-03 0.  1.
         11   -1    0    0    0    0 -0.00000000000E+00 -0.00000000000E+00 -0.45593999997E+02  0.45594000000E+02  0.51100000000E-03 0. -1.
    9900012    2    1    2    0    0  0.29316535689E+02 -0.86072743748E+01  0.30823345735E+02  0.47787273287E+02  0.20000010223E+02 0.  0.
         12    1    1    2    0    0 -0.29316535689E+02  0.86072743748E+01 -0.30823345735E+02  0.43400726713E+02  0.00000000000E+00 0. -1.
         11    1    3    3    0    0  0.17217250254E+02 -0.29846544201E+01  0.76632405508E+01  0.19080543082E+02  0.51100000000E-03 0.  1.
        -11    1    3    3    0    0  0.10562518637E+02 -0.60722193165E+01  0.23987613337E+02  0.26904353574E+02  0.51100000000E-03 0. -1.
        -12    1    3    3    0    0  0.15367667978E+01  0.44959936186E+00 -0.82750815217E+00  0.18023766307E+01  0.00000000000E+00 0.  1.
</event>
<event>
 7    1  0.5317846E-010  0.4778727E+02  0.7816164E-02  0.1312668E+00
        -11   -1    0    0    0    0  0.00000000000E+00  0.00000000000E+00  0.45593999997E+02  0.45594000000E+02  0.51100000000E-03 0. -1.
         11   -1    0    0    0    0 -0.00000000000E+00 -0.00000000000E+00 -0.45593999997E+02  0.45594000000E+02  0.51100000000E-03 0.  1.
    9900012    2    1    2    0    0  0.38425226825E+00 -0.43378437372E+02 -0.13367733977E+01  0.47787269110E+02  0.19999991180E+02 0.  0.
         12    1    1    2    0    0 -0.38425226825E+00  0.43378437372E+02  0.13367733977E+01  0.43400730890E+02  0.00000000000E+00 0. -1.
         11    1    3    3    0    0 -0.39990797342E+01 -0.12884854129E+02  0.13855909767E+01  0.13562152014E+02  0.51100000000E-03 0. -1.
        -11    1    3    3    0    0 -0.18152963470E+01 -0.50177550618E+01  0.45539393002E+01  0.70150930214E+01  0.51100000000E-03 0.  1.
        -12    1    3    3    0    0  0.61986283495E+01 -0.25475828181E+02 -0.72763036745E+01  0.27210024074E+02  0.00000000000E+00 0.  1.
</event>
<event>
 7    1  0.5317846E-010  0.4778727E+02  0.7816164E-02  0.1312668E+00
        -11   -1    0    0    0    0  0.00000000000E+00  0.00000000000E+00  0.45593999997E+02  0.45594000000E+02  0.51100000000E-03 0. -1.
         11   -1    0    0    0    0 -0.00000000000E+00 -0.00000000000E+00 -0.45593999997E+02  0.45594000000E+02  0.51100000000E-03 0.  1.
    9900012    2    1    2    0    0 -0.42288446437E+02 -0.17919360949E+01  0.95968366240E+01  0.47787274082E+02  0.20000013850E+02 0.  0.
         12    1    1    2    0    0  0.42288446437E+02  0.17919360949E+01 -0.95968366240E+01  0.43400725918E+02  0.00000000000E+00 0. -1.
         11    1    3    3    0    0 -0.14335290287E+01 -0.23682725343E+01  0.14934981228E+01  0.31455138176E+01  0.51100000000E-03 0. -1.
        -11    1    3    3    0    0 -0.36285879592E+02  0.55595756723E+01  0.45099649821E+01  0.36985317679E+02  0.51100000000E-03 0.  1.
        -12    1    3    3    0    0 -0.45690378164E+01 -0.49832392329E+01  0.35933735190E+01  0.76564425856E+01  0.00000000000E+00 0.  1.
</event>
<event>
 7    1  0.5317846E-010  0.4778727E+02  0.7816164E-02  0.1312668E+00
        -11   -1    0    0    0    0  0.00000000000E+00  0.00000000000E+00  0.45593999997E+02  0.45594000000E+02  0.51100000000E-03 0.  1.
         11   -1    0    0    0    0 -0.00000000000E+00 -0.00000000000E+00 -0.45593999997E+02  0.45594000000E+02  0.51100000000E-03 0. -1.
    9900012    2    1    2    0    0 -0.15441815897E+02 -0.34045985102E+02  0.22046412822E+02  0.47787273070E+02  0.20000009237E+02 0.  0.
         12    1    1    2    0    0  0.15441815897E+02  0.34045985102E+02 -0.22046412822E+02  0.43400726930E+02  0.00000000000E+00 0. -1.
         11    1    3    3    0    0 -0.15336232830E+01  0.14996296856E+01 -0.14303647769E+01  0.25781453070E+01  0.51100000000E-03 0. -1.
        -11    1    3    3    0    0 -0.56529062424E+01 -0.74509519430E+01  0.57810509023E+01  0.10995116354E+02  0.51100000000E-03 0.  1.
         12    1    3    3    0    0 -0.82552863716E+01 -0.28094662844E+02  0.17695726696E+02  0.34214011409E+02  0.00000000000E+00 0. -1.
</event>
<event>
 7    1  0.5317846E-010  0.4778727E+02  0.7816164E-02  0.1312668E+00
        -11   -1    0    0    0    0  0.00000000000E+00  0.00000000000E+00  0.45593999997E+02  0.45594000000E+02  0.51100000000E-03 0.  1.
         11   -1    0    0    0    0 -0.00000000000E+00 -0.00000000000E+00 -0.45593999997E+02  0.45594000000E+02  0.51100000000E-03 0. -1.
    9900012    2    1    2    0    0 -0.98139249014E+01  0.23507628352E+02  0.35138325598E+02  0.47787266843E+02  0.19999980844E+02 0.  0.
         12    1    1    2    0    0  0.98139249014E+01 -0.23507628352E+02 -0.35138325598E+02  0.43400733157E+02  0.00000000000E+00 0. -1.
         11    1    3    3    0    0  0.26899897041E+01  0.92448703875E+01  0.67288575145E+01  0.11746539780E+02  0.51100000000E-03 0.  1.
        -11    1    3    3    0    0 -0.12910939455E+02  0.71355753590E+01  0.16303459583E+02  0.21986622931E+02  0.51100000000E-03 0. -1.
         12    1    3    3    0    0  0.40702484901E+00  0.71271826058E+01  0.12106008501E+02  0.14054104132E+02  0.00000000000E+00 0. -1.
</event>
<event>
 7    1  0.5317846E-010  0.4778725E+02  0.7816164E-02  0.1312668E+00
        -11   -1    0    0    0    0  0.00000000000E+00  0.00000000000E+00  0.45593999997E+02  0.45594000000E+02  0.51100000000E-03 0. -1.
         11   -1    0    0    0    0 -0.00000000000E+00 -0.00000000000E+00 -0.45593999997E+02  0.45594000000E+02  0.51100000000E-03 0.  1.
    9900012    2    1    2    0    0 -0.17181508930E+02  0.19727020354E+02 -0.34630409979E+02  0.47787252581E+02  0.19999915819E+02 0.  0.
         12    1    1    2    0    0  0.17181508930E+02 -0.19727020354E+02  0.34630409979E+02  0.43400747419E+02  0.00000000000E+00 0. -1.
         11    1    3    3    0    0 -0.81034144241E+01 -0.10281139864E+01 -0.44803183945E+01  0.93164154521E+01  0.51100000000E-03 0. -1.
        -11    1    3    3    0    0 -0.73827005278E+01  0.19179312999E+02 -0.22475789542E+02  0.30455072320E+02  0.51100000000E-03 0.  1.
        -12    1    3    3    0    0 -0.16953939779E+01  0.15758213422E+01 -0.76743020426E+01  0.80157648097E+01  0.00000000000E+00 0.  1.
</event>
<event>
 7    1  0.5317846E-010  0.4778728E+02  0.7816164E-02  0.1312668E+00
        -11   -1    0    0    0    0  0.00000000000E+00  0.00000000000E+00  0.45593999997E+02  0.45594000000E+02  0.51100000000E-03 0.  1.
         11   -1    0    0    0    0 -0.00000000000E+00 -0.00000000000E+00 -0.45593999997E+02  0.45594000000E+02  0.51100000000E-03 0. -1.
    9900012    2    1    2    0    0  0.32352914666E+02 -0.26395237964E+01  0.28808761239E+02  0.47787275382E+02  0.20000019776E+02 0.  0.
         12    1    1    2    0    0 -0.32352914666E+02  0.26395237964E+01 -0.28808761239E+02  0.43400724618E+02  0.00000000000E+00 0. -1.
         11    1    3    3    0    0  0.30914410067E+01 -0.28611346078E+01  0.14389967280E+01  0.44512706709E+01  0.51100000000E-03 0. -1.
        -11    1    3    3    0    0  0.16547379176E+02 -0.65463566300E+01  0.21168305081E+02  0.27654433333E+02  0.51100000000E-03 0.  1.
        -12    1    3    3    0    0  0.12714094483E+02  0.67679674413E+01  0.62014594307E+01  0.15681571378E+02  0.00000000000E+00 0.  1.
</event>
<event>
 7    1  0.5317846E-010  0.4778727E+02  0.7816164E-02  0.1312668E+00
        -11   -1    0    0    0    0  0.00000000000E+00  0.00000000000E+00  0.45593999997E+02  0.45594000000E+02  0.51100000000E-03 0.  1.
         11   -1    0    0    0    0 -0.00000000000E+00 -0.00000000000E+00 -0.45593999997E+02  0.45594000000E+02  0.51100000000E-03 0. -1.
    9900012    2    1    2    0    0  0.35089683863E+02  0.46860043094E+00  0.25536603383E+02  0.47787267146E+02  0.19999982225E+02 0.  0.
         12    1    1    2    0    0 -0.35089683863E+02 -0.46860043094E+00 -0.25536603383E+02  0.43400732854E+02  0.00000000000E+00 0. -1.
         11    1    3    3    0    0  0.32081484494E+01  0.13014471462E+01 -0.58496029173E+00  0.35111479535E+01  0.51100000000E-03 0. -1.
        -11    1    3    3    0    0  0.74440827531E+01 -0.68841817786E+01  0.45113850119E+01  0.11097698941E+02  0.51100000000E-03 0.  1.
        -12    1    3    3    0    0  0.24437452660E+02  0.60513350633E+01  0.21610178662E+02  0.33178420252E+02  0.00000000000E+00 0.  1.
</event>
<event>
 7    1  0.5317846E-010  0.4778726E+02  0.7816164E-02  0.1312668E+00
        -11   -1    0    0    0    0  0.00000000000E+00  0.00000000000E+00  0.45593999997E+02  0.45594000000E+02  0.51100000000E-03 0. -1.
         11   -1    0    0    0    0 -0.00000000000E+00 -0.00000000000E+00 -0.45593999997E+02  0.45594000000E+02  0.51100000000E-03 0.  1.
    9900012    2    1    2    0    0 -0.31793933855E+02  0.15397416807E+02 -0.25212877069E+02  0.47787264472E+02  0.19999970032E+02 0.  0.
         12    1    1    2    0    0  0.31793933855E+02 -0.15397416807E+02  0.25212877069E+02  0.43400735528E+02  0.00000000000E+00 0. -1.
         11    1    3    3    0    0 -0.77995348174E+00 -0.25512243064E+01  0.86426397075E+00  0.28042869624E+01  0.51100000000E-03 0. -1.
        -11    1    3    3    0    0 -0.31272477639E+02  0.17597708340E+02 -0.24763881832E+02  0.43599277977E+02  0.51100000000E-03 0.  1.
        -12    1    3    3    0    0  0.25849726527E+00  0.35093277290E+00 -0.13132592079E+01  0.13836995319E+01  0.00000000000E+00 0.  1.
</event>
<event>
 7    1  0.5317846E-010  0.4778731E+02  0.7816164E-02  0.1312668E+00
        -11   -1    0    0    0    0  0.00000000000E+00  0.00000000000E+00  0.45593999997E+02  0.45594000000E+02  0.51100000000E-03 0. -1.
         11   -1    0    0    0    0 -0.00000000000E+00 -0.00000000000E+00 -0.45593999997E+02  0.45594000000E+02  0.51100000000E-03 0.  1.
    9900012    2    1    2    0    0 -0.40181292549E+02  0.38499655222E+01  0.15945582061E+02  0.47787307694E+02  0.20000167098E+02 0.  0.
         12    1    1    2    0    0  0.40181292549E+02 -0.38499655222E+01 -0.15945582061E+02  0.43400692306E+02  0.00000000000E+00 0. -1.
         11    1    3    3    0    0 -0.36460970845E+01  0.38595331201E+01  0.74480515311E+01  0.91467749358E+01  0.51100000000E-03 0. -1.
        -11    1    3    3    0    0 -0.19931499563E+02 -0.22048098972E+01  0.44729213267E+00  0.20058064015E+02  0.51100000000E-03 0.  1.
         12    1    3    3    0    0 -0.16603695902E+02  0.21952422992E+01  0.80502383971E+01  0.18582468743E+02  0.00000000000E+00 0. -1.
</event>
<event>
 7    1  0.5317846E-010  0.4778728E+02  0.7816164E-02  0.1312668E+00
        -11   -1    0    0    0    0  0.00000000000E+00  0.00000000000E+00  0.45593999997E+02  0.45594000000E+02  0.51100000000E-03 0. -1.
         11   -1    0    0    0    0 -0.00000000000E+00 -0.00000000000E+00 -0.45593999997E+02  0.45594000000E+02  0.51100000000E-03 0.  1.
    9900012    2    1    2    0    0 -0.35435146654E+02  0.21334495404E+02 -0.13145819142E+02  0.47787275658E+02  0.20000021035E+02 0.  0.
         12    1    1    2    0    0  0.35435146654E+02 -0.21334495404E+02  0.13145819142E+02  0.43400724342E+02  0.00000000000E+00 0. -1.
         11    1    3    3    0    0 -0.53910571241E+01 -0.30534150458E+01 -0.15641437180E+00  0.61976855417E+01  0.51100000000E-03 0. -1.
        -11    1    3    3    0    0 -0.28374248776E+02  0.21819739322E+02 -0.13893449700E+02  0.38395663330E+02  0.51100000000E-03 0.  1.
         12    1    3    3    0    0 -0.16698407535E+01  0.25681711272E+01  0.90404493038E+00  0.31939267864E+01  0.00000000000E+00 0. -1.
</event>
<event>
 7    1  0.5317846E-010  0.4778727E+02  0.7816164E-02  0.1312668E+00
        -11   -1    0    0    0    0  0.00000000000E+00  0.00000000000E+00  0.45593999997E+02  0.45594000000E+02  0.51100000000E-03 0.  1.
         11   -1    0    0    0    0 -0.00000000000E+00 -0.00000000000E+00 -0.45593999997E+02  0.45594000000E+02  0.51100000000E-03 0. -1.
    9900012    2    1    2    0    0  0.37061048535E+02 -0.18504033363E+02  0.12950018527E+02  0.47787267874E+02  0.19999985545E+02 0.  0.
         12    1    1    2    0    0 -0.37061048535E+02  0.18504033363E+02 -0.12950018527E+02  0.43400732126E+02  0.00000000000E+00 0. -1.
         11    1    3    3    0    0  0.28507454500E+01  0.26588013805E+01  0.55521810318E+01  0.67840024228E+01  0.51100000000E-03 0. -1.
        -11    1    3    3    0    0  0.19519432153E+02 -0.10500403798E+02  0.35397795147E+01  0.22445417144E+02  0.51100000000E-03 0.  1.
         12    1    3    3    0    0  0.14690870932E+02 -0.10662430946E+02  0.38580579806E+01  0.18557848307E+02  0.00000000000E+00 0. -1.
</event>
<event>
 7    1  0.5317846E-010  0.4778727E+02  0.7816164E-02  0.1312668E+00
        -11   -1    0    0    0    0  0.00000000000E+00  0.00000000000E+00  0.45593999997E+02  0.45594000000E+02  0.51100000000E-03 0.  1.
         11   -1    0    0    0    0 -0.00000000000E+00 -0.00000000000E+00 -0.45593999997E+02  0.45594000000E+02  0.51100000000E-03 0. -1.
    9900012    2    1    2    0    0 -0.35257134014E+02 -0.20826533294E+02  0.14381010899E+02  0.47787268873E+02  0.19999990098E+02 0.  0.
         12    1    1    2    0    0  0.35257134014E+02  0.20826533294E+02 -0.14381010899E+02  0.43400731127E+02  0.00000000000E+00 0. -1.
         11    1    3    3    0    0 -0.14449248835E+01 -0.87384019912E+01  0.32646001263E+01  0.94395493284E+01  0.51100000000E-03 0. -1.
        -11    1    3    3    0    0 -0.31212867939E+02 -0.13175383587E+02  0.10410132734E+02  0.35442978450E+02  0.51100000000E-03 0.  1.
         12    1    3    3    0    0 -0.25993411916E+01  0.10872522833E+01  0.70627803839E+00  0.29047410944E+01  0.00000000000E+00 0. -1.
</event>
<event>
 7    1  0.5317846E-010  0.4778727E+02  0.7816164E-02  0.1312668E+00
        -11   -1    0    0    0    0  0.00000000000E+00  0.00000000000E+00  0.45593999997E+02  0.45594000000E+02  0.51100000000E-03 0. -1.
         11   -1    0    0    0    0 -0.00000000000E+00 -0.00000000000E+00 -0.45593999997E+02  0.45594000000E+02  0.51100000000E-03 0.  1.
    9900012    2    1    2    0    0 -0.23310987906E+02 -0.32778394703E+02 -0.16303317193E+02  0.47787268809E+02  0.19999989807E+02 0.  0.
         12    1    1    2    0    0  0.23310987906E+02  0.32778394703E+02  0.16303317193E+02  0.43400731191E+02  0.00000000000E+00 0. -1.
         11    1    3    3    0    0  0.32712173580E+00  0.71934020643E+00 -0.20911450844E+00  0.81742773465E+00  0.51100000000E-03 0. -1.
        -11    1    3    3    0    0 -0.29275555600E+01 -0.66411127316E+01 -0.10243736745E+02  0.12554246399E+02  0.51100000000E-03 0.  1.
        -12    1    3    3    0    0 -0.20710554082E+02 -0.26856622178E+02 -0.58504659393E+01  0.34415594676E+02  0.00000000000E+00 0.  1.
</event>
<event>
 7    1  0.5317846E-010  0.4778728E+02  0.7816164E-02  0.1312668E+00
        -11   -1    0    0    0    0  0.00000000000E+00  0.00000000000E+00  0.45593999997E+02  0.45594000000E+02  0.51100000000E-03 0.  1.
         11   -1    0    0    0    0 -0.00000000000E+00 -0.00000000000E+00 -0.45593999997E+02  0.45594000000E+02  0.51100000000E-03 0. -1.
    9900012    2    1    2    0    0  0.20504921381E+02 -0.18906563292E+02  0.33252257979E+02  0.47787278842E+02  0.20000035552E+02 0.  0.
         12    1    1    2    0    0 -0.20504921381E+02  0.18906563292E+02 -0.33252257979E+02  0.43400721158E+02  0.00000000000E+00 0. -1.
         11    1    3    3    0    0  0.91383042939E+01 -0.53310906577E+01  0.85309449419E+01  0.13590664253E+02  0.51100000000E-03 0. -1.
        -11    1    3    3    0    0 -0.67651517433E+00 -0.10061386058E+02  0.16018009156E+02  0.18927910074E+02  0.51100000000E-03 0.  1.
        -12    1    3    3    0    0  0.12043132261E+02 -0.35140865759E+01  0.87033038812E+01  0.15268704515E+02  0.00000000000E+00 0.  1.
</event>
<event>
 7    1  0.5317846E-010  0.4778725E+02  0.7816164E-02  0.1312668E+00
        -11   -1    0    0    0    0  0.00000000000E+00  0.00000000000E+00  0.45593999997E+02  0.45594000000E+02  0.51100000000E-03 0.  1.
         11   -1    0    0    0    0 -0.00000000000E+00 -0.00000000000E+00 -0.45593999997E+02  0.45594000000E+02  0.51100000000E-03 0. -1.
    9900012    2    1    2    0    0  0.12975617050E+02 -0.12972941484E+02  0.39331428136E+02  0.47787250147E+02  0.19999904721E+02 0.  0.
         12    1    1    2    0    0 -0.12975617050E+02  0.12972941484E+02 -0.39331428136E+02  0.43400749853E+02  0.00000000000E+00 0. -1.
         11    1    3    3    0    0  0.10244434965E+02 -0.85457194405E+01  0.21412582087E+02  0.25228484703E+02  0.51100000000E-03 0.  1.
        -11    1    3    3    0    0 -0.33180629169E+01  0.20705334609E+01  0.97075497447E+01  0.10465809698E+02  0.51100000000E-03 0. -1.
         12    1    3    3    0    0  0.60492450016E+01 -0.64977555040E+01  0.82112963042E+01  0.12092955746E+02  0.00000000000E+00 0. -1.
</event>
<event>
 7    1  0.5317846E-010  0.4778727E+02  0.7816164E-02  0.1312668E+00
        -11   -1    0    0    0    0  0.00000000000E+00  0.00000000000E+00  0.45593999997E+02  0.45594000000E+02  0.51100000000E-03 0.  1.
         11   -1    0    0    0    0 -0.00000000000E+00 -0.00000000000E+00 -0.45593999997E+02  0.45594000000E+02  0.51100000000E-03 0. -1.
    9900012    2    1    2    0    0 -0.22645692990E+02 -0.57125421610E+01  0.36580906906E+02  0.47787270755E+02  0.19999998679E+02 0.  0.
         12    1    1    2    0    0  0.22645692990E+02  0.57125421610E+01 -0.36580906906E+02  0.43400729245E+02  0.00000000000E+00 0. -1.
         11    1    3    3    0    0  0.76626618160E+00  0.11824253108E+00 -0.33916057363E+00  0.84627141807E+00  0.51100000000E-03 0. -1.
        -11    1    3    3    0    0 -0.22550465726E+02 -0.97083495401E+01  0.34304759827E+02  0.42185211892E+02  0.51100000000E-03 0.  1.
        -12    1    3    3    0    0 -0.86149344585E+00  0.38775648481E+01  0.26153076521E+01  0.47557874452E+01  0.00000000000E+00 0.  1.
</event>
<event>
 7    1  0.5317846E-010  0.4778729E+02  0.7816164E-02  0.1312668E+00
        -11   -1    0    0    0    0  0.00000000000E+00  0.00000000000E+00  0.45593999997E+02  0.45594000000E+02  0.51100000000E-03 0. -1.
         11   -1    0    0    0    0 -0.00000000000E+00 -0.00000000000E+00 -0.45593999997E+02  0.45594000000E+02  0.51100000000E-03 0.  1.
    9900012    2    1    2    0    0  0.34433841635E+02 -0.25438443072E+02 -0.71286623894E+01  0.47787289602E+02  0.20000084610E+02 0.  0.
         12    1    1    2    0    0 -0.34433841635E+02  0.25438443072E+02  0.71286623894E+01  0.43400710398E+02  0.00000000000E+00 0. -1.
         11    1    3    3    0    0  0.22592525585E+02 -0.73665532947E+01 -0.50428454482E+01  0.24292357033E+02  0.51100000000E-03 0. -1.
        -11    1    3    3    0    0  0.42111406851E+01 -0.13701060924E+02 -0.30319607613E+01  0.14650787099E+02  0.51100000000E-03 0.  1.
         12    1    3    3    0    0  0.76301753643E+01 -0.43708288533E+01  0.94614382011E+00  0.88441454694E+01  0.00000000000E+00 0. -1.
</event>
<event>
 7    1  0.5317846E-010  0.4778727E+02  0.7816164E-02  0.1312668E+00
        -11   -1    0    0    0    0  0.00000000000E+00  0.00000000000E+00  0.45593999997E+02  0.45594000000E+02  0.51100000000E-03 0.  1.
         11   -1    0    0    0    0 -0.00000000000E+00 -0.00000000000E+00 -0.45593999997E+02  0.45594000000E+02  0.51100000000E-03 0. -1.
    9900012    2    1    2    0    0  0.16850125770E+02 -0.27399451980E+02  0.29137034693E+02  0.47787268463E+02  0.19999988230E+02 0.  0.
         12    1    1    2    0    0 -0.16850125770E+02  0.27399451980E+02 -0.29137034693E+02  0.43400731537E+02  0.00000000000E+00 0. -1.
         11    1    3    3    0    0  0.67282025330E+00 -0.16718506655E+02  0.10448268230E+02  0.19726313927E+02  0.51100000000E-03 0. -1.
        -11    1    3    3    0    0  0.11121866179E+02 -0.10449134638E+02  0.16702989697E+02  0.22624548329E+02  0.51100000000E-03 0.  1.
         12    1    3    3    0    0  0.50554393373E+01 -0.23181068706E+00  0.19857767650E+01  0.54364062071E+01  0.00000000000E+00 0. -1.
</event>
<event>
 7    1  0.5317846E-010  0.4778727E+02  0.7816164E-02  0.1312668E+00
        -11   -1    0    0    0    0  0.00000000000E+00  0.00000000000E+00  0.45593999997E+02  0.45594000000E+02  0.51100000000E-03 0. -1.
         11   -1    0    0    0    0 -0.00000000000E+00 -0.00000000000E+00 -0.45593999997E+02  0.45594000000E+02  0.51100000000E-03 0.  1.
    9900012    2    1    2    0    0 -0.35375491714E+02  0.23148489031E+02  0.98155746607E+01  0.47787268850E+02  0.19999989996E+02 0.  0.
         12    1    1    2    0    0  0.35375491714E+02 -0.23148489031E+02 -0.98155746607E+01  0.43400731150E+02  0.00000000000E+00 0. -1.
         11    1    3    3    0    0 -0.57342207378E+00 -0.65793059721E-01  0.45514618404E+01  0.45879131146E+01  0.51100000000E-03 0. -1.
        -11    1    3    3    0    0 -0.19998698002E+02  0.10161102413E+02 -0.11091904049E+01  0.22459435159E+02  0.51100000000E-03 0.  1.
         12    1    3    3    0    0 -0.14803371638E+02  0.13053179678E+02  0.63733032253E+01  0.20739920577E+02  0.00000000000E+00 0. -1.
</event>
<event>
 7    1  0.5317846E-010  0.4778727E+02  0.7816164E-02  0.1312668E+00
        -11   -1    0    0    0    0  0.00000000000E+00  0.00000000000E+00  0.45593999997E+02  0.45594000000E+02  0.51100000000E-03 0. -1.
         11   -1    0    0    0    0 -0.00000000000E+00 -0.00000000000E+00 -0.45593999997E+02  0.45594000000E+02  0.51100000000E-03 0.  1.
    9900012    2    1    2    0    0  0.15335857738E+02  0.40395237144E+02 -0.40815860001E+01  0.47787273499E+02  0.20000011193E+02 0.  0.
         12    1    1    2    0    0 -0.15335857738E+02 -0.40395237144E+02  0.40815860001E+01  0.43400726501E+02  0.00000000000E+00 0. -1.
         11    1    3    3    0    0 -0.65938623682E+00  0.41608753101E+01  0.43706244353E+00  0.42354099443E+01  0.51100000000E-03 0. -1.
        -11    1    3    3    0    0  0.10800555959E+02  0.18377850637E+02  0.60542386974E+01  0.22159675303E+02  0.51100000000E-03 0.  1.
        -12    1    3    3    0    0  0.51946880159E+01  0.17856511197E+02 -0.10572887141E+02  0.21392188252E+02  0.00000000000E+00 0.  1.
</event>
<event>
 7    1  0.5317846E-010  0.4778727E+02  0.7816164E-02  0.1312668E+00
        -11   -1    0    0    0    0  0.00000000000E+00  0.00000000000E+00  0.45593999997E+02  0.45594000000E+02  0.51100000000E-03 0. -1.
         11   -1    0    0    0    0 -0.00000000000E+00 -0.00000000000E+00 -0.45593999997E+02  0.45594000000E+02  0.51100000000E-03 0.  1.
    9900012    2    1    2    0    0 -0.48248967733E+01  0.20147286609E+02 -0.38136998079E+02  0.47787269487E+02  0.19999992899E+02 0.  0.
         12    1    1    2    0    0  0.48248967733E+01 -0.20147286609E+02  0.38136998079E+02  0.43400730513E+02  0.00000000000E+00 0. -1.
         11    1    3    3    0    0  0.25513329790E+01  0.11769333694E+02 -0.99012297056E+01  0.15590409409E+02  0.51100000000E-03 0. -1.
        -11    1    3    3    0    0 -0.73566281702E+01  0.87132331255E+01 -0.29108079120E+02  0.31262128524E+02  0.51100000000E-03 0.  1.
        -12    1    3    3    0    0 -0.19601582072E-01 -0.33528021058E+00  0.87231074627E+00  0.93473155488E+00  0.00000000000E+00 0.  1.
</event>
<event>
 7    1  0.5317846E-010  0.4778727E+02  0.7816164E-02  0.1312668E+00
        -11   -1    0    0    0    0  0.00000000000E+00  0.00000000000E+00  0.45593999997E+02  0.45594000000E+02  0.51100000000E-03 0.  1.
         11   -1    0    0    0    0 -0.00000000000E+00 -0.00000000000E+00 -0.45593999997E+02  0.45594000000E+02  0.51100000000E-03 0. -1.
    9900012    2    1    2    0    0 -0.28490696016E+02 -0.25588321286E+02  0.20424039310E+02  0.47787270427E+02  0.19999997187E+02 0.  0.
         12    1    1    2    0    0  0.28490696016E+02  0.25588321286E+02 -0.20424039310E+02  0.43400729573E+02  0.00000000000E+00 0. -1.
         11    1    3    3    0    0  0.15810566482E-01  0.91251626956E+00 -0.14104315385E+01  0.16799563393E+01  0.51100000000E-03 0. -1.
        -11    1    3    3    0    0 -0.28451101711E+02 -0.24923547185E+02  0.22887905008E+02  0.44209779334E+02  0.51100000000E-03 0.  1.
        -12    1    3    3    0    0 -0.55404871412E-01 -0.15772903705E+01 -0.10534341601E+01  0.18975347539E+01  0.00000000000E+00 0.  1.
</event>
<event>
 7    1  0.5317846E-010  0.4778727E+02  0.7816164E-02  0.1312668E+00
        -11   -1    0    0    0    0  0.00000000000E+00  0.00000000000E+00  0.45593999997E+02  0.45594000000E+02  0.51100000000E-03 0.  1.
         11   -1    0    0    0    0 -0.00000000000E+00 -0.00000000000E+00 -0.45593999997E+02  0.45594000000E+02  0.51100000000E-03 0. -1.
    9900012    2    1    2    0    0  0.19876799343E+01 -0.29209511128E+01  0.43256681087E+02  0.47787270910E+02  0.19999999386E+02 0.  0.
         12    1    1    2    0    0 -0.19876799343E+01  0.29209511128E+01 -0.43256681087E+02  0.43400729090E+02  0.00000000000E+00 0. -1.
         11    1    3    3    0    0 -0.15088646843E+01 -0.38357756090E+01  0.15848339657E+01  0.44160554931E+01  0.51100000000E-03 0. -1.
        -11    1    3    3    0    0  0.45831956509E+01  0.55839813811E+01  0.24522186562E+02  0.25564118692E+02  0.51100000000E-03 0.  1.
        -12    1    3    3    0    0 -0.10866510323E+01 -0.46691568849E+01  0.17149660559E+02  0.17807096725E+02  0.00000000000E+00 0.  1.
</event>
<event>
 7    1  0.5317846E-010  0.4778727E+02  0.7816164E-02  0.1312668E+00
        -11   -1    0    0    0    0  0.00000000000E+00  0.00000000000E+00  0.45593999997E+02  0.45594000000E+02  0.51100000000E-03 0. -1.
         11   -1    0    0    0    0 -0.00000000000E+00 -0.00000000000E+00 -0.45593999997E+02  0.45594000000E+02  0.51100000000E-03 0.  1.
    9900012    2    1    2    0    0  0.26940195601E+02  0.32221846275E+02 -0.10936255051E+02  0.47787272000E+02  0.20000004358E+02 0.  0.
         12    1    1    2    0    0 -0.26940195601E+02 -0.32221846275E+02  0.10936255051E+02  0.43400728000E+02  0.00000000000E+00 0. -1.
         11    1    3    3    0    0  0.50941327578E+01  0.19023368877E+01 -0.84292363259E+01  0.10031006903E+02  0.51100000000E-03 0. -1.
        -11    1    3    3    0    0  0.10606292974E+02  0.11509976997E+02  0.37207689665E+00  0.15656035980E+02  0.51100000000E-03 0.  1.
         12    1    3    3    0    0  0.11239769868E+02  0.18809532390E+02 -0.28790956216E+01  0.22100229117E+02  0.00000000000E+00 0. -1.
</event>
<event>
 7    1  0.5317846E-010  0.4778727E+02  0.7816164E-02  0.1312668E+00
        -11   -1    0    0    0    0  0.00000000000E+00  0.00000000000E+00  0.45593999997E+02  0.45594000000E+02  0.51100000000E-03 0. -1.
         11   -1    0    0    0    0 -0.00000000000E+00 -0.00000000000E+00 -0.45593999997E+02  0.45594000000E+02  0.51100000000E-03 0.  1.
    9900012    2    1    2    0    0  0.27940962926E+02  0.94764272596E+01  0.31829600457E+02  0.47787267886E+02  0.19999985597E+02 0.  0.
         12    1    1    2    0    0 -0.27940962926E+02 -0.94764272596E+01 -0.31829600457E+02  0.43400732114E+02  0.00000000000E+00 0. -1.
         11    1    3    3    0    0  0.77048642707E+00  0.11547849277E+01  0.49019279045E+01  0.50947104929E+01  0.51100000000E-03 0. -1.
        -11    1    3    3    0    0  0.84344649005E+01  0.10928325978E+02  0.81112297487E+01  0.16011263383E+02  0.51100000000E-03 0.  1.
        -12    1    3    3    0    0  0.18736011598E+02 -0.26066836457E+01  0.18816442804E+02  0.26681294009E+02  0.00000000000E+00 0.  1.
</event>
<event>
 7    1  0.5317846E-010  0.4778727E+02  0.7816164E-02  0.1312668E+00
        -11   -1    0    0    0    0  0.00000000000E+00  0.00000000000E+00  0.45593999997E+02  0.45594000000E+02  0.51100000000E-03 0.  1.
         11   -1    0    0    0    0 -0.00000000000E+00 -0.00000000000E+00 -0.45593999997E+02  0.45594000000E+02  0.51100000000E-03 0. -1.
    9900012    2    1    2    0    0  0.20792194045E+02  0.26302634451E+02  0.27558653579E+02  0.47787270751E+02  0.19999998662E+02 0.  0.
         12    1    1    2    0    0 -0.20792194045E+02 -0.26302634451E+02 -0.27558653579E+02  0.43400729249E+02  0.00000000000E+00 0. -1.
         11    1    3    3    0    0  0.39430579380E+01  0.10450020319E+02  0.27342192729E+00  0.11172528379E+02  0.51100000000E-03 0. -1.
        -11    1    3    3    0    0  0.63572619050E+01  0.25280378059E+01  0.11848684736E+02  0.13681998550E+02  0.51100000000E-03 0.  1.
        -12    1    3    3    0    0  0.10491874202E+02  0.13324576326E+02  0.15436546915E+02  0.22932743822E+02  0.00000000000E+00 0.  1.
</event>
<event>
 7    1  0.5317846E-010  0.4778727E+02  0.7816164E-02  0.1312668E+00
        -11   -1    0    0    0    0  0.00000000000E+00  0.00000000000E+00  0.45593999997E+02  0.45594000000E+02  0.51100000000E-03 0.  1.
         11   -1    0    0    0    0 -0.00000000000E+00 -0.00000000000E+00 -0.45593999997E+02  0.45594000000E+02  0.51100000000E-03 0. -1.
    9900012    2    1    2    0    0  0.28198111908E+01 -0.90043754921E+01  0.42362639122E+02  0.47787270668E+02  0.19999998285E+02 0.  0.
         12    1    1    2    0    0 -0.28198111908E+01  0.90043754921E+01 -0.42362639122E+02  0.43400729332E+02  0.00000000000E+00 0. -1.
         11    1    3    3    0    0  0.59608722740E+01 -0.55437739832E+01  0.23144515118E+02  0.24534343450E+02  0.51100000000E-03 0. -1.
        -11    1    3    3    0    0 -0.72851425380E+01 -0.43907157750E+01  0.10174726179E+02  0.13261852808E+02  0.51100000000E-03 0.  1.
        -12    1    3    3    0    0  0.41440814547E+01  0.93011426604E+00  0.90433978244E+01  0.99910744098E+01  0.00000000000E+00 0.  1.
</event>
<event>
 7    1  0.5317846E-010  0.4778727E+02  0.7816164E-02  0.1312668E+00
        -11   -1    0    0    0    0  0.00000000000E+00  0.00000000000E+00  0.45593999997E+02  0.45594000000E+02  0.51100000000E-03 0.  1.
         11   -1    0    0    0    0 -0.00000000000E+00 -0.00000000000E+00 -0.45593999997E+02  0.45594000000E+02  0.51100000000E-03 0. -1.
    9900012    2    1    2    0    0 -0.27793654526E+02 -0.31086023985E+02  0.12033085570E+02  0.47787271118E+02  0.20000000337E+02 0.  0.
         12    1    1    2    0    0  0.27793654526E+02  0.31086023985E+02 -0.12033085570E+02  0.43400728882E+02  0.00000000000E+00 0. -1.
         11    1    3    3    0    0 -0.55176713491E+00 -0.46349747293E+01 -0.39334123594E+01  0.61040290598E+01  0.51100000000E-03 0. -1.
        -11    1    3    3    0    0 -0.19801383710E+02 -0.15133378829E+02  0.94612383865E+01  0.26657625245E+02  0.51100000000E-03 0.  1.
         12    1    3    3    0    0 -0.74405036810E+01 -0.11317670426E+02  0.65052595430E+01  0.15025616814E+02  0.00000000000E+00 0. -1.
</event>
<event>
 7    1  0.5317846E-010  0.4778728E+02  0.7816164E-02  0.1312668E+00
        -11   -1    0    0    0    0  0.00000000000E+00  0.00000000000E+00  0.45593999997E+02  0.45594000000E+02  0.51100000000E-03 0. -1.
         11   -1    0    0    0    0 -0.00000000000E+00 -0.00000000000E+00 -0.45593999997E+02  0.45594000000E+02  0.51100000000E-03 0.  1.
    9900012    2    1    2    0    0 -0.39175594022E+00 -0.32236052490E+02 -0.29056946879E+02  0.47787277485E+02  0.20000029367E+02 0.  0.
         12    1    1    2    0    0  0.39175594022E+00  0.32236052490E+02  0.29056946879E+02  0.43400722515E+02  0.00000000000E+00 0. -1.
         11    1    3    3    0    0  0.73524346542E+01 -0.20726212506E+02 -0.14420602466E+02  0.26298059927E+02  0.51100000000E-03 0.  1.
        -11    1    3    3    0    0 -0.48459132759E+01 -0.57196948295E+01 -0.12671011221E+02  0.14722510318E+02  0.51100000000E-03 0. -1.
         12    1    3    3    0    0 -0.28982773185E+01 -0.57901451542E+01 -0.19653331918E+01  0.67667072403E+01  0.00000000000E+00 0. -1.
</event>
<event>
 7    1  0.5317846E-010  0.4778727E+02  0.7816164E-02  0.1312668E+00
        -11   -1    0    0    0    0  0.00000000000E+00  0.00000000000E+00  0.45593999997E+02  0.45594000000E+02  0.51100000000E-03 0.  1.
         11   -1    0    0    0    0 -0.00000000000E+00 -0.00000000000E+00 -0.45593999997E+02  0.45594000000E+02  0.51100000000E-03 0. -1.
    9900012    2    1    2    0    0  0.38586502580E+02 -0.73689903269E+01  0.18450012897E+02  0.47787272175E+02  0.20000005156E+02 0.  0.
         12    1    1    2    0    0 -0.38586502580E+02  0.73689903269E+01 -0.18450012897E+02  0.43400727825E+02  0.00000000000E+00 0. -1.
         11    1    3    3    0    0  0.51554575320E+01  0.17792917695E+00 -0.44138775072E+00  0.51773762239E+01  0.51100000000E-03 0. -1.
        -11    1    3    3    0    0 -0.16744901290E+01 -0.20474139154E+01  0.10163296020E+01  0.28335043769E+01  0.51100000000E-03 0.  1.
        -12    1    3    3    0    0  0.35105535177E+02 -0.54995055885E+01  0.17875071046E+02  0.39776391575E+02  0.00000000000E+00 0.  1.
</event>
<event>
 7    1  0.5317846E-010  0.4778730E+02  0.7816164E-02  0.1312668E+00
        -11   -1    0    0    0    0  0.00000000000E+00  0.00000000000E+00  0.45593999997E+02  0.45594000000E+02  0.51100000000E-03 0. -1.
         11   -1    0    0    0    0 -0.00000000000E+00 -0.00000000000E+00 -0.45593999997E+02  0.45594000000E+02  0.51100000000E-03 0.  1.
    9900012    2    1    2    0    0 -0.19358198874E+02 -0.37773236692E+02 -0.90589044683E+01  0.47787296964E+02  0.20000118179E+02 0.  0.
         12    1    1    2    0    0  0.19358198874E+02  0.37773236692E+02  0.90589044683E+01  0.43400703036E+02  0.00000000000E+00 0. -1.
         11    1    3    3    0    0 -0.76827478435E+01 -0.64549761355E+01 -0.22410398079E+01  0.10281711483E+02  0.51100000000E-03 0. -1.
        -11    1    3    3    0    0 -0.77679317257E+01 -0.10292019550E+02  0.40511591588E+01  0.13515854413E+02  0.51100000000E-03 0.  1.
        -12    1    3    3    0    0 -0.39075193051E+01 -0.21026241006E+02 -0.10869023819E+02  0.23989731068E+02  0.00000000000E+00 0.  1.
</event>
<event>
 7    1  0.5317846E-010  0.4778727E+02  0.7816164E-02  0.1312668E+00
        -11   -1    0    0    0    0  0.00000000000E+00  0.00000000000E+00  0.45593999997E+02  0.45594000000E+02  0.51100000000E-03 0.  1.
         11   -1    0    0    0    0 -0.00000000000E+00 -0.00000000000E+00 -0.45593999997E+02  0.45594000000E+02  0.51100000000E-03 0. -1.
    9900012    2    1    2    0    0  0.42503165529E+02  0.45032343832E+01  0.75382385198E+01  0.47787271436E+02  0.20000001785E+02 0.  0.
         12    1    1    2    0    0 -0.42503165529E+02 -0.45032343832E+01 -0.75382385198E+01  0.43400728564E+02  0.00000000000E+00 0. -1.
         11    1    3    3    0    0  0.26045265970E+02  0.24952032236E+01 -0.65355811268E+00  0.26172677682E+02  0.51100000000E-03 0. -1.
        -11    1    3    3    0    0  0.14119845651E+02  0.14031616164E+01  0.12262674322E+01  0.14242283378E+02  0.51100000000E-03 0.  1.
         12    1    3    3    0    0  0.23380539079E+01  0.60486954323E+00  0.69655292002E+01  0.73723103759E+01  0.00000000000E+00 0. -1.
</event>
<event>
 7    1  0.5317846E-010  0.4778728E+02  0.7816164E-02  0.1312668E+00
        -11   -1    0    0    0    0  0.00000000000E+00  0.00000000000E+00  0.45593999997E+02  0.45594000000E+02  0.51100000000E-03 0.  1.
         11   -1    0    0    0    0 -0.00000000000E+00 -0.00000000000E+00 -0.45593999997E+02  0.45594000000E+02  0.51100000000E-03 0. -1.
    9900012    2    1    2    0    0  0.18421756199E+02  0.58295222228E+01  0.38862290848E+02  0.47787284790E+02  0.20000062671E+02 0.  0.
         12    1    1    2    0    0 -0.18421756199E+02 -0.58295222228E+01 -0.38862290848E+02  0.43400715210E+02  0.00000000000E+00 0. -1.
         11    1    3    3    0    0 -0.55635519530E-01  0.12175394076E+01  0.11916633080E+01  0.17045700985E+01  0.51100000000E-03 0.  1.
        -11    1    3    3    0    0 -0.25131374684E+01 -0.87547018846E+00  0.58769450446E-01  0.26619094830E+01  0.51100000000E-03 0. -1.
        -12    1    3    3    0    0  0.20990529187E+02  0.54874530037E+01  0.37611858090E+02  0.43420805208E+02  0.00000000000E+00 0.  1.
</event>
<event>
 7    1  0.5317846E-010  0.4778726E+02  0.7816164E-02  0.1312668E+00
        -11   -1    0    0    0    0  0.00000000000E+00  0.00000000000E+00  0.45593999997E+02  0.45594000000E+02  0.51100000000E-03 0. -1.
         11   -1    0    0    0    0 -0.00000000000E+00 -0.00000000000E+00 -0.45593999997E+02  0.45594000000E+02  0.51100000000E-03 0.  1.
    9900012    2    1    2    0    0 -0.26274105817E+02 -0.29551924044E+02 -0.17887960156E+02  0.47787263028E+02  0.19999963448E+02 0.  0.
         12    1    1    2    0    0  0.26274105817E+02  0.29551924044E+02  0.17887960156E+02  0.43400736972E+02  0.00000000000E+00 0. -1.
         11    1    3    3    0    0 -0.35903250351E+01 -0.12941898035E+02  0.11371057219E+01  0.13478730218E+02  0.51100000000E-03 0. -1.
        -11    1    3    3    0    0 -0.14542143734E+02 -0.92304437649E+01 -0.14132801215E+02  0.22280285163E+02  0.51100000000E-03 0.  1.
        -12    1    3    3    0    0 -0.81416370474E+01 -0.73795822444E+01 -0.48922646629E+01  0.12028247646E+02  0.00000000000E+00 0.  1.
</event>
<event>
 7    1  0.5317846E-010  0.4778728E+02  0.7816164E-02  0.1312668E+00
        -11   -1    0    0    0    0  0.00000000000E+00  0.00000000000E+00  0.45593999997E+02  0.45594000000E+02  0.51100000000E-03 0. -1.
         11   -1    0    0    0    0 -0.00000000000E+00 -0.00000000000E+00 -0.45593999997E+02  0.45594000000E+02  0.51100000000E-03 0.  1.
    9900012    2    1    2    0    0 -0.14121659600E+02  0.39818095157E+02 -0.99358397705E+01  0.47787275539E+02  0.20000020491E+02 0.  0.
         12    1    1    2    0    0  0.14121659600E+02 -0.39818095157E+02  0.99358397705E+01  0.43400724461E+02  0.00000000000E+00 0. -1.
         11    1    3    3    0    0 -0.85030488894E+00  0.85157069773E+01 -0.53353924827E+01  0.10084973819E+02  0.51100000000E-03 0. -1.
        -11    1    3    3    0    0 -0.14965117799E+02  0.23797547437E+02 -0.80922040659E+01  0.29253406326E+02  0.51100000000E-03 0.  1.
        -12    1    3    3    0    0  0.16937630880E+01  0.75048407430E+01  0.34917567781E+01  0.84488953937E+01  0.00000000000E+00 0.  1.
</event>
<event>
 7    1  0.5317846E-010  0.4778727E+02  0.7816164E-02  0.1312668E+00
        -11   -1    0    0    0    0  0.00000000000E+00  0.00000000000E+00  0.45593999997E+02  0.45594000000E+02  0.51100000000E-03 0.  1.
         11   -1    0    0    0    0 -0.00000000000E+00 -0.00000000000E+00 -0.45593999997E+02  0.45594000000E+02  0.51100000000E-03 0. -1.
    9900012    2    1    2    0    0 -0.35676003936E+02 -0.14923427748E+02  0.19701201687E+02  0.47787270738E+02  0.19999998603E+02 0.  0.
         12    1    1    2    0    0  0.35676003936E+02  0.14923427748E+02 -0.19701201687E+02  0.43400729262E+02  0.00000000000E+00 0. -1.
         11    1    3    3    0    0  0.49366310490E+00  0.52377399154E+00  0.88068920095E+00  0.11373900761E+01  0.51100000000E-03 0. -1.
        -11    1    3    3    0    0 -0.94494153450E+01 -0.12684493351E+02  0.73156771216E+01  0.17427190076E+02  0.51100000000E-03 0.  1.
        -12    1    3    3    0    0 -0.26720251695E+02 -0.27627083882E+01  0.11504835365E+02  0.29222690586E+02  0.00000000000E+00 0.  1.
</event>
<event>
 7    1  0.5317846E-010  0.4778727E+02  0.7816164E-02  0.1312668E+00
        -11   -1    0    0    0    0  0.00000000000E+00  0.00000000000E+00  0.45593999997E+02  0.45594000000E+02  0.51100000000E-03 0.  1.
         11   -1    0    0    0    0 -0.00000000000E+00 -0.00000000000E+00 -0.45593999997E+02  0.45594000000E+02  0.51100000000E-03 0. -1.
    9900012    2    1    2    0    0 -0.42899083121E+02 -0.12118876607E+01 -0.64670980634E+01  0.47787270032E+02  0.19999995386E+02 0.  0.
         12    1    1    2    0    0  0.42899083121E+02  0.12118876607E+01  0.64670980634E+01  0.43400729968E+02  0.00000000000E+00 0. -1.
         11    1    3    3    0    0 -0.13579621168E+02 -0.18282266369E+01 -0.59770289632E+01  0.14949026697E+02  0.51100000000E-03 0. -1.
        -11    1    3    3    0    0 -0.21219571898E+02  0.62026235735E+01 -0.38513728575E+01  0.22440495625E+02  0.51100000000E-03 0.  1.
        -12    1    3    3    0    0 -0.80998900555E+01 -0.55862845973E+01  0.33613037572E+01  0.10397747711E+02  0.00000000000E+00 0.  1.
</event>
<event>
 7    1  0.5317846E-010  0.4778725E+02  0.7816164E-02  0.1312668E+00
        -11   -1    0    0    0    0  0.00000000000E+00  0.00000000000E+00  0.45593999997E+02  0.45594000000E+02  0.51100000000E-03 0. -1.
         11   -1    0    0    0    0 -0.00000000000E+00 -0.00000000000E+00 -0.45593999997E+02  0.45594000000E+02  0.51100000000E-03 0.  1.
    9900012    2    1    2    0    0  0.38869228361E+01 -0.51971221880E+01 -0.42912780174E+02  0.47787251730E+02  0.19999911936E+02 0.  0.
         12    1    1    2    0    0 -0.38869228361E+01  0.51971221880E+01  0.42912780174E+02  0.43400748270E+02  0.00000000000E+00 0. -1.
         11    1    3    3    0    0  0.17379803475E+00 -0.90999964753E+00  0.93350870609E+00  0.13151972783E+01  0.51100000000E-03 0. -1.
        -11    1    3    3    0    0 -0.35142457123E+01 -0.61332694451E+01 -0.13694338987E+02  0.15411094626E+02  0.51100000000E-03 0.  1.
        -12    1    3    3    0    0  0.72273705137E+01  0.18461469046E+01 -0.30151949893E+02  0.31060959826E+02  0.00000000000E+00 0.  1.
</event>
<event>
 7    1  0.5317846E-010  0.4778727E+02  0.7816164E-02  0.1312668E+00
        -11   -1    0    0    0    0  0.00000000000E+00  0.00000000000E+00  0.45593999997E+02  0.45594000000E+02  0.51100000000E-03 0.  1.
         11   -1    0    0    0    0 -0.00000000000E+00 -0.00000000000E+00 -0.45593999997E+02  0.45594000000E+02  0.51100000000E-03 0. -1.
    9900012    2    1    2    0    0 -0.19895018751E+02 -0.18105695902E+02  0.34058704131E+02  0.47787270487E+02  0.19999997457E+02 0.  0.
         12    1    1    2    0    0  0.19895018751E+02  0.18105695902E+02 -0.34058704131E+02  0.43400729513E+02  0.00000000000E+00 0. -1.
         11    1    3    3    0    0 -0.11714412309E+02 -0.15901562163E+02  0.15201233962E+02  0.24923174942E+02  0.51100000000E-03 0. -1.
        -11    1    3    3    0    0 -0.46659581729E+01 -0.59859219648E+01  0.13024418090E+02  0.15074411905E+02  0.51100000000E-03 0.  1.
         12    1    3    3    0    0 -0.35146482691E+01  0.37817882261E+01  0.58330520789E+01  0.77896836391E+01  0.00000000000E+00 0. -1.
</event>
<event>
 7    1  0.5317846E-010  0.4778727E+02  0.7816164E-02  0.1312668E+00
        -11   -1    0    0    0    0  0.00000000000E+00  0.00000000000E+00  0.45593999997E+02  0.45594000000E+02  0.51100000000E-03 0.  1.
         11   -1    0    0    0    0 -0.00000000000E+00 -0.00000000000E+00 -0.45593999997E+02  0.45594000000E+02  0.51100000000E-03 0. -1.
    9900012    2    1    2    0    0 -0.16318057842E+02  0.13979262462E+02  0.37708414474E+02  0.47787270595E+02  0.19999997950E+02 0.  0.
         12    1    1    2    0    0  0.16318057842E+02 -0.13979262462E+02 -0.37708414474E+02  0.43400729405E+02  0.00000000000E+00 0. -1.
         11    1    3    3    0    0  0.39979802326E+01  0.15564183829E+01  0.41792111991E+01  0.59893314009E+01  0.51100000000E-03 0. -1.
        -11    1    3    3    0    0 -0.20282418299E+02  0.13146624165E+02  0.31969585310E+02  0.40078231051E+02  0.51100000000E-03 0.  1.
        -12    1    3    3    0    0 -0.33619776024E-01 -0.72378008512E+00  0.15596179649E+01  0.17197081430E+01  0.00000000000E+00 0.  1.
</event>
<event>
 7    1  0.5317846E-010  0.4778727E+02  0.7816164E-02  0.1312668E+00
        -11   -1    0    0    0    0  0.00000000000E+00  0.00000000000E+00  0.45593999997E+02  0.45594000000E+02  0.51100000000E-03 0. -1.
         11   -1    0    0    0    0 -0.00000000000E+00 -0.00000000000E+00 -0.45593999997E+02  0.45594000000E+02  0.51100000000E-03 0.  1.
    9900012    2    1    2    0    0 -0.39030039823E+02  0.18911702422E+02  0.16206654682E+01  0.47787273582E+02  0.20000011569E+02 0.  0.
         12    1    1    2    0    0  0.39030039823E+02 -0.18911702422E+02 -0.16206654682E+01  0.43400726418E+02  0.00000000000E+00 0. -1.
         11    1    3    3    0    0  0.20169126490E+00 -0.12379476564E+01  0.14748035450E+00  0.12629111142E+01  0.51100000000E-03 0. -1.
        -11    1    3    3    0    0 -0.31258798748E+02  0.21887542748E+02 -0.35673987224E+00  0.38161555135E+02  0.51100000000E-03 0.  1.
        -12    1    3    3    0    0 -0.79729323401E+01 -0.17378926698E+01  0.18299249859E+01  0.83628073328E+01  0.00000000000E+00 0.  1.
</event>
<event>
 7    1  0.5317846E-010  0.4778727E+02  0.7816164E-02  0.1312668E+00
        -11   -1    0    0    0    0  0.00000000000E+00  0.00000000000E+00  0.45593999997E+02  0.45594000000E+02  0.51100000000E-03 0. -1.
         11   -1    0    0    0    0 -0.00000000000E+00 -0.00000000000E+00 -0.45593999997E+02  0.45594000000E+02  0.51100000000E-03 0.  1.
    9900012    2    1    2    0    0 -0.16810260622E+02 -0.39636226398E+02 -0.54779541071E+01  0.47787270900E+02  0.19999999340E+02 0.  0.
         12    1    1    2    0    0  0.16810260622E+02  0.39636226398E+02  0.54779541071E+01  0.43400729100E+02  0.00000000000E+00 0. -1.
         11    1    3    3    0    0 -0.42938401793E+01  0.64353186887E+00 -0.22466759534E+01  0.48886347636E+01  0.51100000000E-03 0. -1.
        -11    1    3    3    0    0 -0.10891085579E+02 -0.30145568228E+02  0.27121520646E+00  0.32053776483E+02  0.51100000000E-03 0.  1.
        -12    1    3    3    0    0 -0.16253348643E+01 -0.10134190039E+02 -0.35024933602E+01  0.10844859653E+02  0.00000000000E+00 0.  1.
</event>
<event>
 7    1  0.5317846E-010  0.4778727E+02  0.7816164E-02  0.1312668E+00
        -11   -1    0    0    0    0  0.00000000000E+00  0.00000000000E+00  0.45593999997E+02  0.45594000000E+02  0.51100000000E-03 0.  1.
         11   -1    0    0    0    0 -0.00000000000E+00 -0.00000000000E+00 -0.45593999997E+02  0.45594000000E+02  0.51100000000E-03 0. -1.
    9900012    2    1    2    0    0  0.13317191396E+01 -0.28483758248E+02  0.32718883878E+02  0.47787270490E+02  0.19999997472E+02 0.  0.
         12    1    1    2    0    0 -0.13317191396E+01  0.28483758248E+02 -0.32718883878E+02  0.43400729510E+02  0.00000000000E+00 0. -1.
         11    1    3    3    0    0  0.49453911798E+01 -0.10570321158E+02  0.19949970273E+02  0.23112548485E+02  0.51100000000E-03 0. -1.
        -11    1    3    3    0    0 -0.44789969429E+01 -0.58554673411E+01  0.40560176412E+00  0.73832529720E+01  0.51100000000E-03 0.  1.
        -12    1    3    3    0    0  0.86532490273E+00 -0.12057969749E+02  0.12363311841E+02  0.17291469033E+02  0.00000000000E+00 0.  1.
</event>
<event>
 7    1  0.5317846E-010  0.4778727E+02  0.7816164E-02  0.1312668E+00
        -11   -1    0    0    0    0  0.00000000000E+00  0.00000000000E+00  0.45593999997E+02  0.45594000000E+02  0.51100000000E-03 0.  1.
         11   -1    0    0    0    0 -0.00000000000E+00 -0.00000000000E+00 -0.45593999997E+02  0.45594000000E+02  0.51100000000E-03 0. -1.
    9900012    2    1    2    0    0 -0.17257318855E+02 -0.23041983805E+02  0.32478839755E+02  0.47787273006E+02  0.20000008945E+02 0.  0.
         12    1    1    2    0    0  0.17257318855E+02  0.23041983805E+02 -0.32478839755E+02  0.43400726994E+02  0.00000000000E+00 0. -1.
         11    1    3    3    0    0 -0.21566460775E+01 -0.89520283464E+01  0.76427600760E+00  0.92398080010E+01  0.51100000000E-03 0. -1.
        -11    1    3    3    0    0 -0.80966601707E+01 -0.26914151274E+01  0.12248970938E+02  0.14927722888E+02  0.51100000000E-03 0.  1.
         12    1    3    3    0    0 -0.70040126073E+01 -0.11398540332E+02  0.19465592809E+02  0.23619742118E+02  0.00000000000E+00 0. -1.
</event>
<event>
 7    1  0.5317846E-010  0.4778727E+02  0.7816164E-02  0.1312668E+00
        -11   -1    0    0    0    0  0.00000000000E+00  0.00000000000E+00  0.45593999997E+02  0.45594000000E+02  0.51100000000E-03 0.  1.
         11   -1    0    0    0    0 -0.00000000000E+00 -0.00000000000E+00 -0.45593999997E+02  0.45594000000E+02  0.51100000000E-03 0. -1.
    9900012    2    1    2    0    0  0.39099949737E+02 -0.14624996001E+02  0.11871274615E+02  0.47787265692E+02  0.19999975595E+02 0.  0.
         12    1    1    2    0    0 -0.39099949737E+02  0.14624996001E+02 -0.11871274615E+02  0.43400734308E+02  0.00000000000E+00 0. -1.
         11    1    3    3    0    0  0.12829846259E+02 -0.11426696345E+02  0.83837840886E+01  0.19117065159E+02  0.51100000000E-03 0. -1.
        -11    1    3    3    0    0  0.23038310914E+02 -0.55245260901E+01  0.50787476944E+00  0.23696879443E+02  0.51100000000E-03 0.  1.
         12    1    3    3    0    0  0.32317925642E+01  0.23262264339E+01  0.29796157575E+01  0.49733210898E+01  0.00000000000E+00 0. -1.
</event>
<event>
 7    1  0.5317846E-010  0.4778727E+02  0.7816164E-02  0.1312668E+00
        -11   -1    0    0    0    0  0.00000000000E+00  0.00000000000E+00  0.45593999997E+02  0.45594000000E+02  0.51100000000E-03 0.  1.
         11   -1    0    0    0    0 -0.00000000000E+00 -0.00000000000E+00 -0.45593999997E+02  0.45594000000E+02  0.51100000000E-03 0. -1.
    9900012    2    1    2    0    0 -0.84581357540E+01  0.40196369685E+02  0.14011960516E+02  0.47787271506E+02  0.20000002105E+02 0.  0.
         12    1    1    2    0    0  0.84581357540E+01 -0.40196369685E+02 -0.14011960516E+02  0.43400728494E+02  0.00000000000E+00 0. -1.
         11    1    3    3    0    0 -0.23277748044E+01  0.12770761664E+02  0.22483272923E+00  0.12983121313E+02  0.51100000000E-03 0. -1.
        -11    1    3    3    0    0 -0.39500693570E+01 -0.29184948399E+00  0.50996013212E+00  0.39935302232E+01  0.51100000000E-03 0.  1.
        -12    1    3    3    0    0 -0.21802915926E+01  0.27717457505E+02  0.13277167655E+02  0.30810619969E+02  0.00000000000E+00 0.  1.
</event>
<event>
 7    1  0.5317846E-010  0.4778727E+02  0.7816164E-02  0.1312668E+00
        -11   -1    0    0    0    0  0.00000000000E+00  0.00000000000E+00  0.45593999997E+02  0.45594000000E+02  0.51100000000E-03 0. -1.
         11   -1    0    0    0    0 -0.00000000000E+00 -0.00000000000E+00 -0.45593999997E+02  0.45594000000E+02  0.51100000000E-03 0.  1.
    9900012    2    1    2    0    0  0.21373658131E+02 -0.33222403735E+02 -0.17973933044E+02  0.47787266817E+02  0.19999980724E+02 0.  0.
         12    1    1    2    0    0 -0.21373658131E+02  0.33222403735E+02  0.17973933044E+02  0.43400733183E+02  0.00000000000E+00 0. -1.
         11    1    3    3    0    0  0.21726801318E+02 -0.26049088355E+02 -0.15311052431E+02  0.37216088275E+02  0.51100000000E-03 0.  1.
        -11    1    3    3    0    0 -0.30832751500E+01 -0.39795870509E+01 -0.36949047938E+01  0.62446793707E+01  0.51100000000E-03 0. -1.
        -12    1    3    3    0    0  0.27301319626E+01 -0.31937283285E+01  0.10320241815E+01  0.43264991715E+01  0.00000000000E+00 0.  1.
</event>
<event>
 7    1  0.5317846E-010  0.4778726E+02  0.7816164E-02  0.1312668E+00
        -11   -1    0    0    0    0  0.00000000000E+00  0.00000000000E+00  0.45593999997E+02  0.45594000000E+02  0.51100000000E-03 0. -1.
         11   -1    0    0    0    0 -0.00000000000E+00 -0.00000000000E+00 -0.45593999997E+02  0.45594000000E+02  0.51100000000E-03 0.  1.
    9900012    2    1    2    0    0 -0.39234755339E+02  0.10031304282E+02 -0.15608695721E+02  0.47787257216E+02  0.19999936951E+02 0.  0.
         12    1    1    2    0    0  0.39234755339E+02 -0.10031304282E+02  0.15608695721E+02  0.43400742784E+02  0.00000000000E+00 0. -1.
         11    1    3    3    0    0 -0.35458061650E+01 -0.15217732875E+01 -0.57554009280E+00  0.39012538956E+01  0.51100000000E-03 0. -1.
        -11    1    3    3    0    0 -0.27446206796E+02  0.44407151842E+01 -0.17326413620E+02  0.32760018742E+02  0.51100000000E-03 0.  1.
        -12    1    3    3    0    0 -0.82427423778E+01  0.71123623858E+01  0.22932579915E+01  0.11125984578E+02  0.00000000000E+00 0.  1.
</event>
<event>
 7    1  0.5317846E-010  0.4778728E+02  0.7816164E-02  0.1312668E+00
        -11   -1    0    0    0    0  0.00000000000E+00  0.00000000000E+00  0.45593999997E+02  0.45594000000E+02  0.51100000000E-03 0.  1.
         11   -1    0    0    0    0 -0.00000000000E+00 -0.00000000000E+00 -0.45593999997E+02  0.45594000000E+02  0.51100000000E-03 0. -1.
    9900012    2    1    2    0    0 -0.27677991933E+02 -0.31594598656E+02  0.10923928778E+02  0.47787284319E+02  0.20000060524E+02 0.  0.
         12    1    1    2    0    0  0.27677991933E+02  0.31594598656E+02 -0.10923928778E+02  0.43400715681E+02  0.00000000000E+00 0. -1.
         11    1    3    3    0    0 -0.59025922028E+01 -0.18134440087E+02  0.24610809052E+01  0.19229025754E+02  0.51100000000E-03 0. -1.
        -11    1    3    3    0    0 -0.10791077334E+02 -0.85220431997E+01  0.91153303790E+01  0.16497327617E+02  0.51100000000E-03 0.  1.
         12    1    3    3    0    0 -0.10984322397E+02 -0.49381153696E+01 -0.65248250590E+00  0.12060930948E+02  0.00000000000E+00 0. -1.
</event>
<event>
 7    1  0.5317846E-010  0.4778727E+02  0.7816164E-02  0.1312668E+00
        -11   -1    0    0    0    0  0.00000000000E+00  0.00000000000E+00  0.45593999997E+02  0.45594000000E+02  0.51100000000E-03 0.  1.
         11   -1    0    0    0    0 -0.00000000000E+00 -0.00000000000E+00 -0.45593999997E+02  0.45594000000E+02  0.51100000000E-03 0. -1.
    9900012    2    1    2    0    0 -0.32722211204E+02 -0.19594967645E+02  0.20710322042E+02  0.47787270718E+02  0.19999998514E+02 0.  0.
         12    1    1    2    0    0  0.32722211204E+02  0.19594967645E+02 -0.20710322042E+02  0.43400729282E+02  0.00000000000E+00 0. -1.
         11    1    3    3    0    0  0.24889980359E-01 -0.14898322363E+01 -0.26422334035E+01  0.30334167572E+01  0.51100000000E-03 0. -1.
        -11    1    3    3    0    0 -0.31184255692E+02 -0.17169500000E+02  0.19733111171E+02  0.40701906713E+02  0.51100000000E-03 0.  1.
        -12    1    3    3    0    0 -0.15628454927E+01 -0.93563540888E+00  0.36194442737E+01  0.40519472483E+01  0.00000000000E+00 0.  1.
</event>
<event>
 7    1  0.5317846E-010  0.4778725E+02  0.7816164E-02  0.1312668E+00
        -11   -1    0    0    0    0  0.00000000000E+00  0.00000000000E+00  0.45593999997E+02  0.45594000000E+02  0.51100000000E-03 0. -1.
         11   -1    0    0    0    0 -0.00000000000E+00 -0.00000000000E+00 -0.45593999997E+02  0.45594000000E+02  0.51100000000E-03 0.  1.
    9900012    2    1    2    0    0  0.37425501139E+02 -0.10094970668E+02  0.19520467270E+02  0.47787248730E+02  0.19999898261E+02 0.  0.
         12    1    1    2    0    0 -0.37425501139E+02  0.10094970668E+02 -0.19520467270E+02  0.43400751270E+02  0.00000000000E+00 0. -1.
         11    1    3    3    0    0  0.61497666179E+01  0.36846621865E+01  0.54258540011E+00  0.71896289238E+01  0.51100000000E-03 0. -1.
        -11    1    3    3    0    0  0.31191347030E+02 -0.14891260287E+02  0.19076159606E+02  0.39478470437E+02  0.51100000000E-03 0.  1.
        -12    1    3    3    0    0  0.84387491488E-01  0.11116274330E+01 -0.98277735329E-01  0.11191493697E+01  0.00000000000E+00 0.  1.
</event>
<event>
 7    1  0.5317846E-010  0.4778727E+02  0.7816164E-02  0.1312668E+00
        -11   -1    0    0    0    0  0.00000000000E+00  0.00000000000E+00  0.45593999997E+02  0.45594000000E+02  0.51100000000E-03 0.  1.
         11   -1    0    0    0    0 -0.00000000000E+00 -0.00000000000E+00 -0.45593999997E+02  0.45594000000E+02  0.51100000000E-03 0. -1.
    9900012    2    1    2    0    0  0.30214547050E+02  0.95897780631E+01  0.29643557889E+02  0.47787271653E+02  0.20000002773E+02 0.  0.
         12    1    1    2    0    0 -0.30214547050E+02 -0.95897780631E+01 -0.29643557889E+02  0.43400728347E+02  0.00000000000E+00 0. -1.
         11    1    3    3    0    0  0.20675569236E+02  0.11860035692E+00  0.15884975085E+02  0.26073466647E+02  0.51100000000E-03 0. -1.
        -11    1    3    3    0    0  0.81997215844E+01  0.11564568353E+01  0.79795174787E+01  0.11499805473E+02  0.51100000000E-03 0.  1.
         12    1    3    3    0    0  0.13392562297E+01  0.83147208709E+01  0.57790653258E+01  0.10213999533E+02  0.00000000000E+00 0. -1.
</event>
<event>
 7    1  0.5317846E-010  0.4778729E+02  0.7816164E-02  0.1312668E+00
        -11   -1    0    0    0    0  0.00000000000E+00  0.00000000000E+00  0.45593999997E+02  0.45594000000E+02  0.51100000000E-03 0. -1.
         11   -1    0    0    0    0 -0.00000000000E+00 -0.00000000000E+00 -0.45593999997E+02  0.45594000000E+02  0.51100000000E-03 0.  1.
    9900012    2    1    2    0    0 -0.37173478123E+02  0.16551874028E+02 -0.15092691715E+02  0.47787293176E+02  0.20000100905E+02 0.  0.
         12    1    1    2    0    0  0.37173478123E+02 -0.16551874028E+02  0.15092691715E+02  0.43400706824E+02  0.00000000000E+00 0. -1.
         11    1    3    3    0    0  0.20504454917E+01  0.81594488314E+00 -0.17225931834E+01  0.27995393020E+01  0.51100000000E-03 0. -1.
        -11    1    3    3    0    0 -0.30464103133E+02  0.11786393016E+02 -0.68491875560E+01  0.33375020756E+02  0.51100000000E-03 0.  1.
        -12    1    3    3    0    0 -0.87598204820E+01  0.39495361296E+01 -0.65209109752E+01  0.11612733118E+02  0.00000000000E+00 0.  1.
</event>
<event>
 7    1  0.5317846E-010  0.4778727E+02  0.7816164E-02  0.1312668E+00
        -11   -1    0    0    0    0  0.00000000000E+00  0.00000000000E+00  0.45593999997E+02  0.45594000000E+02  0.51100000000E-03 0.  1.
         11   -1    0    0    0    0 -0.00000000000E+00 -0.00000000000E+00 -0.45593999997E+02  0.45594000000E+02  0.51100000000E-03 0. -1.
    9900012    2    1    2    0    0 -0.26173753963E+02 -0.32641366766E+02 -0.11536856797E+02  0.47787270909E+02  0.19999999383E+02 0.  0.
         12    1    1    2    0    0  0.26173753963E+02  0.32641366766E+02  0.11536856797E+02  0.43400729091E+02  0.00000000000E+00 0. -1.
         11    1    3    3    0    0  0.15475838695E+01 -0.37523909707E+01 -0.14681221204E+01  0.43163452887E+01  0.51100000000E-03 0. -1.
        -11    1    3    3    0    0 -0.24197828189E+02 -0.19126510301E+02 -0.31658374822E+01  0.31006141530E+02  0.51100000000E-03 0.  1.
        -12    1    3    3    0    0 -0.35235096432E+01 -0.97624654952E+01 -0.69028971942E+01  0.12464784091E+02  0.00000000000E+00 0.  1.
</event>
<event>
 7    1  0.5317846E-010  0.4778727E+02  0.7816164E-02  0.1312668E+00
        -11   -1    0    0    0    0  0.00000000000E+00  0.00000000000E+00  0.45593999997E+02  0.45594000000E+02  0.51100000000E-03 0. -1.
         11   -1    0    0    0    0 -0.00000000000E+00 -0.00000000000E+00 -0.45593999997E+02  0.45594000000E+02  0.51100000000E-03 0.  1.
    9900012    2    1    2    0    0 -0.29077771715E+02 -0.10813834487E+02 -0.30350742594E+02  0.47787269588E+02  0.19999993361E+02 0.  0.
         12    1    1    2    0    0  0.29077771715E+02  0.10813834487E+02  0.30350742594E+02  0.43400730412E+02  0.00000000000E+00 0. -1.
         11    1    3    3    0    0 -0.57585858675E+01 -0.66762919747E+01 -0.61594611799E+01  0.10755145188E+02  0.51100000000E-03 0. -1.
        -11    1    3    3    0    0 -0.15454106435E+02  0.41121304771E+01 -0.10125413984E+02  0.18927837472E+02  0.51100000000E-03 0.  1.
        -12    1    3    3    0    0 -0.78650794126E+01 -0.82496729895E+01 -0.14065867430E+02  0.18104286928E+02  0.00000000000E+00 0.  1.
</event>
<event>
 7    1  0.5317846E-010  0.4778727E+02  0.7816164E-02  0.1312668E+00
        -11   -1    0    0    0    0  0.00000000000E+00  0.00000000000E+00  0.45593999997E+02  0.45594000000E+02  0.51100000000E-03 0. -1.
         11   -1    0    0    0    0 -0.00000000000E+00 -0.00000000000E+00 -0.45593999997E+02  0.45594000000E+02  0.51100000000E-03 0.  1.
    9900012    2    1    2    0    0 -0.10998626952E+02 -0.37387279783E+02 -0.19100918989E+02  0.47787267396E+02  0.19999983363E+02 0.  0.
         12    1    1    2    0    0  0.10998626952E+02  0.37387279783E+02  0.19100918989E+02  0.43400732604E+02  0.00000000000E+00 0. -1.
         11    1    3    3    0    0  0.15371141988E+01 -0.11085088813E+02  0.16049161745E+01  0.11305647714E+02  0.51100000000E-03 0. -1.
        -11    1    3    3    0    0 -0.42250062182E+01 -0.86294837094E+01 -0.28555257502E+01  0.10023606846E+02  0.51100000000E-03 0.  1.
         12    1    3    3    0    0 -0.83107349324E+01 -0.17672707260E+02 -0.17850309414E+02  0.26458012835E+02  0.00000000000E+00 0. -1.
</event>
<event>
 7    1  0.5317846E-010  0.4778727E+02  0.7816164E-02  0.1312668E+00
        -11   -1    0    0    0    0  0.00000000000E+00  0.00000000000E+00  0.45593999997E+02  0.45594000000E+02  0.51100000000E-03 0.  1.
         11   -1    0    0    0    0 -0.00000000000E+00 -0.00000000000E+00 -0.45593999997E+02  0.45594000000E+02  0.51100000000E-03 0. -1.
    9900012    2    1    2    0    0 -0.23267563661E+02 -0.21033092743E+02  0.29997547179E+02  0.47787270216E+02  0.19999996221E+02 0.  0.
         12    1    1    2    0    0  0.23267563661E+02  0.21033092743E+02 -0.29997547179E+02  0.43400729784E+02  0.00000000000E+00 0. -1.
         11    1    3    3    0    0 -0.61302813959E+01 -0.11755202304E+02  0.20851281088E+02  0.24709128971E+02  0.51100000000E-03 0. -1.
        -11    1    3    3    0    0 -0.13889101557E+01 -0.33143575230E+01  0.41989288791E+01  0.55267568432E+01  0.51100000000E-03 0.  1.
         12    1    3    3    0    0 -0.15748372109E+02 -0.59635329163E+01  0.49473372119E+01  0.17551384402E+02  0.00000000000E+00 0. -1.
</event>
<event>
 7    1  0.5317846E-010  0.4778727E+02  0.7816164E-02  0.1312668E+00
        -11   -1    0    0    0    0  0.00000000000E+00  0.00000000000E+00  0.45593999997E+02  0.45594000000E+02  0.51100000000E-03 0.  1.
         11   -1    0    0    0    0 -0.00000000000E+00 -0.00000000000E+00 -0.45593999997E+02  0.45594000000E+02  0.51100000000E-03 0. -1.
    9900012    2    1    2    0    0 -0.23008521739E+02  0.15751194140E+02  0.33258546915E+02  0.47787272675E+02  0.20000007436E+02 0.  0.
         12    1    1    2    0    0  0.23008521739E+02 -0.15751194140E+02 -0.33258546915E+02  0.43400727325E+02  0.00000000000E+00 0. -1.
         11    1    3    3    0    0 -0.86647054952E+01 -0.19793476281E+01  0.81937213857E+01  0.12088507301E+02  0.51100000000E-03 0. -1.
        -11    1    3    3    0    0 -0.15387167746E+02  0.17787480759E+02  0.21094726978E+02  0.31593463082E+02  0.51100000000E-03 0.  1.
         12    1    3    3    0    0  0.10433515022E+01 -0.56938991676E-01  0.39700985510E+01  0.41053022922E+01  0.00000000000E+00 0. -1.
</event>
<event>
 7    1  0.5317846E-010  0.4778727E+02  0.7816164E-02  0.1312668E+00
        -11   -1    0    0    0    0  0.00000000000E+00  0.00000000000E+00  0.45593999997E+02  0.45594000000E+02  0.51100000000E-03 0.  1.
         11   -1    0    0    0    0 -0.00000000000E+00 -0.00000000000E+00 -0.45593999997E+02  0.45594000000E+02  0.51100000000E-03 0. -1.
    9900012    2    1    2    0    0  0.13176347767E+02 -0.21467899095E+01  0.41296467271E+02  0.47787273549E+02  0.20000011421E+02 0.  0.
         12    1    1    2    0    0 -0.13176347767E+02  0.21467899095E+01 -0.41296467271E+02  0.43400726451E+02  0.00000000000E+00 0. -1.
         11    1    3    3    0    0 -0.15432497938E+01 -0.13081440896E+01  0.43987801060E+01  0.48417070923E+01  0.51100000000E-03 0. -1.
        -11    1    3    3    0    0  0.10696187593E+02 -0.82049591228E+01  0.20705846438E+02  0.24707526387E+02  0.51100000000E-03 0.  1.
        -12    1    3    3    0    0  0.40234099683E+01  0.73663133029E+01  0.16191840727E+02  0.18238040070E+02  0.00000000000E+00 0.  1.
</event>
<event>
 7    1  0.5317846E-010  0.4778727E+02  0.7816164E-02  0.1312668E+00
        -11   -1    0    0    0    0  0.00000000000E+00  0.00000000000E+00  0.45593999997E+02  0.45594000000E+02  0.51100000000E-03 0. -1.
         11   -1    0    0    0    0 -0.00000000000E+00 -0.00000000000E+00 -0.45593999997E+02  0.45594000000E+02  0.51100000000E-03 0.  1.
    9900012    2    1    2    0    0  0.28239662427E+02 -0.32683028691E+02  0.42384526116E+01  0.47787269834E+02  0.19999994482E+02 0.  0.
         12    1    1    2    0    0 -0.28239662427E+02  0.32683028691E+02 -0.42384526116E+01  0.43400730166E+02  0.00000000000E+00 0. -1.
         11    1    3    3    0    0  0.25486159994E+01  0.73884672765E+00 -0.13953336117E+01  0.29980483899E+01  0.51100000000E-03 0. -1.
        -11    1    3    3    0    0  0.23063582089E+02 -0.34559630500E+02  0.49252673202E+01  0.41839635963E+02  0.51100000000E-03 0.  1.
        -12    1    3    3    0    0  0.26274643385E+01  0.11377550815E+01  0.70851890306E+00  0.29495854813E+01  0.00000000000E+00 0.  1.
</event>
<event>
 7    1  0.5317846E-010  0.4778727E+02  0.7816164E-02  0.1312668E+00
        -11   -1    0    0    0    0  0.00000000000E+00  0.00000000000E+00  0.45593999997E+02  0.45594000000E+02  0.51100000000E-03 0. -1.
         11   -1    0    0    0    0 -0.00000000000E+00 -0.00000000000E+00 -0.45593999997E+02  0.45594000000E+02  0.51100000000E-03 0.  1.
    9900012    2    1    2    0    0 -0.38603269620E+02 -0.19363461137E+02 -0.42973524993E+01  0.47787270846E+02  0.19999999097E+02 0.  0.
         12    1    1    2    0    0  0.38603269620E+02  0.19363461137E+02  0.42973524993E+01  0.43400729154E+02  0.00000000000E+00 0. -1.
         11    1    3    3    0    0 -0.15936300706E+02 -0.77510138644E+01 -0.97648067359E+01  0.20233520380E+02  0.51100000000E-03 0. -1.
        -11    1    3    3    0    0 -0.23167012552E+01 -0.50961085084E+01  0.17463716544E+01  0.58640635102E+01  0.51100000000E-03 0.  1.
         12    1    3    3    0    0 -0.20350267658E+02 -0.65163387644E+01  0.37210825823E+01  0.21689686956E+02  0.00000000000E+00 0. -1.
</event>
<event>
 7    1  0.5317846E-010  0.4778727E+02  0.7816164E-02  0.1312668E+00
        -11   -1    0    0    0    0  0.00000000000E+00  0.00000000000E+00  0.45593999997E+02  0.45594000000E+02  0.51100000000E-03 0. -1.
         11   -1    0    0    0    0 -0.00000000000E+00 -0.00000000000E+00 -0.45593999997E+02  0.45594000000E+02  0.51100000000E-03 0.  1.
    9900012    2    1    2    0    0 -0.18479355673E+02 -0.35242197039E+02 -0.17324089920E+02  0.47787272704E+02  0.20000007569E+02 0.  0.
         12    1    1    2    0    0  0.18479355673E+02  0.35242197039E+02  0.17324089920E+02  0.43400727296E+02  0.00000000000E+00 0. -1.
         11    1    3    3    0    0 -0.94107730394E+01 -0.12558390403E+02 -0.59241349030E+01  0.16774122729E+02  0.51100000000E-03 0. -1.
        -11    1    3    3    0    0 -0.11218041876E+02 -0.19424961759E+02 -0.41977047394E+01  0.22820918654E+02  0.51100000000E-03 0.  1.
         12    1    3    3    0    0  0.21494592423E+01 -0.32588448767E+01 -0.72022502772E+01  0.81922313212E+01  0.00000000000E+00 0. -1.
</event>
<event>
 7    1  0.5317846E-010  0.4778727E+02  0.7816164E-02  0.1312668E+00
        -11   -1    0    0    0    0  0.00000000000E+00  0.00000000000E+00  0.45593999997E+02  0.45594000000E+02  0.51100000000E-03 0. -1.
         11   -1    0    0    0    0 -0.00000000000E+00 -0.00000000000E+00 -0.45593999997E+02  0.45594000000E+02  0.51100000000E-03 0.  1.
    9900012    2    1    2    0    0  0.15764118207E+02 -0.34535789553E+02 -0.21033193517E+02  0.47787269448E+02  0.19999992721E+02 0.  0.
         12    1    1    2    0    0 -0.15764118207E+02  0.34535789553E+02  0.21033193517E+02  0.43400730552E+02  0.00000000000E+00 0. -1.
         11    1    3    3    0    0 -0.93820986970E+00 -0.31097094586E+01 -0.23615878827E+01  0.40159218450E+01  0.51100000000E-03 0. -1.
        -11    1    3    3    0    0 -0.20662923232E+00 -0.15411601904E+02 -0.12035389220E+02  0.19555325690E+02  0.51100000000E-03 0.  1.
        -12    1    3    3    0    0  0.16908957309E+02 -0.16014478191E+02 -0.66362164138E+01  0.24216021913E+02  0.00000000000E+00 0.  1.
</event>
<event>
 7    1  0.7253568E-010  0.4778728E+02  0.7816164E-02  0.1312668E+00
        -11   -1    0    0    0    0  0.00000000000E+00  0.00000000000E+00  0.45593999997E+02  0.45594000000E+02  0.51100000000E-03 0. -1.
         11   -1    0    0    0    0 -0.00000000000E+00 -0.00000000000E+00 -0.45593999997E+02  0.45594000000E+02  0.51100000000E-03 0.  1.
    9900012    2    1    2    0    0  0.12062595581E+02 -0.24248230198E+01 -0.41620149806E+02  0.47787275943E+02  0.20000022333E+02 0.  0.
         12    1    1    2    0    0 -0.12062595581E+02  0.24248230198E+01  0.41620149806E+02  0.43400724057E+02  0.00000000000E+00 0. -1.
         11    1    3    3    0    0 -0.32888508715E+01 -0.41645402993E+01 -0.89997268502E+01  0.10447727963E+02  0.51100000000E-03 0. -1.
        -11    1    3    3    0    0  0.10391839547E+02 -0.34810470579E+01 -0.20277910338E+02  0.23049981903E+02  0.51100000000E-03 0.  1.
         12    1    3    3    0    0  0.49596069048E+01  0.52207643375E+01 -0.12342512618E+02  0.14289566076E+02  0.00000000000E+00 0. -1.
</event>
<event>
 7    1  0.5317846E-010  0.4778727E+02  0.7816164E-02  0.1312668E+00
        -11   -1    0    0    0    0  0.00000000000E+00  0.00000000000E+00  0.45593999997E+02  0.45594000000E+02  0.51100000000E-03 0.  1.
         11   -1    0    0    0    0 -0.00000000000E+00 -0.00000000000E+00 -0.45593999997E+02  0.45594000000E+02  0.51100000000E-03 0. -1.
    9900012    2    1    2    0    0  0.18775700630E+02  0.38122799585E+02  0.88175023185E+01  0.47787272708E+02  0.20000007586E+02 0.  0.
         12    1    1    2    0    0 -0.18775700630E+02 -0.38122799585E+02 -0.88175023185E+01  0.43400727292E+02  0.00000000000E+00 0. -1.
         11    1    3    3    0    0  0.34591103653E+00  0.96330602793E+01  0.92747062899E+01  0.13376684261E+02  0.51100000000E-03 0. -1.
        -11    1    3    3    0    0  0.12673867712E+02  0.23233668832E+02  0.98340422626E+00  0.26483907837E+02  0.51100000000E-03 0.  1.
         12    1    3    3    0    0  0.57559218813E+01  0.52560704736E+01 -0.14406081977E+01  0.79266806108E+01  0.00000000000E+00 0. -1.
</event>
<event>
 7    1  0.5317846E-010  0.4778727E+02  0.7816164E-02  0.1312668E+00
        -11   -1    0    0    0    0  0.00000000000E+00  0.00000000000E+00  0.45593999997E+02  0.45594000000E+02  0.51100000000E-03 0.  1.
         11   -1    0    0    0    0 -0.00000000000E+00 -0.00000000000E+00 -0.45593999997E+02  0.45594000000E+02  0.51100000000E-03 0. -1.
    9900012    2    1    2    0    0  0.41727144764E+02 -0.11434108388E+00  0.11935471048E+02  0.47787272435E+02  0.20000006338E+02 0.  0.
         12    1    1    2    0    0 -0.41727144764E+02  0.11434108388E+00 -0.11935471048E+02  0.43400727565E+02  0.00000000000E+00 0. -1.
         11    1    3    3    0    0  0.10993225294E+02 -0.13346040442E+01 -0.41656191430E+01  0.11831506811E+02  0.51100000000E-03 0. -1.
        -11    1    3    3    0    0  0.96120097763E+01 -0.35535278276E+01  0.31377354884E+01  0.10717447281E+02  0.51100000000E-03 0.  1.
         12    1    3    3    0    0  0.21121909694E+02  0.47737907879E+01  0.12963354702E+02  0.25238318343E+02  0.00000000000E+00 0. -1.
</event>
<event>
 7    1  0.5317846E-010  0.4778728E+02  0.7816164E-02  0.1312668E+00
        -11   -1    0    0    0    0  0.00000000000E+00  0.00000000000E+00  0.45593999997E+02  0.45594000000E+02  0.51100000000E-03 0. -1.
         11   -1    0    0    0    0 -0.00000000000E+00 -0.00000000000E+00 -0.45593999997E+02  0.45594000000E+02  0.51100000000E-03 0.  1.
    9900012    2    1    2    0    0 -0.42983414058E+02  0.43784851568E+01 -0.41082637815E+01  0.47787275954E+02  0.20000022387E+02 0.  0.
         12    1    1    2    0    0  0.42983414058E+02 -0.43784851568E+01  0.41082637815E+01  0.43400724046E+02  0.00000000000E+00 0. -1.
         11    1    3    3    0    0 -0.17546651398E+02  0.84978456266E+01  0.28681780867E+01  0.19705958524E+02  0.51100000000E-03 0. -1.
        -11    1    3    3    0    0 -0.68668077241E+01 -0.48749443483E+01 -0.64023039289E+00  0.84455921009E+01  0.51100000000E-03 0.  1.
         12    1    3    3    0    0 -0.18569954936E+02  0.75558387849E+00 -0.63362114753E+01  0.19635725329E+02  0.00000000000E+00 0. -1.
</event>
<event>
 7    1  0.5317846E-010  0.4778727E+02  0.7816164E-02  0.1312668E+00
        -11   -1    0    0    0    0  0.00000000000E+00  0.00000000000E+00  0.45593999997E+02  0.45594000000E+02  0.51100000000E-03 0.  1.
         11   -1    0    0    0    0 -0.00000000000E+00 -0.00000000000E+00 -0.45593999997E+02  0.45594000000E+02  0.51100000000E-03 0. -1.
    9900012    2    1    2    0    0 -0.30557223359E+02 -0.25584631750E+02  0.17184472296E+02  0.47787269946E+02  0.19999994990E+02 0.  0.
         12    1    1    2    0    0  0.30557223359E+02  0.25584631750E+02 -0.17184472296E+02  0.43400730054E+02  0.00000000000E+00 0. -1.
         11    1    3    3    0    0  0.23325300998E+01 -0.94727883929E+00  0.65024934691E+00  0.26001650602E+01  0.51100000000E-03 0. -1.
        -11    1    3    3    0    0 -0.22201076456E+02 -0.21516734018E+02  0.12330505760E+02  0.33285116962E+02  0.51100000000E-03 0.  1.
         12    1    3    3    0    0 -0.10688677002E+02 -0.31206188928E+01  0.42037171891E+01  0.11901987924E+02  0.00000000000E+00 0. -1.
</event>
<event>
 7    1  0.5317846E-010  0.4778727E+02  0.7816164E-02  0.1312668E+00
        -11   -1    0    0    0    0  0.00000000000E+00  0.00000000000E+00  0.45593999997E+02  0.45594000000E+02  0.51100000000E-03 0. -1.
         11   -1    0    0    0    0 -0.00000000000E+00 -0.00000000000E+00 -0.45593999997E+02  0.45594000000E+02  0.51100000000E-03 0.  1.
    9900012    2    1    2    0    0  0.36759414651E+02 -0.14317145737E+02  0.18093867759E+02  0.47787270997E+02  0.19999999785E+02 0.  0.
         12    1    1    2    0    0 -0.36759414651E+02  0.14317145737E+02 -0.18093867759E+02  0.43400729003E+02  0.00000000000E+00 0. -1.
         11    1    3    3    0    0 -0.14227879202E+01 -0.23176121737E+00  0.23151994644E+01  0.27273040807E+01  0.51100000000E-03 0. -1.
        -11    1    3    3    0    0  0.27549393629E+02 -0.12067798578E+02  0.64243431825E+01  0.30755048975E+02  0.51100000000E-03 0.  1.
        -12    1    3    3    0    0  0.10632808942E+02 -0.20175859406E+01  0.93543251118E+01  0.14304917942E+02  0.00000000000E+00 0.  1.
</event>
<event>
 7    1  0.5317846E-010  0.4778727E+02  0.7816164E-02  0.1312668E+00
        -11   -1    0    0    0    0  0.00000000000E+00  0.00000000000E+00  0.45593999997E+02  0.45594000000E+02  0.51100000000E-03 0.  1.
         11   -1    0    0    0    0 -0.00000000000E+00 -0.00000000000E+00 -0.45593999997E+02  0.45594000000E+02  0.51100000000E-03 0. -1.
    9900012    2    1    2    0    0  0.16067475858E+01 -0.36008339087E+02  0.24175216464E+02  0.47787271749E+02  0.20000003213E+02 0.  0.
         12    1    1    2    0    0 -0.16067475858E+01  0.36008339087E+02 -0.24175216464E+02  0.43400728251E+02  0.00000000000E+00 0. -1.
         11    1    3    3    0    0  0.23068147557E+01 -0.78727119874E+01  0.45710269925E+00  0.82164427517E+01  0.51100000000E-03 0. -1.
        -11    1    3    3    0    0 -0.41611589268E+01 -0.12880035688E+01  0.51483071674E+01  0.67438315339E+01  0.51100000000E-03 0.  1.
        -12    1    3    3    0    0  0.34610917569E+01 -0.26847623531E+02  0.18569806597E+02  0.32826997464E+02  0.00000000000E+00 0.  1.
</event>
<event>
 7    1  0.5317846E-010  0.4778727E+02  0.7816164E-02  0.1312668E+00
        -11   -1    0    0    0    0  0.00000000000E+00  0.00000000000E+00  0.45593999997E+02  0.45594000000E+02  0.51100000000E-03 0.  1.
         11   -1    0    0    0    0 -0.00000000000E+00 -0.00000000000E+00 -0.45593999997E+02  0.45594000000E+02  0.51100000000E-03 0. -1.
    9900012    2    1    2    0    0 -0.11006709755E+02  0.22666700531E+02  0.35336896026E+02  0.47787271972E+02  0.20000004231E+02 0.  0.
         12    1    1    2    0    0  0.11006709755E+02 -0.22666700531E+02 -0.35336896026E+02  0.43400728028E+02  0.00000000000E+00 0. -1.
         11    1    3    3    0    0 -0.45087796272E+01 -0.12403421819E+01  0.87031518843E+01  0.98798985540E+01  0.51100000000E-03 0. -1.
        -11    1    3    3    0    0 -0.58263741550E+01  0.20812657850E+02  0.16218230610E+02  0.27021183670E+02  0.51100000000E-03 0.  1.
        -12    1    3    3    0    0 -0.67155597251E+00  0.30943848628E+01  0.10415513532E+02  0.10886189748E+02  0.00000000000E+00 0.  1.
</event>
<event>
 7    1  0.5317846E-010  0.4778727E+02  0.7816164E-02  0.1312668E+00
        -11   -1    0    0    0    0  0.00000000000E+00  0.00000000000E+00  0.45593999997E+02  0.45594000000E+02  0.51100000000E-03 0.  1.
         11   -1    0    0    0    0 -0.00000000000E+00 -0.00000000000E+00 -0.45593999997E+02  0.45594000000E+02  0.51100000000E-03 0. -1.
    9900012    2    1    2    0    0  0.11728722713E+02 -0.10029979751E+02  0.40564266866E+02  0.47787272164E+02  0.20000005107E+02 0.  0.
         12    1    1    2    0    0 -0.11728722713E+02  0.10029979751E+02 -0.40564266866E+02  0.43400727836E+02  0.00000000000E+00 0. -1.
         11    1    3    3    0    0 -0.29101898396E+01 -0.75486315149E+01  0.10107239749E+02  0.12946325280E+02  0.51100000000E-03 0. -1.
        -11    1    3    3    0    0  0.13093964972E+02 -0.21526021214E+01  0.18427222582E+02  0.22707887329E+02  0.51100000000E-03 0.  1.
         12    1    3    3    0    0  0.15449475804E+01 -0.32874611493E+00  0.12029804535E+02  0.12133059556E+02  0.00000000000E+00 0. -1.
</event>
<event>
 7    1  0.5317846E-010  0.4778727E+02  0.7816164E-02  0.1312668E+00
        -11   -1    0    0    0    0  0.00000000000E+00  0.00000000000E+00  0.45593999997E+02  0.45594000000E+02  0.51100000000E-03 0.  1.
         11   -1    0    0    0    0 -0.00000000000E+00 -0.00000000000E+00 -0.45593999997E+02  0.45594000000E+02  0.51100000000E-03 0. -1.
    9900012    2    1    2    0    0 -0.14450671531E+02 -0.11427205892E+02  0.39296568107E+02  0.47787271813E+02  0.20000003504E+02 0.  0.
         12    1    1    2    0    0  0.14450671531E+02  0.11427205892E+02 -0.39296568107E+02  0.43400728187E+02  0.00000000000E+00 0. -1.
         11    1    3    3    0    0 -0.25142162722E+01  0.17667576994E+01  0.11868849510E+01  0.32941482025E+01  0.51100000000E-03 0. -1.
        -11    1    3    3    0    0 -0.16894514759E+01 -0.12003110050E+02  0.25235773735E+02  0.27995949233E+02  0.51100000000E-03 0.  1.
        -12    1    3    3    0    0 -0.10247003783E+02 -0.11908535416E+01  0.12873909421E+02  0.16497174378E+02  0.00000000000E+00 0.  1.
</event>
<event>
 7    1  0.5317846E-010  0.4778727E+02  0.7816164E-02  0.1312668E+00
        -11   -1    0    0    0    0  0.00000000000E+00  0.00000000000E+00  0.45593999997E+02  0.45594000000E+02  0.51100000000E-03 0.  1.
         11   -1    0    0    0    0 -0.00000000000E+00 -0.00000000000E+00 -0.45593999997E+02  0.45594000000E+02  0.51100000000E-03 0. -1.
    9900012    2    1    2    0    0  0.39231054018E+01 -0.19631129365E+01  0.43178452730E+02  0.47787270184E+02  0.19999996077E+02 0.  0.
         12    1    1    2    0    0 -0.39231054018E+01  0.19631129365E+01 -0.43178452730E+02  0.43400729816E+02  0.00000000000E+00 0. -1.
         11    1    3    3    0    0  0.38777688547E+01  0.78598599373E+01  0.25104484529E+02  0.26590404909E+02  0.51100000000E-03 0. -1.
        -11    1    3    3    0    0  0.42706125931E+00 -0.57828090136E+01  0.15072304697E+02  0.16149230030E+02  0.51100000000E-03 0.  1.
         12    1    3    3    0    0 -0.38172471221E+00 -0.40401638602E+01  0.30016635042E+01  0.50476352449E+01  0.00000000000E+00 0. -1.
</event>
<event>
 7    1  0.5317846E-010  0.4778727E+02  0.7816164E-02  0.1312668E+00
        -11   -1    0    0    0    0  0.00000000000E+00  0.00000000000E+00  0.45593999997E+02  0.45594000000E+02  0.51100000000E-03 0. -1.
         11   -1    0    0    0    0 -0.00000000000E+00 -0.00000000000E+00 -0.45593999997E+02  0.45594000000E+02  0.51100000000E-03 0.  1.
    9900012    2    1    2    0    0  0.46629696852E+01 -0.41474481363E+02 -0.11905777738E+02  0.47787269198E+02  0.19999991581E+02 0.  0.
         12    1    1    2    0    0 -0.46629696852E+01  0.41474481363E+02  0.11905777738E+02  0.43400730802E+02  0.00000000000E+00 0. -1.
         11    1    3    3    0    0  0.83919211419E+01 -0.18317188984E+02 -0.40267302239E+00  0.20152069337E+02  0.51100000000E-03 0. -1.
        -11    1    3    3    0    0 -0.54857131153E+01 -0.71691974991E+01 -0.46075206797E+01  0.10135072187E+02  0.51100000000E-03 0.  1.
        -12    1    3    3    0    0  0.17567616586E+01 -0.15988094879E+02 -0.68955840358E+01  0.17500127674E+02  0.00000000000E+00 0.  1.
</event>
<event>
 7    1  0.5317846E-010  0.4778729E+02  0.7816164E-02  0.1312668E+00
        -11   -1    0    0    0    0  0.00000000000E+00  0.00000000000E+00  0.45593999997E+02  0.45594000000E+02  0.51100000000E-03 0.  1.
         11   -1    0    0    0    0 -0.00000000000E+00 -0.00000000000E+00 -0.45593999997E+02  0.45594000000E+02  0.51100000000E-03 0. -1.
    9900012    2    1    2    0    0  0.41716400186E+02 -0.11796801959E+02  0.20491864892E+01  0.47787288644E+02  0.20000080242E+02 0.  0.
         12    1    1    2    0    0 -0.41716400186E+02  0.11796801959E+02 -0.20491864892E+01  0.43400711356E+02  0.00000000000E+00 0. -1.
         11    1    3    3    0    0  0.11476543712E+01 -0.36941875688E+01  0.37629273803E+01  0.53966429453E+01  0.51100000000E-03 0. -1.
        -11    1    3    3    0    0  0.25873535208E+02 -0.53314517951E+01  0.32906781082E+01  0.26621284062E+02  0.51100000000E-03 0.  1.
         12    1    3    3    0    0  0.14695210607E+02 -0.27711625956E+01 -0.50044189992E+01  0.15769361636E+02  0.00000000000E+00 0. -1.
</event>
<event>
 7    1  0.5317846E-010  0.4778727E+02  0.7816164E-02  0.1312668E+00
        -11   -1    0    0    0    0  0.00000000000E+00  0.00000000000E+00  0.45593999997E+02  0.45594000000E+02  0.51100000000E-03 0.  1.
         11   -1    0    0    0    0 -0.00000000000E+00 -0.00000000000E+00 -0.45593999997E+02  0.45594000000E+02  0.51100000000E-03 0. -1.
    9900012    2    1    2    0    0 -0.41222687824E+02 -0.58812283533E+01  0.12236214225E+02  0.47787265249E+02  0.19999973576E+02 0.  0.
         12    1    1    2    0    0  0.41222687824E+02  0.58812283533E+01 -0.12236214225E+02  0.43400734751E+02  0.00000000000E+00 0. -1.
         11    1    3    3    0    0 -0.28453323450E+02 -0.85528867220E+00  0.23817052391E+01  0.28565637646E+02  0.51100000000E-03 0. -1.
        -11    1    3    3    0    0 -0.14194730660E+02 -0.46621062199E+01  0.95104746443E+01  0.17710865059E+02  0.51100000000E-03 0.  1.
         12    1    3    3    0    0  0.14253662856E+01 -0.36383346117E+00  0.34403434176E+00  0.15107625438E+01  0.00000000000E+00 0. -1.
</event>
<event>
 7    1  0.5317846E-010  0.4778727E+02  0.7816164E-02  0.1312668E+00
        -11   -1    0    0    0    0  0.00000000000E+00  0.00000000000E+00  0.45593999997E+02  0.45594000000E+02  0.51100000000E-03 0. -1.
         11   -1    0    0    0    0 -0.00000000000E+00 -0.00000000000E+00 -0.45593999997E+02  0.45594000000E+02  0.51100000000E-03 0.  1.
    9900012    2    1    2    0    0 -0.36770886175E+02 -0.11835987376E+02 -0.19784703216E+02  0.47787272487E+02  0.20000006579E+02 0.  0.
         12    1    1    2    0    0  0.36770886175E+02  0.11835987376E+02  0.19784703216E+02  0.43400727513E+02  0.00000000000E+00 0. -1.
         11    1    3    3    0    0 -0.80719550742E+01  0.34414446445E+01 -0.88908939492E+01  0.12491917204E+02  0.51100000000E-03 0. -1.
        -11    1    3    3    0    0 -0.26033538557E+02 -0.10521036967E+02 -0.84718778593E+01  0.29329337929E+02  0.51100000000E-03 0.  1.
         12    1    3    3    0    0 -0.26653925438E+01 -0.47563950538E+01 -0.24219314080E+01  0.59660173538E+01  0.00000000000E+00 0. -1.
</event>
<event>
 7    1  0.5317846E-010  0.4778727E+02  0.7816164E-02  0.1312668E+00
        -11   -1    0    0    0    0  0.00000000000E+00  0.00000000000E+00  0.45593999997E+02  0.45594000000E+02  0.51100000000E-03 0.  1.
         11   -1    0    0    0    0 -0.00000000000E+00 -0.00000000000E+00 -0.45593999997E+02  0.45594000000E+02  0.51100000000E-03 0. -1.
    9900012    2    1    2    0    0 -0.21104061114E+02 -0.26943968339E+02  0.26688277665E+02  0.47787274314E+02  0.20000014908E+02 0.  0.
         12    1    1    2    0    0  0.21104061114E+02  0.26943968339E+02 -0.26688277665E+02  0.43400725686E+02  0.00000000000E+00 0. -1.
         11    1    3    3    0    0 -0.50678742744E+01 -0.48292790790E+01  0.83306564714E+01  0.10881411838E+02  0.51100000000E-03 0.  1.
        -11    1    3    3    0    0 -0.16937001039E+02 -0.24169064479E+02  0.15702958803E+02  0.33430354432E+02  0.51100000000E-03 0. -1.
        -12    1    3    3    0    0  0.90081419939E+00  0.20543752190E+01  0.26546623897E+01  0.34755080443E+01  0.00000000000E+00 0.  1.
</event>
<event>
 7    1  0.5317846E-010  0.4778727E+02  0.7816164E-02  0.1312668E+00
        -11   -1    0    0    0    0  0.00000000000E+00  0.00000000000E+00  0.45593999997E+02  0.45594000000E+02  0.51100000000E-03 0. -1.
         11   -1    0    0    0    0 -0.00000000000E+00 -0.00000000000E+00 -0.45593999997E+02  0.45594000000E+02  0.51100000000E-03 0.  1.
    9900012    2    1    2    0    0 -0.18153821288E+02 -0.39266124780E+02  0.34975961717E+01  0.47787274642E+02  0.20000016404E+02 0.  0.
         12    1    1    2    0    0  0.18153821288E+02  0.39266124780E+02 -0.34975961717E+01  0.43400725358E+02  0.00000000000E+00 0. -1.
         11    1    3    3    0    0  0.96165634939E+00 -0.15229636747E+02  0.71195312543E+01  0.16839071944E+02  0.51100000000E-03 0. -1.
        -11    1    3    3    0    0 -0.17160830853E+02 -0.21332735686E+02 -0.35809726973E+01  0.27611647780E+02  0.51100000000E-03 0.  1.
         12    1    3    3    0    0 -0.19546467845E+01 -0.27037523465E+01 -0.40962385231E-01  0.33365549179E+01  0.00000000000E+00 0. -1.
</event>
<event>
 7    1  0.5317846E-010  0.4778727E+02  0.7816164E-02  0.1312668E+00
        -11   -1    0    0    0    0  0.00000000000E+00  0.00000000000E+00  0.45593999997E+02  0.45594000000E+02  0.51100000000E-03 0. -1.
         11   -1    0    0    0    0 -0.00000000000E+00 -0.00000000000E+00 -0.45593999997E+02  0.45594000000E+02  0.51100000000E-03 0.  1.
    9900012    2    1    2    0    0  0.17716539471E+02 -0.15690252942E+02 -0.36380810752E+02  0.47787271905E+02  0.20000003923E+02 0.  0.
         12    1    1    2    0    0 -0.17716539471E+02  0.15690252942E+02  0.36380810752E+02  0.43400728095E+02  0.00000000000E+00 0. -1.
         11    1    3    3    0    0 -0.79284142637E-01 -0.10253278589E+02 -0.86498575600E+01  0.13414769617E+02  0.51100000000E-03 0. -1.
        -11    1    3    3    0    0  0.16495954593E+02 -0.72911972922E+01 -0.24954631704E+02  0.30789798954E+02  0.51100000000E-03 0.  1.
        -12    1    3    3    0    0  0.12998690211E+01  0.18542229388E+01 -0.27763214881E+01  0.35827033346E+01  0.00000000000E+00 0.  1.
</event>
<event>
 7    1  0.5317846E-010  0.4778728E+02  0.7816164E-02  0.1312668E+00
        -11   -1    0    0    0    0  0.00000000000E+00  0.00000000000E+00  0.45593999997E+02  0.45594000000E+02  0.51100000000E-03 0.  1.
         11   -1    0    0    0    0 -0.00000000000E+00 -0.00000000000E+00 -0.45593999997E+02  0.45594000000E+02  0.51100000000E-03 0. -1.
    9900012    2    1    2    0    0 -0.32458523523E+02 -0.28034602928E+02  0.66428581482E+01  0.47787282552E+02  0.20000052465E+02 0.  0.
         12    1    1    2    0    0  0.32458523523E+02  0.28034602928E+02 -0.66428581482E+01  0.43400717448E+02  0.00000000000E+00 0. -1.
         11    1    3    3    0    0 -0.71762855055E+01 -0.12340052157E+02  0.86318268389E+01  0.16681858282E+02  0.51100000000E-03 0. -1.
        -11    1    3    3    0    0 -0.15570367438E+02 -0.13587733064E+02  0.11111243107E+01  0.20695348015E+02  0.51100000000E-03 0.  1.
         12    1    3    3    0    0 -0.97118705797E+01 -0.21068177074E+01 -0.31000930015E+01  0.10410076255E+02  0.00000000000E+00 0. -1.
</event>
<event>
 7    1  0.5317846E-010  0.4778727E+02  0.7816164E-02  0.1312668E+00
        -11   -1    0    0    0    0  0.00000000000E+00  0.00000000000E+00  0.45593999997E+02  0.45594000000E+02  0.51100000000E-03 0. -1.
         11   -1    0    0    0    0 -0.00000000000E+00 -0.00000000000E+00 -0.45593999997E+02  0.45594000000E+02  0.51100000000E-03 0.  1.
    9900012    2    1    2    0    0 -0.14116367678E+02 -0.24183169386E+02 -0.33159096314E+02  0.47787272052E+02  0.20000004595E+02 0.  0.
         12    1    1    2    0    0  0.14116367678E+02  0.24183169386E+02  0.33159096314E+02  0.43400727948E+02  0.00000000000E+00 0. -1.
         11    1    3    3    0    0  0.19238561667E+01  0.37908998187E+00 -0.59190513916E+01  0.62353910385E+01  0.51100000000E-03 0. -1.
        -11    1    3    3    0    0 -0.14985046897E+02 -0.23402649817E+02 -0.20240689252E+02  0.34379080130E+02  0.51100000000E-03 0.  1.
        -12    1    3    3    0    0 -0.10551769479E+01 -0.11596095518E+01 -0.69993556712E+01  0.71728008836E+01  0.00000000000E+00 0.  1.
</event>
<event>
 7    1  0.5317846E-010  0.4778727E+02  0.7816164E-02  0.1312668E+00
        -11   -1    0    0    0    0  0.00000000000E+00  0.00000000000E+00  0.45593999997E+02  0.45594000000E+02  0.51100000000E-03 0.  1.
         11   -1    0    0    0    0 -0.00000000000E+00 -0.00000000000E+00 -0.45593999997E+02  0.45594000000E+02  0.51100000000E-03 0. -1.
    9900012    2    1    2    0    0 -0.24382065059E+02  0.35806044633E+02  0.26580490995E+01  0.47787272428E+02  0.20000006309E+02 0.  0.
         12    1    1    2    0    0  0.24382065059E+02 -0.35806044633E+02 -0.26580490995E+01  0.43400727572E+02  0.00000000000E+00 0. -1.
         11    1    3    3    0    0 -0.14144642765E+02  0.86382596604E+01  0.42010948337E+01  0.17097942770E+02  0.51100000000E-03 0. -1.
        -11    1    3    3    0    0 -0.44793095445E+01  0.87920312321E+01  0.40051699375E+01  0.10649197795E+02  0.51100000000E-03 0.  1.
         12    1    3    3    0    0 -0.57581127489E+01  0.18375753740E+02 -0.55482156717E+01  0.20040131863E+02  0.00000000000E+00 0. -1.
</event>
<event>
 7    1  0.5317846E-010  0.4778727E+02  0.7816164E-02  0.1312668E+00
        -11   -1    0    0    0    0  0.00000000000E+00  0.00000000000E+00  0.45593999997E+02  0.45594000000E+02  0.51100000000E-03 0.  1.
         11   -1    0    0    0    0 -0.00000000000E+00 -0.00000000000E+00 -0.45593999997E+02  0.45594000000E+02  0.51100000000E-03 0. -1.
    9900012    2    1    2    0    0 -0.34039840593E+02 -0.68996287270E+01  0.26025135899E+02  0.47787270482E+02  0.19999997434E+02 0.  0.
         12    1    1    2    0    0  0.34039840593E+02  0.68996287270E+01 -0.26025135899E+02  0.43400729518E+02  0.00000000000E+00 0. -1.
         11    1    3    3    0    0  0.15563506459E+00 -0.17974213494E+01  0.13264243060E+01  0.22392738737E+01  0.51100000000E-03 0. -1.
        -11    1    3    3    0    0 -0.80153575740E+01  0.44803664544E+01  0.11461499665E+02  0.14686238982E+02  0.51100000000E-03 0.  1.
        -12    1    3    3    0    0 -0.26180118084E+02 -0.95825738321E+01  0.13237211927E+02  0.30861757626E+02  0.00000000000E+00 0.  1.
</event>
<event>
 7    1  0.5317846E-010  0.4778727E+02  0.7816164E-02  0.1312668E+00
        -11   -1    0    0    0    0  0.00000000000E+00  0.00000000000E+00  0.45593999997E+02  0.45594000000E+02  0.51100000000E-03 0.  1.
         11   -1    0    0    0    0 -0.00000000000E+00 -0.00000000000E+00 -0.45593999997E+02  0.45594000000E+02  0.51100000000E-03 0. -1.
    9900012    2    1    2    0    0 -0.36794265135E+02 -0.40581568344E+00  0.23013929235E+02  0.47787267609E+02  0.19999984337E+02 0.  0.
         12    1    1    2    0    0  0.36794265135E+02  0.40581568344E+00 -0.23013929235E+02  0.43400732391E+02  0.00000000000E+00 0. -1.
         11    1    3    3    0    0 -0.16256441052E+02  0.35264149208E+00  0.21196981955E+01  0.16397845968E+02  0.51100000000E-03 0.  1.
        -11    1    3    3    0    0 -0.18686341781E+02 -0.30925304558E+01  0.21159524704E+02  0.28398390795E+02  0.51100000000E-03 0. -1.
         12    1    3    3    0    0 -0.18514823025E+01  0.23340732803E+01 -0.26529366436E+00  0.29910308462E+01  0.00000000000E+00 0. -1.
</event>
<event>
 7    1  0.5367313E-010  0.4778727E+02  0.7816164E-02  0.1312668E+00
        -11   -1    0    0    0    0  0.00000000000E+00  0.00000000000E+00  0.45593999997E+02  0.45594000000E+02  0.51100000000E-03 0. -1.
         11   -1    0    0    0    0 -0.00000000000E+00 -0.00000000000E+00 -0.45593999997E+02  0.45594000000E+02  0.51100000000E-03 0.  1.
    9900012    2    1    2    0    0 -0.36671961975E+01  0.43200166744E+02 -0.19800318151E+01  0.47787271197E+02  0.20000000695E+02 0.  0.
         12    1    1    2    0    0  0.36671961975E+01 -0.43200166744E+02  0.19800318151E+01  0.43400728803E+02  0.00000000000E+00 0. -1.
         11    1    3    3    0    0 -0.71618652704E+01  0.15813419521E+02  0.53005489105E+01  0.18150822849E+02  0.51100000000E-03 0. -1.
        -11    1    3    3    0    0  0.22434448226E+01  0.21907129933E+02 -0.23267050461E+01  0.22144275631E+02  0.51100000000E-03 0.  1.
         12    1    3    3    0    0  0.12512242503E+01  0.54796172897E+01 -0.49538756795E+01  0.74921727165E+01  0.00000000000E+00 0. -1.
</event>
<event>
 7    1  0.5317846E-010  0.4778726E+02  0.7816164E-02  0.1312668E+00
        -11   -1    0    0    0    0  0.00000000000E+00  0.00000000000E+00  0.45593999997E+02  0.45594000000E+02  0.51100000000E-03 0.  1.
         11   -1    0    0    0    0 -0.00000000000E+00 -0.00000000000E+00 -0.45593999997E+02  0.45594000000E+02  0.51100000000E-03 0. -1.
    9900012    2    1    2    0    0 -0.71698714158E+01 -0.40901961550E+02  0.12619307735E+02  0.47787257581E+02  0.19999938616E+02 0.  0.
         12    1    1    2    0    0  0.71698714158E+01  0.40901961550E+02 -0.12619307735E+02  0.43400742419E+02  0.00000000000E+00 0. -1.
         11    1    3    3    0    0 -0.46885215715E+01 -0.35829203808E+01 -0.10758871104E+01  0.59980902225E+01  0.51100000000E-03 0. -1.
        -11    1    3    3    0    0 -0.54996521406E+01 -0.34369181281E+02  0.10092296083E+02  0.36240050167E+02  0.51100000000E-03 0.  1.
         12    1    3    3    0    0  0.30183022963E+01 -0.29498598883E+01  0.36028987633E+01  0.55491171921E+01  0.00000000000E+00 0. -1.
</event>
<event>
 7    1  0.5317846E-010  0.4778727E+02  0.7816164E-02  0.1312668E+00
        -11   -1    0    0    0    0  0.00000000000E+00  0.00000000000E+00  0.45593999997E+02  0.45594000000E+02  0.51100000000E-03 0.  1.
         11   -1    0    0    0    0 -0.00000000000E+00 -0.00000000000E+00 -0.45593999997E+02  0.45594000000E+02  0.51100000000E-03 0. -1.
    9900012    2    1    2    0    0 -0.18250213212E+02  0.37956315168E+02  0.10481939258E+02  0.47787271964E+02  0.20000004193E+02 0.  0.
         12    1    1    2    0    0  0.18250213212E+02 -0.37956315168E+02 -0.10481939258E+02  0.43400728036E+02  0.00000000000E+00 0. -1.
         11    1    3    3    0    0 -0.55892850721E+01  0.34906084127E+01 -0.13979734346E+01  0.67363777130E+01  0.51100000000E-03 0. -1.
        -11    1    3    3    0    0 -0.11164245702E+02  0.34492018281E+02  0.13644918862E+02  0.38736591463E+02  0.51100000000E-03 0.  1.
        -12    1    3    3    0    0 -0.14966824380E+01 -0.26311525557E-01 -0.17650061689E+01  0.23143027876E+01  0.00000000000E+00 0.  1.
</event>
<event>
 7    1  0.5317846E-010  0.4778728E+02  0.7816164E-02  0.1312668E+00
        -11   -1    0    0    0    0  0.00000000000E+00  0.00000000000E+00  0.45593999997E+02  0.45594000000E+02  0.51100000000E-03 0.  1.
         11   -1    0    0    0    0 -0.00000000000E+00 -0.00000000000E+00 -0.45593999997E+02  0.45594000000E+02  0.51100000000E-03 0. -1.
    9900012    2    1    2    0    0 -0.19000949755E+01 -0.28338061343E+02  0.32817166781E+02  0.47787279763E+02  0.20000039751E+02 0.  0.
         12    1    1    2    0    0  0.19000949755E+01  0.28338061343E+02 -0.32817166781E+02  0.43400720237E+02  0.00000000000E+00 0. -1.
         11    1    3    3    0    0 -0.28875542598E+01 -0.17568688116E+02  0.13449223669E+02  0.22313188685E+02  0.51100000000E-03 0. -1.
        -11    1    3    3    0    0  0.33580588097E+01 -0.16745648053E+00  0.11091662666E+00  0.33640605526E+01  0.51100000000E-03 0.  1.
        -12    1    3    3    0    0 -0.23705995254E+01 -0.10601916746E+02  0.19257026485E+02  0.22110030525E+02  0.00000000000E+00 0.  1.
</event>
<event>
 7    1  0.5317846E-010  0.4778727E+02  0.7816164E-02  0.1312668E+00
        -11   -1    0    0    0    0  0.00000000000E+00  0.00000000000E+00  0.45593999997E+02  0.45594000000E+02  0.51100000000E-03 0. -1.
         11   -1    0    0    0    0 -0.00000000000E+00 -0.00000000000E+00 -0.45593999997E+02  0.45594000000E+02  0.51100000000E-03 0.  1.
    9900012    2    1    2    0    0 -0.68019881779E+01 -0.38428941877E+02 -0.18988746078E+02  0.47787273109E+02  0.20000009415E+02 0.  0.
         12    1    1    2    0    0  0.68019881779E+01  0.38428941877E+02  0.18988746078E+02  0.43400726891E+02  0.00000000000E+00 0. -1.
         11    1    3    3    0    0  0.21376117511E+01 -0.12589338342E+02 -0.59590968664E-01  0.12769666215E+02  0.51100000000E-03 0. -1.
        -11    1    3    3    0    0 -0.11437126992E+02 -0.22923376030E+02 -0.16297829316E+02  0.30362942597E+02  0.51100000000E-03 0.  1.
        -12    1    3    3    0    0  0.24975270633E+01 -0.29162275053E+01 -0.26313257935E+01  0.46546642980E+01  0.00000000000E+00 0.  1.
</event>
<event>
 7    1  0.5317846E-010  0.4778727E+02  0.7816164E-02  0.1312668E+00
        -11   -1    0    0    0    0  0.00000000000E+00  0.00000000000E+00  0.45593999997E+02  0.45594000000E+02  0.51100000000E-03 0. -1.
         11   -1    0    0    0    0 -0.00000000000E+00 -0.00000000000E+00 -0.45593999997E+02  0.45594000000E+02  0.51100000000E-03 0.  1.
    9900012    2    1    2    0    0  0.37739003130E+02  0.16360955554E+02 -0.13845945423E+02  0.47787269263E+02  0.19999991876E+02 0.  0.
         12    1    1    2    0    0 -0.37739003130E+02 -0.16360955554E+02  0.13845945423E+02  0.43400730737E+02  0.00000000000E+00 0. -1.
         11    1    3    3    0    0  0.41148575068E+01  0.10456017021E+02 -0.30835824808E+01  0.11651988046E+02  0.51100000000E-03 0. -1.
        -11    1    3    3    0    0  0.17730289974E+02  0.84308723982E+00 -0.44430556988E+01  0.18297943132E+02  0.51100000000E-03 0.  1.
         12    1    3    3    0    0  0.15893855649E+02  0.50618512925E+01 -0.63193072436E+01  0.17837338085E+02  0.00000000000E+00 0. -1.
</event>
<event>
 7    1  0.5317846E-010  0.4778726E+02  0.7816164E-02  0.1312668E+00
        -11   -1    0    0    0    0  0.00000000000E+00  0.00000000000E+00  0.45593999997E+02  0.45594000000E+02  0.51100000000E-03 0.  1.
         11   -1    0    0    0    0 -0.00000000000E+00 -0.00000000000E+00 -0.45593999997E+02  0.45594000000E+02  0.51100000000E-03 0. -1.
    9900012    2    1    2    0    0  0.14076989299E+02  0.40940237660E+02 -0.30592782235E+01  0.47787264169E+02  0.19999968654E+02 0.  0.
         12    1    1    2    0    0 -0.14076989299E+02 -0.40940237660E+02  0.30592782235E+01  0.43400735831E+02  0.00000000000E+00 0. -1.
         11    1    3    3    0    0 -0.29177400683E+01  0.62990219595E+01 -0.46994064213E+01  0.83830367842E+01  0.51100000000E-03 0. -1.
        -11    1    3    3    0    0  0.71952691946E+01  0.18484723718E+02 -0.26929259634E+01  0.20017711163E+02  0.51100000000E-03 0.  1.
         12    1    3    3    0    0  0.97994601730E+01  0.16156491983E+02  0.43330541611E+01  0.19386516222E+02  0.00000000000E+00 0. -1.
</event>
<event>
 7    1  0.5317846E-010  0.4778727E+02  0.7816164E-02  0.1312668E+00
        -11   -1    0    0    0    0  0.00000000000E+00  0.00000000000E+00  0.45593999997E+02  0.45594000000E+02  0.51100000000E-03 0.  1.
         11   -1    0    0    0    0 -0.00000000000E+00 -0.00000000000E+00 -0.45593999997E+02  0.45594000000E+02  0.51100000000E-03 0. -1.
    9900012    2    1    2    0    0 -0.23994126008E+02  0.23767574481E+02  0.27258162528E+02  0.47787273001E+02  0.20000008921E+02 0.  0.
         12    1    1    2    0    0  0.23994126008E+02 -0.23767574481E+02 -0.27258162528E+02  0.43400726999E+02  0.00000000000E+00 0. -1.
         11    1    3    3    0    0 -0.14089819567E+01  0.38561168764E+01 -0.12540635568E+01  0.42927314363E+01  0.51100000000E-03 0. -1.
        -11    1    3    3    0    0 -0.23242192339E+02  0.20431337986E+02  0.29093856800E+02  0.42474599237E+02  0.51100000000E-03 0.  1.
        -12    1    3    3    0    0  0.65704828767E+00 -0.51988038047E+00 -0.58163071536E+00  0.10199423275E+01  0.00000000000E+00 0.  1.
</event>
<event>
 7    1  0.5317846E-010  0.4778728E+02  0.7816164E-02  0.1312668E+00
        -11   -1    0    0    0    0  0.00000000000E+00  0.00000000000E+00  0.45593999997E+02  0.45594000000E+02  0.51100000000E-03 0.  1.
         11   -1    0    0    0    0 -0.00000000000E+00 -0.00000000000E+00 -0.45593999997E+02  0.45594000000E+02  0.51100000000E-03 0. -1.
    9900012    2    1    2    0    0  0.15926174728E+02  0.39778743532E+02 -0.69015513177E+01  0.47787275478E+02  0.20000020216E+02 0.  0.
         12    1    1    2    0    0 -0.15926174728E+02 -0.39778743532E+02  0.69015513177E+01  0.43400724522E+02  0.00000000000E+00 0. -1.
         11    1    3    3    0    0  0.81638063266E+01  0.10529976983E+02  0.34100531541E+01  0.13753421821E+02  0.51100000000E-03 0. -1.
        -11    1    3    3    0    0  0.67169505300E+01  0.27470440800E+02 -0.12594115260E+02  0.30957297711E+02  0.51100000000E-03 0.  1.
         12    1    3    3    0    0  0.10454178714E+01  0.17783257489E+01  0.22825107879E+01  0.30765559465E+01  0.00000000000E+00 0. -1.
</event>
<event>
 7    1  0.5317846E-010  0.4778727E+02  0.7816164E-02  0.1312668E+00
        -11   -1    0    0    0    0  0.00000000000E+00  0.00000000000E+00  0.45593999997E+02  0.45594000000E+02  0.51100000000E-03 0.  1.
         11   -1    0    0    0    0 -0.00000000000E+00 -0.00000000000E+00 -0.45593999997E+02  0.45594000000E+02  0.51100000000E-03 0. -1.
    9900012    2    1    2    0    0  0.19445650650E+02 -0.38701814522E+02  0.27675925649E+01  0.47787270224E+02  0.19999996260E+02 0.  0.
         12    1    1    2    0    0 -0.19445650650E+02  0.38701814522E+02 -0.27675925649E+01  0.43400729776E+02  0.00000000000E+00 0. -1.
         11    1    3    3    0    0  0.94378748586E+01 -0.69592113651E+01  0.67190881875E+01  0.13514815981E+02  0.51100000000E-03 0. -1.
        -11    1    3    3    0    0  0.96534113252E+01 -0.23249052735E+02 -0.51278851640E+01  0.25690504273E+02  0.51100000000E-03 0.  1.
         12    1    3    3    0    0  0.35436446633E+00 -0.84935504210E+01  0.11763895415E+01  0.85819499697E+01  0.00000000000E+00 0. -1.
</event>
<event>
 7    1  0.5317846E-010  0.4778727E+02  0.7816164E-02  0.1312668E+00
        -11   -1    0    0    0    0  0.00000000000E+00  0.00000000000E+00  0.45593999997E+02  0.45594000000E+02  0.51100000000E-03 0. -1.
         11   -1    0    0    0    0 -0.00000000000E+00 -0.00000000000E+00 -0.45593999997E+02  0.45594000000E+02  0.51100000000E-03 0.  1.
    9900012    2    1    2    0    0  0.72840448429E+01  0.34406683259E+02 -0.25431198744E+02  0.47787273834E+02  0.20000012721E+02 0.  0.
         12    1    1    2    0    0 -0.72840448429E+01 -0.34406683259E+02  0.25431198744E+02  0.43400726166E+02  0.00000000000E+00 0. -1.
         11    1    3    3    0    0  0.25765285952E+01  0.13179809419E+01  0.13432341575E+01  0.31905879753E+01  0.51100000000E-03 0. -1.
        -11    1    3    3    0    0  0.82814428288E+01  0.19252545780E+02 -0.19199233264E+02  0.28422761521E+02  0.51100000000E-03 0.  1.
        -12    1    3    3    0    0 -0.35739265811E+01  0.13836156537E+02 -0.75751996379E+01  0.16173924338E+02  0.00000000000E+00 0.  1.
</event>
<event>
 7    1  0.6320685E-010  0.4778729E+02  0.7816164E-02  0.1312668E+00
        -11   -1    0    0    0    0  0.00000000000E+00  0.00000000000E+00  0.45593999997E+02  0.45594000000E+02  0.51100000000E-03 0. -1.
         11   -1    0    0    0    0 -0.00000000000E+00 -0.00000000000E+00 -0.45593999997E+02  0.45594000000E+02  0.51100000000E-03 0.  1.
    9900012    2    1    2    0    0  0.69228151586E+01 -0.42287710022E+02 -0.68881223706E+01  0.47787285508E+02  0.20000065944E+02 0.  0.
         12    1    1    2    0    0 -0.69228151586E+01  0.42287710022E+02  0.68881223706E+01  0.43400714492E+02  0.00000000000E+00 0. -1.
         11    1    3    3    0    0  0.98350670700E+00  0.22825394058E+00  0.22268216413E+01  0.24450194657E+01  0.51100000000E-03 0. -1.
        -11    1    3    3    0    0  0.11534213617E+01 -0.30412939252E+02 -0.19781380436E+01  0.30499021053E+02  0.51100000000E-03 0.  1.
         12    1    3    3    0    0  0.47858870899E+01 -0.12103024711E+02 -0.71368059683E+01  0.14843244989E+02  0.00000000000E+00 0. -1.
</event>
<event>
 7    1  0.5317846E-010  0.4778727E+02  0.7816164E-02  0.1312668E+00
        -11   -1    0    0    0    0  0.00000000000E+00  0.00000000000E+00  0.45593999997E+02  0.45594000000E+02  0.51100000000E-03 0.  1.
         11   -1    0    0    0    0 -0.00000000000E+00 -0.00000000000E+00 -0.45593999997E+02  0.45594000000E+02  0.51100000000E-03 0. -1.
    9900012    2    1    2    0    0 -0.30278758916E+02 -0.12875482958E+02  0.28302688728E+02  0.47787268530E+02  0.19999988537E+02 0.  0.
         12    1    1    2    0    0  0.30278758916E+02  0.12875482958E+02 -0.28302688728E+02  0.43400731470E+02  0.00000000000E+00 0. -1.
         11    1    3    3    0    0 -0.22416435659E+01 -0.80843648237E+01  0.31413921864E+01  0.89582512584E+01  0.51100000000E-03 0. -1.
        -11    1    3    3    0    0 -0.19928678922E+02 -0.45802220517E+01  0.13067565084E+02  0.24267095729E+02  0.51100000000E-03 0.  1.
         12    1    3    3    0    0 -0.81084364278E+01 -0.21089608219E+00  0.12093731458E+02  0.14561921543E+02  0.00000000000E+00 0. -1.
</event>
<event>
 7    1  0.5317846E-010  0.4778727E+02  0.7816164E-02  0.1312668E+00
        -11   -1    0    0    0    0  0.00000000000E+00  0.00000000000E+00  0.45593999997E+02  0.45594000000E+02  0.51100000000E-03 0. -1.
         11   -1    0    0    0    0 -0.00000000000E+00 -0.00000000000E+00 -0.45593999997E+02  0.45594000000E+02  0.51100000000E-03 0.  1.
    9900012    2    1    2    0    0  0.28657626217E+02 -0.29882250719E+02 -0.13015947604E+02  0.47787270277E+02  0.19999996503E+02 0.  0.
         12    1    1    2    0    0 -0.28657626217E+02  0.29882250719E+02  0.13015947604E+02  0.43400729723E+02  0.00000000000E+00 0. -1.
         11    1    3    3    0    0  0.81945928343E+01 -0.10741959918E+02 -0.82317905438E+01  0.15820980703E+02  0.51100000000E-03 0. -1.
        -11    1    3    3    0    0  0.36474822146E+01  0.15677382406E+01 -0.34461919692E+01  0.52572016364E+01  0.51100000000E-03 0.  1.
        -12    1    3    3    0    0  0.16815551168E+02 -0.20708029042E+02 -0.13379650910E+01  0.26709087938E+02  0.00000000000E+00 0.  1.
</event>
<event>
 7    1  0.5317846E-010  0.4778727E+02  0.7816164E-02  0.1312668E+00
        -11   -1    0    0    0    0  0.00000000000E+00  0.00000000000E+00  0.45593999997E+02  0.45594000000E+02  0.51100000000E-03 0.  1.
         11   -1    0    0    0    0 -0.00000000000E+00 -0.00000000000E+00 -0.45593999997E+02  0.45594000000E+02  0.51100000000E-03 0. -1.
    9900012    2    1    2    0    0  0.83430862648E+01 -0.19875319145E+02  0.37669455637E+02  0.47787270887E+02  0.19999999282E+02 0.  0.
         12    1    1    2    0    0 -0.83430862648E+01  0.19875319145E+02 -0.37669455637E+02  0.43400729113E+02  0.00000000000E+00 0. -1.
         11    1    3    3    0    0  0.89926086506E+01 -0.23575044972E+01  0.17510238278E+02  0.19825067026E+02  0.51100000000E-03 0. -1.
        -11    1    3    3    0    0 -0.28990286641E-03 -0.11100304582E+02  0.18023594634E+02  0.21167586676E+02  0.51100000000E-03 0.  1.
         12    1    3    3    0    0 -0.64923248292E+00 -0.64175100658E+01  0.21356227261E+01  0.67946171850E+01  0.00000000000E+00 0. -1.
</event>
<event>
 7    1  0.5317846E-010  0.4778727E+02  0.7816164E-02  0.1312668E+00
        -11   -1    0    0    0    0  0.00000000000E+00  0.00000000000E+00  0.45593999997E+02  0.45594000000E+02  0.51100000000E-03 0.  1.
         11   -1    0    0    0    0 -0.00000000000E+00 -0.00000000000E+00 -0.45593999997E+02  0.45594000000E+02  0.51100000000E-03 0. -1.
    9900012    2    1    2    0    0 -0.18115589342E+02 -0.96322973290E+01  0.38244835802E+02  0.47787271958E+02  0.20000004167E+02 0.  0.
         12    1    1    2    0    0  0.18115589342E+02  0.96322973290E+01 -0.38244835802E+02  0.43400728042E+02  0.00000000000E+00 0. -1.
         11    1    3    3    0    0 -0.70059361160E+01 -0.77030487377E+01  0.53400260809E+01  0.11701964772E+02  0.51100000000E-03 0. -1.
        -11    1    3    3    0    0 -0.11096689935E+02  0.65346791161E+00  0.19605273992E+02  0.22537309431E+02  0.51100000000E-03 0.  1.
         12    1    3    3    0    0 -0.12963290723E-01 -0.25827165030E+01  0.13299535729E+02  0.13547997756E+02  0.00000000000E+00 0. -1.
</event>
<event>
 7    1  0.5317846E-010  0.4778727E+02  0.7816164E-02  0.1312668E+00
        -11   -1    0    0    0    0  0.00000000000E+00  0.00000000000E+00  0.45593999997E+02  0.45594000000E+02  0.51100000000E-03 0.  1.
         11   -1    0    0    0    0 -0.00000000000E+00 -0.00000000000E+00 -0.45593999997E+02  0.45594000000E+02  0.51100000000E-03 0. -1.
    9900012    2    1    2    0    0  0.40938987100E+02  0.12202810123E-01  0.14409104765E+02  0.47787272888E+02  0.20000008407E+02 0.  0.
         12    1    1    2    0    0 -0.40938987100E+02 -0.12202810123E-01 -0.14409104765E+02  0.43400727112E+02  0.00000000000E+00 0. -1.
         11    1    3    3    0    0  0.21454384206E+01 -0.53998579778E-01  0.32222998123E-01  0.21463598128E+01  0.51100000000E-03 0. -1.
        -11    1    3    3    0    0  0.15894964099E+02  0.95380600188E+01  0.61210367664E+01  0.19521566637E+02  0.51100000000E-03 0.  1.
        -12    1    3    3    0    0  0.22898584581E+02 -0.94718586289E+01  0.82558450002E+01  0.26119346438E+02  0.00000000000E+00 0.  1.
</event>
<event>
 7    1  0.5317846E-010  0.4778727E+02  0.7816164E-02  0.1312668E+00
        -11   -1    0    0    0    0  0.00000000000E+00  0.00000000000E+00  0.45593999997E+02  0.45594000000E+02  0.51100000000E-03 0.  1.
         11   -1    0    0    0    0 -0.00000000000E+00 -0.00000000000E+00 -0.45593999997E+02  0.45594000000E+02  0.51100000000E-03 0. -1.
    9900012    2    1    2    0    0  0.35907784145E+02 -0.10548734875E+02  0.21976770001E+02  0.47787272019E+02  0.20000004441E+02 0.  0.
         12    1    1    2    0    0 -0.35907784145E+02  0.10548734875E+02 -0.21976770001E+02  0.43400727981E+02  0.00000000000E+00 0. -1.
         11    1    3    3    0    0  0.12875666149E+02  0.55007592540E+01  0.56579596607E+01  0.15101444929E+02  0.51100000000E-03 0. -1.
        -11    1    3    3    0    0  0.44595852479E+01 -0.22057116594E+01  0.43665069324E+01  0.66196259380E+01  0.51100000000E-03 0.  1.
         12    1    3    3    0    0  0.18572532748E+02 -0.13843782469E+02  0.11952303408E+02  0.26066201152E+02  0.00000000000E+00 0. -1.
</event>
<event>
 7    1  0.5317846E-010  0.4778727E+02  0.7816164E-02  0.1312668E+00
        -11   -1    0    0    0    0  0.00000000000E+00  0.00000000000E+00  0.45593999997E+02  0.45594000000E+02  0.51100000000E-03 0.  1.
         11   -1    0    0    0    0 -0.00000000000E+00 -0.00000000000E+00 -0.45593999997E+02  0.45594000000E+02  0.51100000000E-03 0. -1.
    9900012    2    1    2    0    0 -0.23742347700E+02  0.15157783794E+02  0.33017655705E+02  0.47787273369E+02  0.20000010597E+02 0.  0.
         12    1    1    2    0    0  0.23742347700E+02 -0.15157783794E+02 -0.33017655705E+02  0.43400726631E+02  0.00000000000E+00 0. -1.
         11    1    3    3    0    0 -0.65237592856E+01  0.14452716529E+01  0.13627004336E+02  0.15177071286E+02  0.51100000000E-03 0. -1.
        -11    1    3    3    0    0 -0.29994296836E+01  0.63669202264E+01 -0.52865482805E+00  0.70578840869E+01  0.51100000000E-03 0.  1.
        -12    1    3    3    0    0 -0.14219158731E+02  0.73455919150E+01  0.19919306197E+02  0.25552317996E+02  0.00000000000E+00 0.  1.
</event>
<event>
 7    1  0.5317846E-010  0.4778728E+02  0.7816164E-02  0.1312668E+00
        -11   -1    0    0    0    0  0.00000000000E+00  0.00000000000E+00  0.45593999997E+02  0.45594000000E+02  0.51100000000E-03 0. -1.
         11   -1    0    0    0    0 -0.00000000000E+00 -0.00000000000E+00 -0.45593999997E+02  0.45594000000E+02  0.51100000000E-03 0.  1.
    9900012    2    1    2    0    0 -0.38396223790E+02  0.34314675133E+01 -0.19939353605E+02  0.47787276587E+02  0.20000025271E+02 0.  0.
         12    1    1    2    0    0  0.38396223790E+02 -0.34314675133E+01  0.19939353605E+02  0.43400723413E+02  0.00000000000E+00 0. -1.
         11    1    3    3    0    0  0.15906825010E+01 -0.45692373602E-01  0.11649976291E+01  0.19722013966E+01  0.51100000000E-03 0. -1.
        -11    1    3    3    0    0 -0.24595484768E+02  0.39632899710E+01 -0.15927531574E+02  0.29569102128E+02  0.51100000000E-03 0.  1.
        -12    1    3    3    0    0 -0.15391421523E+02 -0.48613008412E+00 -0.51768196598E+01  0.16245973063E+02  0.00000000000E+00 0.  1.
</event>
<event>
 7    1  0.5317846E-010  0.4778729E+02  0.7816164E-02  0.1312668E+00
        -11   -1    0    0    0    0  0.00000000000E+00  0.00000000000E+00  0.45593999997E+02  0.45594000000E+02  0.51100000000E-03 0.  1.
         11   -1    0    0    0    0 -0.00000000000E+00 -0.00000000000E+00 -0.45593999997E+02  0.45594000000E+02  0.51100000000E-03 0. -1.
    9900012    2    1    2    0    0 -0.85718245241E+01 -0.42482247995E+02 -0.23246025237E+01  0.47787293240E+02  0.20000101196E+02 0.  0.
         12    1    1    2    0    0  0.85718245241E+01  0.42482247995E+02  0.23246025237E+01  0.43400706760E+02  0.00000000000E+00 0. -1.
         11    1    3    3    0    0 -0.60024374543E+00 -0.43713534126E+01 -0.39629796988E+01  0.59307867578E+01  0.51100000000E-03 0. -1.
        -11    1    3    3    0    0 -0.55501479348E+01 -0.53124294853E+01  0.43990426142E+01  0.88531138769E+01  0.51100000000E-03 0.  1.
        -12    1    3    3    0    0 -0.24214328440E+01 -0.32798465097E+02 -0.27606654392E+01  0.33003392605E+02  0.00000000000E+00 0.  1.
</event>
<event>
 7    1  0.5317846E-010  0.4778727E+02  0.7816164E-02  0.1312668E+00
        -11   -1    0    0    0    0  0.00000000000E+00  0.00000000000E+00  0.45593999997E+02  0.45594000000E+02  0.51100000000E-03 0. -1.
         11   -1    0    0    0    0 -0.00000000000E+00 -0.00000000000E+00 -0.45593999997E+02  0.45594000000E+02  0.51100000000E-03 0.  1.
    9900012    2    1    2    0    0 -0.23937730410E+02 -0.14536324457E+02 -0.33155748389E+02  0.47787270546E+02  0.19999997727E+02 0.  0.
         12    1    1    2    0    0  0.23937730410E+02  0.14536324457E+02  0.33155748389E+02  0.43400729454E+02  0.00000000000E+00 0. -1.
         11    1    3    3    0    0 -0.11733267643E+02 -0.16855887131E+02 -0.19546168138E+02  0.28352128486E+02  0.51100000000E-03 0. -1.
        -11    1    3    3    0    0 -0.11195601108E+02  0.10517916059E+01 -0.13802744316E+02  0.17803468781E+02  0.51100000000E-03 0.  1.
         12    1    3    3    0    0 -0.10088616593E+01  0.12677710688E+01  0.19316406429E+00  0.16316732781E+01  0.00000000000E+00 0. -1.
</event>
<event>
 7    1  0.5317846E-010  0.4778727E+02  0.7816164E-02  0.1312668E+00
        -11   -1    0    0    0    0  0.00000000000E+00  0.00000000000E+00  0.45593999997E+02  0.45594000000E+02  0.51100000000E-03 0.  1.
         11   -1    0    0    0    0 -0.00000000000E+00 -0.00000000000E+00 -0.45593999997E+02  0.45594000000E+02  0.51100000000E-03 0. -1.
    9900012    2    1    2    0    0 -0.46653597772E+00 -0.35275237671E+02  0.25279704691E+02  0.47787268233E+02  0.19999987184E+02 0.  0.
         12    1    1    2    0    0  0.46653597772E+00  0.35275237671E+02 -0.25279704691E+02  0.43400731767E+02  0.00000000000E+00 0. -1.
         11    1    3    3    0    0 -0.75404426647E+01 -0.17733343500E+02  0.62312528066E+01  0.20252364284E+02  0.51100000000E-03 0. -1.
        -11    1    3    3    0    0  0.62893464996E+01 -0.11156228009E+02  0.15766257392E+02  0.20312365081E+02  0.51100000000E-03 0.  1.
        -12    1    3    3    0    0  0.78456018747E+00 -0.63856661622E+01  0.32821944930E+01  0.72225388689E+01  0.00000000000E+00 0.  1.
</event>
<event>
 7    1  0.5317846E-010  0.4778727E+02  0.7816164E-02  0.1312668E+00
        -11   -1    0    0    0    0  0.00000000000E+00  0.00000000000E+00  0.45593999997E+02  0.45594000000E+02  0.51100000000E-03 0.  1.
         11   -1    0    0    0    0 -0.00000000000E+00 -0.00000000000E+00 -0.45593999997E+02  0.45594000000E+02  0.51100000000E-03 0. -1.
    9900012    2    1    2    0    0 -0.39364303732E+02  0.18257035224E+02 -0.86939274195E+00  0.47787267435E+02  0.19999983543E+02 0.  0.
         12    1    1    2    0    0  0.39364303732E+02 -0.18257035224E+02  0.86939274195E+00  0.43400732565E+02  0.00000000000E+00 0. -1.
         11    1    3    3    0    0 -0.12688319332E+02  0.72728555088E+00 -0.51152872811E+01  0.13699947298E+02  0.51100000000E-03 0. -1.
        -11    1    3    3    0    0 -0.26608835435E+02  0.18779154696E+02  0.40109092021E+01  0.32814237264E+02  0.51100000000E-03 0.  1.
        -12    1    3    3    0    0 -0.67148964862E-01 -0.12494050228E+01  0.23498533704E+00  0.12730828736E+01  0.00000000000E+00 0.  1.
</event>
<event>
 7    1  0.5317846E-010  0.4778727E+02  0.7816164E-02  0.1312668E+00
        -11   -1    0    0    0    0  0.00000000000E+00  0.00000000000E+00  0.45593999997E+02  0.45594000000E+02  0.51100000000E-03 0.  1.
         11   -1    0    0    0    0 -0.00000000000E+00 -0.00000000000E+00 -0.45593999997E+02  0.45594000000E+02  0.51100000000E-03 0. -1.
    9900012    2    1    2    0    0  0.18236486162E+02  0.32744294187E+02  0.21882990146E+02  0.47787268588E+02  0.19999988801E+02 0.  0.
         12    1    1    2    0    0 -0.18236486162E+02 -0.32744294187E+02 -0.21882990146E+02  0.43400731412E+02  0.00000000000E+00 0. -1.
         11    1    3    3    0    0  0.10762525298E+02  0.44623198935E+01  0.54589172368E+01  0.12866391386E+02  0.51100000000E-03 0.  1.
        -11    1    3    3    0    0  0.86956715354E+01  0.16839910618E+02  0.12747647174E+02  0.22840748714E+02  0.51100000000E-03 0. -1.
         12    1    3    3    0    0 -0.12217106719E+01  0.11442063675E+02  0.36764257355E+01  0.12080128489E+02  0.00000000000E+00 0. -1.
</event>
<event>
 7    1  0.5317846E-010  0.4778727E+02  0.7816164E-02  0.1312668E+00
        -11   -1    0    0    0    0  0.00000000000E+00  0.00000000000E+00  0.45593999997E+02  0.45594000000E+02  0.51100000000E-03 0. -1.
         11   -1    0    0    0    0 -0.00000000000E+00 -0.00000000000E+00 -0.45593999997E+02  0.45594000000E+02  0.51100000000E-03 0.  1.
    9900012    2    1    2    0    0  0.17018506546E+02  0.51889858997E+01 -0.39586210749E+02  0.47787271652E+02  0.20000002770E+02 0.  0.
         12    1    1    2    0    0 -0.17018506546E+02 -0.51889858997E+01  0.39586210749E+02  0.43400728348E+02  0.00000000000E+00 0. -1.
         11    1    3    3    0    0  0.75989404563E+01 -0.75645702643E+01 -0.17110359358E+02  0.20192350456E+02  0.51100000000E-03 0. -1.
        -11    1    3    3    0    0  0.72825339465E+01  0.81215938250E+01 -0.15253175304E+02  0.18752465013E+02  0.51100000000E-03 0.  1.
         12    1    3    3    0    0  0.21370321429E+01  0.46319623390E+01 -0.72226760867E+01  0.88424561827E+01  0.00000000000E+00 0. -1.
</event>
<event>
 7    1  0.5317846E-010  0.4778727E+02  0.7816164E-02  0.1312668E+00
        -11   -1    0    0    0    0  0.00000000000E+00  0.00000000000E+00  0.45593999997E+02  0.45594000000E+02  0.51100000000E-03 0. -1.
         11   -1    0    0    0    0 -0.00000000000E+00 -0.00000000000E+00 -0.45593999997E+02  0.45594000000E+02  0.51100000000E-03 0.  1.
    9900012    2    1    2    0    0  0.39535360998E+02 -0.17884205302E+02  0.85662264238E+00  0.47787269927E+02  0.19999994905E+02 0.  0.
         12    1    1    2    0    0 -0.39535360998E+02  0.17884205302E+02 -0.85662264238E+00  0.43400730073E+02  0.00000000000E+00 0. -1.
         11    1    3    3    0    0  0.80174599368E+01 -0.11418787489E+02 -0.30550927848E+01  0.14282925602E+02  0.51100000000E-03 0.  1.
        -11    1    3    3    0    0  0.57295397457E+01 -0.96605022519E+00 -0.25665098363E+01  0.63519958860E+01  0.51100000000E-03 0. -1.
         12    1    3    3    0    0  0.25788361315E+02 -0.54993675873E+01  0.64782252634E+01  0.27152348439E+02  0.00000000000E+00 0. -1.
</event>
<event>
 7    1  0.5317846E-010  0.4778727E+02  0.7816164E-02  0.1312668E+00
        -11   -1    0    0    0    0  0.00000000000E+00  0.00000000000E+00  0.45593999997E+02  0.45594000000E+02  0.51100000000E-03 0. -1.
         11   -1    0    0    0    0 -0.00000000000E+00 -0.00000000000E+00 -0.45593999997E+02  0.45594000000E+02  0.51100000000E-03 0.  1.
    9900012    2    1    2    0    0 -0.40873277911E+02 -0.29777331184E+01  0.14287474270E+02  0.47787266565E+02  0.19999979574E+02 0.  0.
         12    1    1    2    0    0  0.40873277911E+02  0.29777331184E+01 -0.14287474270E+02  0.43400733435E+02  0.00000000000E+00 0. -1.
         11    1    3    3    0    0 -0.76985197386E+01 -0.54539642461E+01  0.73051123602E+00  0.94629054254E+01  0.51100000000E-03 0. -1.
        -11    1    3    3    0    0 -0.19753055203E+02  0.18353173466E+01  0.14914127144E+02  0.24819000148E+02  0.51100000000E-03 0.  1.
        -12    1    3    3    0    0 -0.13421702970E+02  0.64091378109E+00 -0.13571641102E+01  0.13505360991E+02  0.00000000000E+00 0.  1.
</event>
<event>
 7    1  0.5317846E-010  0.4778727E+02  0.7816164E-02  0.1312668E+00
        -11   -1    0    0    0    0  0.00000000000E+00  0.00000000000E+00  0.45593999997E+02  0.45594000000E+02  0.51100000000E-03 0. -1.
         11   -1    0    0    0    0 -0.00000000000E+00 -0.00000000000E+00 -0.45593999997E+02  0.45594000000E+02  0.51100000000E-03 0.  1.
    9900012    2    1    2    0    0 -0.93508061808E+01 -0.32880305614E+02 -0.26740816910E+02  0.47787270023E+02  0.19999995345E+02 0.  0.
         12    1    1    2    0    0  0.93508061808E+01  0.32880305614E+02  0.26740816910E+02  0.43400729977E+02  0.00000000000E+00 0. -1.
         11    1    3    3    0    0  0.25660280156E+01 -0.13428614455E+02 -0.18865118067E+02  0.23298173016E+02  0.51100000000E-03 0. -1.
        -11    1    3    3    0    0  0.86552184748E-01 -0.17425707089E+01 -0.10332612817E+01  0.20277260894E+01  0.51100000000E-03 0.  1.
         12    1    3    3    0    0 -0.12003386381E+02 -0.17709120450E+02 -0.68424375612E+01  0.22461370918E+02  0.00000000000E+00 0. -1.
</event>
<event>
 7    1  0.5317846E-010  0.4778727E+02  0.7816164E-02  0.1312668E+00
        -11   -1    0    0    0    0  0.00000000000E+00  0.00000000000E+00  0.45593999997E+02  0.45594000000E+02  0.51100000000E-03 0.  1.
         11   -1    0    0    0    0 -0.00000000000E+00 -0.00000000000E+00 -0.45593999997E+02  0.45594000000E+02  0.51100000000E-03 0. -1.
    9900012    2    1    2    0    0  0.33940752659E+01  0.67023040126E+01  0.42745557968E+02  0.47787270145E+02  0.19999995899E+02 0.  0.
         12    1    1    2    0    0 -0.33940752659E+01 -0.67023040126E+01 -0.42745557968E+02  0.43400729855E+02  0.00000000000E+00 0. -1.
         11    1    3    3    0    0 -0.87708372332E+00 -0.26095407145E+00 -0.11566516973E+01  0.14748614495E+01  0.51100000000E-03 0.  1.
        -11    1    3    3    0    0  0.12560367509E+01  0.38003318748E+00  0.34102932923E+02  0.34128171468E+02  0.51100000000E-03 0. -1.
         12    1    3    3    0    0  0.30151222383E+01  0.65832248966E+01  0.97992767422E+01  0.12184237228E+02  0.00000000000E+00 0. -1.
</event>
<event>
 7    1  0.5317846E-010  0.4778726E+02  0.7816164E-02  0.1312668E+00
        -11   -1    0    0    0    0  0.00000000000E+00  0.00000000000E+00  0.45593999997E+02  0.45594000000E+02  0.51100000000E-03 0.  1.
         11   -1    0    0    0    0 -0.00000000000E+00 -0.00000000000E+00 -0.45593999997E+02  0.45594000000E+02  0.51100000000E-03 0. -1.
    9900012    2    1    2    0    0 -0.22325900436E+02 -0.22316949204E+02  0.29784757936E+02  0.47787264322E+02  0.19999969351E+02 0.  0.
         12    1    1    2    0    0  0.22325900436E+02  0.22316949204E+02 -0.29784757936E+02  0.43400735678E+02  0.00000000000E+00 0. -1.
         11    1    3    3    0    0  0.43307505515E+00 -0.99614280592E+01  0.96390001246E+01  0.13868234446E+02  0.51100000000E-03 0. -1.
        -11    1    3    3    0    0 -0.16734848329E+01 -0.24838390741E+01  0.59212898963E+01  0.66356372964E+01  0.51100000000E-03 0.  1.
         12    1    3    3    0    0 -0.21085490658E+02 -0.98716820709E+01  0.14224467915E+02  0.27283392580E+02  0.00000000000E+00 0. -1.
</event>
<event>
 7    1  0.5317846E-010  0.4778727E+02  0.7816164E-02  0.1312668E+00
        -11   -1    0    0    0    0  0.00000000000E+00  0.00000000000E+00  0.45593999997E+02  0.45594000000E+02  0.51100000000E-03 0.  1.
         11   -1    0    0    0    0 -0.00000000000E+00 -0.00000000000E+00 -0.45593999997E+02  0.45594000000E+02  0.51100000000E-03 0. -1.
    9900012    2    1    2    0    0  0.27267824762E+02 -0.33416520946E+02  0.48399681810E+01  0.47787269230E+02  0.19999991728E+02 0.  0.
         12    1    1    2    0    0 -0.27267824762E+02  0.33416520946E+02 -0.48399681810E+01  0.43400730770E+02  0.00000000000E+00 0. -1.
         11    1    3    3    0    0 -0.28791669808E+01 -0.38072371456E+01 -0.59575457840E-05  0.47733277121E+01  0.51100000000E-03 0. -1.
        -11    1    3    3    0    0  0.25219189049E+02 -0.27685768915E+02  0.41556287805E+01  0.37679948879E+02  0.51100000000E-03 0.  1.
        -12    1    3    3    0    0  0.49278026942E+01 -0.19235148851E+01  0.68434535806E+00  0.53339926393E+01  0.00000000000E+00 0.  1.
</event>
<event>
 7    1  0.5317846E-010  0.4778727E+02  0.7816164E-02  0.1312668E+00
        -11   -1    0    0    0    0  0.00000000000E+00  0.00000000000E+00  0.45593999997E+02  0.45594000000E+02  0.51100000000E-03 0. -1.
         11   -1    0    0    0    0 -0.00000000000E+00 -0.00000000000E+00 -0.45593999997E+02  0.45594000000E+02  0.51100000000E-03 0.  1.
    9900012    2    1    2    0    0  0.28833944390E+02 -0.20969020839E+02 -0.24749291292E+02  0.47787267247E+02  0.19999982685E+02 0.  0.
         12    1    1    2    0    0 -0.28833944390E+02  0.20969020839E+02  0.24749291292E+02  0.43400732753E+02  0.00000000000E+00 0. -1.
         11    1    3    3    0    0  0.55970571516E+00  0.10729584750E+01 -0.69136908273E+01  0.70188055603E+01  0.51100000000E-03 0. -1.
        -11    1    3    3    0    0  0.23281437807E+02 -0.18127604936E+02 -0.17729206323E+02  0.34423250343E+02  0.51100000000E-03 0.  1.
         12    1    3    3    0    0  0.49928008678E+01 -0.39143743780E+01 -0.10639414175E+00  0.63452113433E+01  0.00000000000E+00 0. -1.
</event>
<event>
 7    1  0.5317846E-010  0.4778727E+02  0.7816164E-02  0.1312668E+00
        -11   -1    0    0    0    0  0.00000000000E+00  0.00000000000E+00  0.45593999997E+02  0.45594000000E+02  0.51100000000E-03 0.  1.
         11   -1    0    0    0    0 -0.00000000000E+00 -0.00000000000E+00 -0.45593999997E+02  0.45594000000E+02  0.51100000000E-03 0. -1.
    9900012    2    1    2    0    0  0.21641596014E+02  0.23855881012E+02  0.29088857850E+02  0.47787269730E+02  0.19999994009E+02 0.  0.
         12    1    1    2    0    0 -0.21641596014E+02 -0.23855881012E+02 -0.29088857850E+02  0.43400730270E+02  0.00000000000E+00 0. -1.
         11    1    3    3    0    0  0.95524302855E+01  0.75107104963E+01  0.37775871632E+01  0.12725166465E+02  0.51100000000E-03 0. -1.
        -11    1    3    3    0    0  0.25443848442E+01  0.14269826774E+02  0.15041824118E+02  0.20889191546E+02  0.51100000000E-03 0.  1.
        -12    1    3    3    0    0  0.95447808847E+01  0.20753437422E+01  0.10269446569E+02  0.14172911720E+02  0.00000000000E+00 0.  1.
</event>
<event>
 7    1  0.5317846E-010  0.4778727E+02  0.7816164E-02  0.1312668E+00
        -11   -1    0    0    0    0  0.00000000000E+00  0.00000000000E+00  0.45593999997E+02  0.45594000000E+02  0.51100000000E-03 0. -1.
         11   -1    0    0    0    0 -0.00000000000E+00 -0.00000000000E+00 -0.45593999997E+02  0.45594000000E+02  0.51100000000E-03 0.  1.
    9900012    2    1    2    0    0  0.44380463026E+01  0.36401429765E+02 -0.23213421430E+02  0.47787270992E+02  0.19999999763E+02 0.  0.
         12    1    1    2    0    0 -0.44380463026E+01 -0.36401429765E+02  0.23213421430E+02  0.43400729008E+02  0.00000000000E+00 0. -1.
         11    1    3    3    0    0  0.52173048980E+01  0.16562591968E+02 -0.16793852720E+02  0.24157260038E+02  0.51100000000E-03 0.  1.
        -11    1    3    3    0    0  0.22362972002E+01  0.14536303638E+02  0.91876285787E-01  0.14707603141E+02  0.51100000000E-03 0. -1.
         12    1    3    3    0    0 -0.30155557956E+01  0.53025341582E+01 -0.65114449960E+01  0.89224078135E+01  0.00000000000E+00 0. -1.
</event>
<event>
 7    1  0.5317846E-010  0.4778727E+02  0.7816164E-02  0.1312668E+00
        -11   -1    0    0    0    0  0.00000000000E+00  0.00000000000E+00  0.45593999997E+02  0.45594000000E+02  0.51100000000E-03 0. -1.
         11   -1    0    0    0    0 -0.00000000000E+00 -0.00000000000E+00 -0.45593999997E+02  0.45594000000E+02  0.51100000000E-03 0.  1.
    9900012    2    1    2    0    0  0.34954570050E+02 -0.12931938316E+02 -0.22238848124E+02  0.47787270031E+02  0.19999995380E+02 0.  0.
         12    1    1    2    0    0 -0.34954570050E+02  0.12931938316E+02  0.22238848124E+02  0.43400729969E+02  0.00000000000E+00 0. -1.
         11    1    3    3    0    0  0.19360885896E+02 -0.77057386944E+01 -0.55356680103E+01  0.21560749803E+02  0.51100000000E-03 0.  1.
        -11    1    3    3    0    0  0.61425594256E+01 -0.41126341523E+01 -0.14768651933E+02  0.16515383015E+02  0.51100000000E-03 0. -1.
         12    1    3    3    0    0  0.94511247283E+01 -0.11135654696E+01 -0.19345281805E+01  0.97111372129E+01  0.00000000000E+00 0. -1.
</event>
<event>
 7    1  0.5317846E-010  0.4778727E+02  0.7816164E-02  0.1312668E+00
        -11   -1    0    0    0    0  0.00000000000E+00  0.00000000000E+00  0.45593999997E+02  0.45594000000E+02  0.51100000000E-03 0.  1.
         11   -1    0    0    0    0 -0.00000000000E+00 -0.00000000000E+00 -0.45593999997E+02  0.45594000000E+02  0.51100000000E-03 0. -1.
    9900012    2    1    2    0    0  0.22491362312E+02  0.64584560841E+01  0.36552019770E+02  0.47787272092E+02  0.20000004778E+02 0.  0.
         12    1    1    2    0    0 -0.22491362312E+02 -0.64584560841E+01 -0.36552019770E+02  0.43400727908E+02  0.00000000000E+00 0. -1.
         11    1    3    3    0    0  0.21431444755E+02  0.57581943756E+01  0.17305540308E+02  0.28141523633E+02  0.51100000000E-03 0. -1.
        -11    1    3    3    0    0  0.23766471867E+01 -0.18335252194E-01  0.13446345052E+02  0.13654778780E+02  0.51100000000E-03 0.  1.
         12    1    3    3    0    0 -0.13167296305E+01  0.71859696065E+00  0.58001344111E+01  0.59909696793E+01  0.00000000000E+00 0. -1.
</event>
<event>
 7    1  0.5317846E-010  0.4778727E+02  0.7816164E-02  0.1312668E+00
        -11   -1    0    0    0    0  0.00000000000E+00  0.00000000000E+00  0.45593999997E+02  0.45594000000E+02  0.51100000000E-03 0.  1.
         11   -1    0    0    0    0 -0.00000000000E+00 -0.00000000000E+00 -0.45593999997E+02  0.45594000000E+02  0.51100000000E-03 0. -1.
    9900012    2    1    2    0    0 -0.12855501951E+01 -0.42503624332E+01  0.43172968164E+02  0.47787269589E+02  0.19999993364E+02 0.  0.
         12    1    1    2    0    0  0.12855501951E+01  0.42503624332E+01 -0.43172968164E+02  0.43400730411E+02  0.00000000000E+00 0. -1.
         11    1    3    3    0    0 -0.16217586703E+01 -0.31081992400E+01  0.57143693882E+01  0.67041048221E+01  0.51100000000E-03 0. -1.
        -11    1    3    3    0    0  0.24992974439E+01 -0.85141521257E+01  0.23974926465E+02  0.25564318363E+02  0.51100000000E-03 0.  1.
        -12    1    3    3    0    0 -0.21630889687E+01  0.73719889325E+01  0.13483672311E+02  0.15518846404E+02  0.00000000000E+00 0.  1.
</event>
<event>
 7    1  0.5317846E-010  0.4778731E+02  0.7816164E-02  0.1312668E+00
        -11   -1    0    0    0    0  0.00000000000E+00  0.00000000000E+00  0.45593999997E+02  0.45594000000E+02  0.51100000000E-03 0.  1.
         11   -1    0    0    0    0 -0.00000000000E+00 -0.00000000000E+00 -0.45593999997E+02  0.45594000000E+02  0.51100000000E-03 0. -1.
    9900012    2    1    2    0    0 -0.92084763663E+01  0.32551212919E+02  0.27189017190E+02  0.47787306973E+02  0.20000163810E+02 0.  0.
         12    1    1    2    0    0  0.92084763663E+01 -0.32551212919E+02 -0.27189017190E+02  0.43400693027E+02  0.00000000000E+00 0. -1.
         11    1    3    3    0    0  0.36150763035E+01  0.12566898399E+02  0.14724170210E+02  0.19692559526E+02  0.51100000000E-03 0. -1.
        -11    1    3    3    0    0 -0.10888049281E+02  0.20419640359E+02  0.10963481268E+02  0.25606820407E+02  0.51100000000E-03 0.  1.
        -12    1    3    3    0    0 -0.19355033886E+01 -0.43532583958E+00  0.15013657122E+01  0.24879270399E+01  0.00000000000E+00 0.  1.
</event>
<event>
 7    1  0.5317846E-010  0.4778727E+02  0.7816164E-02  0.1312668E+00
        -11   -1    0    0    0    0  0.00000000000E+00  0.00000000000E+00  0.45593999997E+02  0.45594000000E+02  0.51100000000E-03 0. -1.
         11   -1    0    0    0    0 -0.00000000000E+00 -0.00000000000E+00 -0.45593999997E+02  0.45594000000E+02  0.51100000000E-03 0.  1.
    9900012    2    1    2    0    0  0.41883891103E+02 -0.60111875441E+00 -0.11357884217E+02  0.47787271762E+02  0.20000003273E+02 0.  0.
         12    1    1    2    0    0 -0.41883891103E+02  0.60111875441E+00  0.11357884217E+02  0.43400728238E+02  0.00000000000E+00 0. -1.
         11    1    3    3    0    0  0.22346698255E+01 -0.28222201698E+01 -0.52022676607E+01  0.63263152775E+01  0.51100000000E-03 0. -1.
        -11    1    3    3    0    0  0.36719339565E+02  0.38951005656E+01 -0.33580919312E+01  0.37077735748E+02  0.51100000000E-03 0.  1.
        -12    1    3    3    0    0  0.29298817125E+01 -0.16739991502E+01 -0.27975246248E+01  0.43832207371E+01  0.00000000000E+00 0.  1.
</event>
<event>
 7    1  0.5317846E-010  0.4778729E+02  0.7816164E-02  0.1312668E+00
        -11   -1    0    0    0    0  0.00000000000E+00  0.00000000000E+00  0.45593999997E+02  0.45594000000E+02  0.51100000000E-03 0. -1.
         11   -1    0    0    0    0 -0.00000000000E+00 -0.00000000000E+00 -0.45593999997E+02  0.45594000000E+02  0.51100000000E-03 0.  1.
    9900012    2    1    2    0    0  0.18604260961E+02  0.38283506410E+02 -0.84779816435E+01  0.47787290770E+02  0.20000089935E+02 0.  0.
         12    1    1    2    0    0 -0.18604260961E+02 -0.38283506410E+02  0.84779816435E+01  0.43400709230E+02  0.00000000000E+00 0. -1.
         11    1    3    3    0    0  0.26865542668E+00 -0.68855205483E+00 -0.72279682944E+00  0.10337868195E+01  0.51100000000E-03 0. -1.
        -11    1    3    3    0    0  0.63730206989E+01  0.52325207895E+01  0.38792892526E+01  0.91128234926E+01  0.51100000000E-03 0.  1.
        -12    1    3    3    0    0  0.11962584835E+02  0.33739537676E+02 -0.11634474067E+02  0.37640680457E+02  0.00000000000E+00 0.  1.
</event>
<event>
 7    1  0.5317846E-010  0.4778728E+02  0.7816164E-02  0.1312668E+00
        -11   -1    0    0    0    0  0.00000000000E+00  0.00000000000E+00  0.45593999997E+02  0.45594000000E+02  0.51100000000E-03 0.  1.
         11   -1    0    0    0    0 -0.00000000000E+00 -0.00000000000E+00 -0.45593999997E+02  0.45594000000E+02  0.51100000000E-03 0. -1.
    9900012    2    1    2    0    0 -0.29406402861E+02 -0.12206560368E+02  0.29493830822E+02  0.47787277635E+02  0.20000030050E+02 0.  0.
         12    1    1    2    0    0  0.29406402861E+02  0.12206560368E+02 -0.29493830822E+02  0.43400722365E+02  0.00000000000E+00 0. -1.
         11    1    3    3    0    0  0.85699436720E+00  0.32007844606E+01  0.43352203773E+01  0.54565187152E+01  0.51100000000E-03 0. -1.
        -11    1    3    3    0    0 -0.26938073888E+02 -0.14220814543E+02  0.21805729004E+02  0.37461729922E+02  0.51100000000E-03 0.  1.
        -12    1    3    3    0    0 -0.33253233407E+01 -0.11865302853E+01  0.33528814401E+01  0.48690289986E+01  0.00000000000E+00 0.  1.
</event>
<event>
 7    1  0.5317846E-010  0.4778727E+02  0.7816164E-02  0.1312668E+00
        -11   -1    0    0    0    0  0.00000000000E+00  0.00000000000E+00  0.45593999997E+02  0.45594000000E+02  0.51100000000E-03 0.  1.
         11   -1    0    0    0    0 -0.00000000000E+00 -0.00000000000E+00 -0.45593999997E+02  0.45594000000E+02  0.51100000000E-03 0. -1.
    9900012    2    1    2    0    0 -0.13075688946E+01 -0.12992969827E+02  0.41389566835E+02  0.47787271387E+02  0.20000001561E+02 0.  0.
         12    1    1    2    0    0  0.13075688946E+01  0.12992969827E+02 -0.41389566835E+02  0.43400728613E+02  0.00000000000E+00 0. -1.
         11    1    3    3    0    0 -0.68414819178E+01 -0.52189692148E+01  0.71819510261E+01  0.11208208389E+02  0.51100000000E-03 0. -1.
        -11    1    3    3    0    0  0.52721275282E+01 -0.50839260964E+01  0.11003802883E+02  0.13218370224E+02  0.51100000000E-03 0.  1.
         12    1    3    3    0    0  0.26178549501E+00 -0.26900745158E+01  0.23203812926E+02  0.23360692773E+02  0.00000000000E+00 0. -1.
</event>
<event>
 7    1  0.5317846E-010  0.4778727E+02  0.7816164E-02  0.1312668E+00
        -11   -1    0    0    0    0  0.00000000000E+00  0.00000000000E+00  0.45593999997E+02  0.45594000000E+02  0.51100000000E-03 0.  1.
         11   -1    0    0    0    0 -0.00000000000E+00 -0.00000000000E+00 -0.45593999997E+02  0.45594000000E+02  0.51100000000E-03 0. -1.
    9900012    2    1    2    0    0 -0.39498147295E+02 -0.13162071049E+02  0.12258861939E+02  0.47787269015E+02  0.19999990747E+02 0.  0.
         12    1    1    2    0    0  0.39498147295E+02  0.13162071049E+02 -0.12258861939E+02  0.43400730985E+02  0.00000000000E+00 0. -1.
         11    1    3    3    0    0 -0.19006598580E+02 -0.92501645553E+01  0.12732475647E+02  0.24676553046E+02  0.51100000000E-03 0. -1.
        -11    1    3    3    0    0 -0.13742656095E+02 -0.64129580591E+01  0.24128815865E+01  0.15356061520E+02  0.51100000000E-03 0.  1.
         12    1    3    3    0    0 -0.67488926198E+01  0.25010515652E+01 -0.28864952948E+01  0.77546544483E+01  0.00000000000E+00 0. -1.
</event>
<event>
 7    1  0.5317846E-010  0.4778727E+02  0.7816164E-02  0.1312668E+00
        -11   -1    0    0    0    0  0.00000000000E+00  0.00000000000E+00  0.45593999997E+02  0.45594000000E+02  0.51100000000E-03 0.  1.
         11   -1    0    0    0    0 -0.00000000000E+00 -0.00000000000E+00 -0.45593999997E+02  0.45594000000E+02  0.51100000000E-03 0. -1.
    9900012    2    1    2    0    0  0.33273800913E+02  0.17502950615E+02  0.21682350535E+02  0.47787269221E+02  0.19999991686E+02 0.  0.
         12    1    1    2    0    0 -0.33273800913E+02 -0.17502950615E+02 -0.21682350535E+02  0.43400730779E+02  0.00000000000E+00 0. -1.
         11    1    3    3    0    0 -0.16182009433E+01  0.16312798597E+01  0.31422838220E+01  0.38927620211E+01  0.51100000000E-03 0. -1.
        -11    1    3    3    0    0  0.28235155571E+02  0.13437790400E+02  0.10072495421E+02  0.32851992104E+02  0.51100000000E-03 0.  1.
        -12    1    3    3    0    0  0.66568462855E+01  0.24338803557E+01  0.84675712918E+01  0.11042515096E+02  0.00000000000E+00 0.  1.
</event>
<event>
 7    1  0.5317846E-010  0.4778728E+02  0.7816164E-02  0.1312668E+00
        -11   -1    0    0    0    0  0.00000000000E+00  0.00000000000E+00  0.45593999997E+02  0.45594000000E+02  0.51100000000E-03 0.  1.
         11   -1    0    0    0    0 -0.00000000000E+00 -0.00000000000E+00 -0.45593999997E+02  0.45594000000E+02  0.51100000000E-03 0. -1.
    9900012    2    1    2    0    0  0.12799626437E+02  0.41205380051E+02  0.46807138848E+01  0.47787275760E+02  0.20000021499E+02 0.  0.
         12    1    1    2    0    0 -0.12799626437E+02 -0.41205380051E+02 -0.46807138848E+01  0.43400724240E+02  0.00000000000E+00 0. -1.
         11    1    3    3    0    0  0.33683624840E+01  0.57754060367E+01 -0.43466958120E+01  0.79746439078E+01  0.51100000000E-03 0. -1.
        -11    1    3    3    0    0  0.10114003851E+02  0.36024707271E+02  0.97353380114E+01  0.38663282509E+02  0.51100000000E-03 0.  1.
        -12    1    3    3    0    0 -0.68273989778E+00 -0.59473325666E+00 -0.70792831459E+00  0.11493493434E+01  0.00000000000E+00 0.  1.
</event>
<event>
 7    1  0.5317846E-010  0.4778727E+02  0.7816164E-02  0.1312668E+00
        -11   -1    0    0    0    0  0.00000000000E+00  0.00000000000E+00  0.45593999997E+02  0.45594000000E+02  0.51100000000E-03 0. -1.
         11   -1    0    0    0    0 -0.00000000000E+00 -0.00000000000E+00 -0.45593999997E+02  0.45594000000E+02  0.51100000000E-03 0.  1.
    9900012    2    1    2    0    0  0.18205547325E+02 -0.27445301326E+02 -0.28265476466E+02  0.47787266387E+02  0.19999978766E+02 0.  0.
         12    1    1    2    0    0 -0.18205547325E+02  0.27445301326E+02  0.28265476466E+02  0.43400733613E+02  0.00000000000E+00 0. -1.
         11    1    3    3    0    0  0.59499251987E+01 -0.17243782280E+02 -0.19287724154E+02  0.26547428133E+02  0.51100000000E-03 0. -1.
        -11    1    3    3    0    0  0.19293651098E+01 -0.79381650399E+01 -0.63494497081E+01  0.10346614218E+02  0.51100000000E-03 0.  1.
         12    1    3    3    0    0  0.10326257016E+02 -0.22633540062E+01 -0.26283026047E+01  0.10893224036E+02  0.00000000000E+00 0. -1.
</event>
<event>
 7    1  0.5317846E-010  0.4778726E+02  0.7816164E-02  0.1312668E+00
        -11   -1    0    0    0    0  0.00000000000E+00  0.00000000000E+00  0.45593999997E+02  0.45594000000E+02  0.51100000000E-03 0.  1.
         11   -1    0    0    0    0 -0.00000000000E+00 -0.00000000000E+00 -0.45593999997E+02  0.45594000000E+02  0.51100000000E-03 0. -1.
    9900012    2    1    2    0    0  0.33137801123E+02 -0.15310348694E+02  0.23475593133E+02  0.47787261373E+02  0.19999955903E+02 0.  0.
         12    1    1    2    0    0 -0.33137801123E+02  0.15310348694E+02 -0.23475593133E+02  0.43400738627E+02  0.00000000000E+00 0. -1.
         11    1    3    3    0    0  0.32775059722E+01 -0.40497855003E+01  0.12098551559E+02  0.13172613942E+02  0.51100000000E-03 0. -1.
        -11    1    3    3    0    0  0.18973521483E+02 -0.80298360320E+01  0.10756519080E+02  0.23241675652E+02  0.51100000000E-03 0.  1.
         12    1    3    3    0    0  0.10886773668E+02 -0.32307271621E+01  0.62052249527E+00  0.11372971778E+02  0.00000000000E+00 0. -1.
</event>
<event>
 7    1  0.5317846E-010  0.4778727E+02  0.7816164E-02  0.1312668E+00
        -11   -1    0    0    0    0  0.00000000000E+00  0.00000000000E+00  0.45593999997E+02  0.45594000000E+02  0.51100000000E-03 0.  1.
         11   -1    0    0    0    0 -0.00000000000E+00 -0.00000000000E+00 -0.45593999997E+02  0.45594000000E+02  0.51100000000E-03 0. -1.
    9900012    2    1    2    0    0  0.42988971333E+02 -0.10435264515E+01  0.58721663898E+01  0.47787274870E+02  0.20000017440E+02 0.  0.
         12    1    1    2    0    0 -0.42988971333E+02  0.10435264515E+01 -0.58721663898E+01  0.43400725130E+02  0.00000000000E+00 0. -1.
         11    1    3    3    0    0  0.16398149324E+02  0.24859844495E+01 -0.52717267973E+01  0.17403175677E+02  0.51100000000E-03 0. -1.
        -11    1    3    3    0    0  0.86976872753E+01 -0.35138864872E+01  0.77587698492E+01  0.12173564475E+02  0.51100000000E-03 0.  1.
        -12    1    3    3    0    0  0.17893134734E+02 -0.15624413786E-01  0.33851233379E+01  0.18210534718E+02  0.00000000000E+00 0.  1.
</event>
<event>
 7    1  0.5317846E-010  0.4778727E+02  0.7816164E-02  0.1312668E+00
        -11   -1    0    0    0    0  0.00000000000E+00  0.00000000000E+00  0.45593999997E+02  0.45594000000E+02  0.51100000000E-03 0.  1.
         11   -1    0    0    0    0 -0.00000000000E+00 -0.00000000000E+00 -0.45593999997E+02  0.45594000000E+02  0.51100000000E-03 0. -1.
    9900012    2    1    2    0    0 -0.86281479835E+01  0.89718134339E+00  0.42524971476E+02  0.47787273382E+02  0.20000010656E+02 0.  0.
         12    1    1    2    0    0  0.86281479835E+01 -0.89718134339E+00 -0.42524971476E+02  0.43400726618E+02  0.00000000000E+00 0. -1.
         11    1    3    3    0    0  0.27742070302E+00 -0.31398889566E+00 -0.82227656858E+00  0.92287067860E+00  0.51100000000E-03 0. -1.
        -11    1    3    3    0    0  0.37095705209E+01 -0.10232343117E+01  0.18640198410E+02  0.19033258233E+02  0.51100000000E-03 0.  1.
        -12    1    3    3    0    0 -0.12615139207E+02  0.22344045508E+01  0.24707049634E+02  0.27831144470E+02  0.00000000000E+00 0.  1.
</event>
<event>
 7    1  0.5317846E-010  0.4778727E+02  0.7816164E-02  0.1312668E+00
        -11   -1    0    0    0    0  0.00000000000E+00  0.00000000000E+00  0.45593999997E+02  0.45594000000E+02  0.51100000000E-03 0. -1.
         11   -1    0    0    0    0 -0.00000000000E+00 -0.00000000000E+00 -0.45593999997E+02  0.45594000000E+02  0.51100000000E-03 0.  1.
    9900012    2    1    2    0    0 -0.37967513004E+02  0.20182157821E+02  0.58967657549E+01  0.47787269771E+02  0.19999994195E+02 0.  0.
         12    1    1    2    0    0  0.37967513004E+02 -0.20182157821E+02 -0.58967657549E+01  0.43400730229E+02  0.00000000000E+00 0. -1.
         11    1    3    3    0    0 -0.32911703293E+02  0.19850748011E+02  0.10878590183E+02  0.39944663409E+02  0.51100000000E-03 0. -1.
        -11    1    3    3    0    0 -0.47988983821E+00 -0.22201712330E+00 -0.26020898305E+01  0.26552697804E+01  0.51100000000E-03 0.  1.
         12    1    3    3    0    0 -0.45759198733E+01  0.55342693267E+00 -0.23797345975E+01  0.51873365817E+01  0.00000000000E+00 0. -1.
</event>
<event>
 7    1  0.5317846E-010  0.4778727E+02  0.7816164E-02  0.1312668E+00
        -11   -1    0    0    0    0  0.00000000000E+00  0.00000000000E+00  0.45593999997E+02  0.45594000000E+02  0.51100000000E-03 0.  1.
         11   -1    0    0    0    0 -0.00000000000E+00 -0.00000000000E+00 -0.45593999997E+02  0.45594000000E+02  0.51100000000E-03 0. -1.
    9900012    2    1    2    0    0  0.38521691016E+02 -0.19471938718E+02  0.45327693286E+01  0.47787273347E+02  0.20000010500E+02 0.  0.
         12    1    1    2    0    0 -0.38521691016E+02  0.19471938718E+02 -0.45327693286E+01  0.43400726653E+02  0.00000000000E+00 0. -1.
         11    1    3    3    0    0  0.14579677996E+01  0.89464354332E+00 -0.58561786232E+00  0.18080391910E+01  0.51100000000E-03 0. -1.
        -11    1    3    3    0    0  0.15278623512E+02 -0.18000864120E+02  0.67673597749E+00  0.23620444901E+02  0.51100000000E-03 0.  1.
        -12    1    3    3    0    0  0.21785099705E+02 -0.23657181421E+01  0.44416512134E+01  0.22358789256E+02  0.00000000000E+00 0.  1.
</event>
<event>
 7    1  0.5317846E-010  0.4778727E+02  0.7816164E-02  0.1312668E+00
        -11   -1    0    0    0    0  0.00000000000E+00  0.00000000000E+00  0.45593999997E+02  0.45594000000E+02  0.51100000000E-03 0.  1.
         11   -1    0    0    0    0 -0.00000000000E+00 -0.00000000000E+00 -0.45593999997E+02  0.45594000000E+02  0.51100000000E-03 0. -1.
    9900012    2    1    2    0    0 -0.21689141159E+02 -0.17925886698E+02  0.33043413408E+02  0.47787269271E+02  0.19999991914E+02 0.  0.
         12    1    1    2    0    0  0.21689141159E+02  0.17925886698E+02 -0.33043413408E+02  0.43400730729E+02  0.00000000000E+00 0. -1.
         11    1    3    3    0    0 -0.15585426645E+01 -0.21429067941E+01 -0.66996635702E+00  0.27331227462E+01  0.51100000000E-03 0. -1.
        -11    1    3    3    0    0 -0.22142519072E+02 -0.13070101039E+02  0.32553314179E+02  0.41482971884E+02  0.51100000000E-03 0.  1.
        -12    1    3    3    0    0  0.20119205777E+01 -0.27128788650E+01  0.11600655862E+01  0.35711746403E+01  0.00000000000E+00 0.  1.
</event>
<event>
 7    1  0.5317846E-010  0.4778727E+02  0.7816164E-02  0.1312668E+00
        -11   -1    0    0    0    0  0.00000000000E+00  0.00000000000E+00  0.45593999997E+02  0.45594000000E+02  0.51100000000E-03 0.  1.
         11   -1    0    0    0    0 -0.00000000000E+00 -0.00000000000E+00 -0.45593999997E+02  0.45594000000E+02  0.51100000000E-03 0. -1.
    9900012    2    1    2    0    0  0.18932694039E+01 -0.35489813539E+02  0.24910073985E+02  0.47787272818E+02  0.20000008084E+02 0.  0.
         12    1    1    2    0    0 -0.18932694039E+01  0.35489813539E+02 -0.24910073985E+02  0.43400727182E+02  0.00000000000E+00 0. -1.
         11    1    3    3    0    0  0.20438095045E+01 -0.15866303520E+02  0.11037437666E+00  0.15997778829E+02  0.51100000000E-03 0. -1.
        -11    1    3    3    0    0  0.81445335208E+00 -0.97653365798E+01  0.14490402352E+02  0.17492766887E+02  0.51100000000E-03 0.  1.
         12    1    3    3    0    0 -0.96499345269E+00 -0.98581734385E+01  0.10309297256E+02  0.14296727101E+02  0.00000000000E+00 0. -1.
</event>
<event>
 7    1  0.5317846E-010  0.4778727E+02  0.7816164E-02  0.1312668E+00
        -11   -1    0    0    0    0  0.00000000000E+00  0.00000000000E+00  0.45593999997E+02  0.45594000000E+02  0.51100000000E-03 0.  1.
         11   -1    0    0    0    0 -0.00000000000E+00 -0.00000000000E+00 -0.45593999997E+02  0.45594000000E+02  0.51100000000E-03 0. -1.
    9900012    2    1    2    0    0 -0.13999093585E+02 -0.17844908728E+02  0.37002812700E+02  0.47787268020E+02  0.19999986209E+02 0.  0.
         12    1    1    2    0    0  0.13999093585E+02  0.17844908728E+02 -0.37002812700E+02  0.43400731980E+02  0.00000000000E+00 0. -1.
         11    1    3    3    0    0 -0.95695852641E+01 -0.15121727991E+02  0.32973870633E+02  0.37516926372E+02  0.51100000000E-03 0.  1.
        -11    1    3    3    0    0 -0.52303063065E+01 -0.39814901272E+01  0.68507290456E+00  0.66089101097E+01  0.51100000000E-03 0. -1.
        -12    1    3    3    0    0  0.80079798588E+00  0.12583093903E+01  0.33438691621E+01  0.36614315382E+01  0.00000000000E+00 0.  1.
</event>
<event>
 7    1  0.5317846E-010  0.4778727E+02  0.7816164E-02  0.1312668E+00
        -11   -1    0    0    0    0  0.00000000000E+00  0.00000000000E+00  0.45593999997E+02  0.45594000000E+02  0.51100000000E-03 0. -1.
         11   -1    0    0    0    0 -0.00000000000E+00 -0.00000000000E+00 -0.45593999997E+02  0.45594000000E+02  0.51100000000E-03 0.  1.
    9900012    2    1    2    0    0  0.38589402949E+02  0.70033694648E+01 -0.18585853227E+02  0.47787272540E+02  0.20000006821E+02 0.  0.
         12    1    1    2    0    0 -0.38589402949E+02 -0.70033694648E+01  0.18585853227E+02  0.43400727460E+02  0.00000000000E+00 0. -1.
         11    1    3    3    0    0  0.35843931951E+01  0.36612173064E+01  0.23992380316E+01  0.56576258391E+01  0.51100000000E-03 0. -1.
        -11    1    3    3    0    0  0.38445253577E+01 -0.20356064042E+01 -0.33520520850E+00  0.43630759164E+01  0.51100000000E-03 0.  1.
         12    1    3    3    0    0  0.31160484396E+02  0.53777585626E+01 -0.20649886050E+02  0.37766570785E+02  0.00000000000E+00 0. -1.
</event>
<event>
 7    1  0.5317846E-010  0.4778727E+02  0.7816164E-02  0.1312668E+00
        -11   -1    0    0    0    0  0.00000000000E+00  0.00000000000E+00  0.45593999997E+02  0.45594000000E+02  0.51100000000E-03 0.  1.
         11   -1    0    0    0    0 -0.00000000000E+00 -0.00000000000E+00 -0.45593999997E+02  0.45594000000E+02  0.51100000000E-03 0. -1.
    9900012    2    1    2    0    0 -0.13324044034E+02 -0.91051191584E+01  0.40288832629E+02  0.47787269834E+02  0.19999994481E+02 0.  0.
         12    1    1    2    0    0  0.13324044034E+02  0.91051191584E+01 -0.40288832629E+02  0.43400730166E+02  0.00000000000E+00 0. -1.
         11    1    3    3    0    0  0.26723249255E+01 -0.81790915605E+01  0.18221468832E+02  0.20150950001E+02  0.51100000000E-03 0. -1.
        -11    1    3    3    0    0 -0.15485735780E+02 -0.15432973005E+01  0.21813666964E+02  0.26796004290E+02  0.51100000000E-03 0.  1.
        -12    1    3    3    0    0 -0.51063317973E+00  0.61726970263E+00  0.25369683261E+00  0.84031554365E+00  0.00000000000E+00 0.  1.
</event>
<event>
 7    1  0.5317846E-010  0.4778728E+02  0.7816164E-02  0.1312668E+00
        -11   -1    0    0    0    0  0.00000000000E+00  0.00000000000E+00  0.45593999997E+02  0.45594000000E+02  0.51100000000E-03 0. -1.
         11   -1    0    0    0    0 -0.00000000000E+00 -0.00000000000E+00 -0.45593999997E+02  0.45594000000E+02  0.51100000000E-03 0.  1.
    9900012    2    1    2    0    0  0.43155748576E+02  0.30848738503E+01 -0.34187452199E+01  0.47787275344E+02  0.20000019603E+02 0.  0.
         12    1    1    2    0    0 -0.43155748576E+02 -0.30848738503E+01  0.34187452199E+01  0.43400724656E+02  0.00000000000E+00 0. -1.
         11    1    3    3    0    0 -0.48520583718E+00  0.13824622235E+01 -0.21727600311E+01  0.26205940009E+01  0.51100000000E-03 0. -1.
        -11    1    3    3    0    0  0.29535234982E+02  0.10027513673E+01 -0.62080594906E+01  0.30197278332E+02  0.51100000000E-03 0.  1.
        -12    1    3    3    0    0  0.14105719430E+02  0.69966025947E+00  0.49620743018E+01  0.14969403011E+02  0.00000000000E+00 0.  1.
</event>
<event>
 7    1  0.5317846E-010  0.4778726E+02  0.7816164E-02  0.1312668E+00
        -11   -1    0    0    0    0  0.00000000000E+00  0.00000000000E+00  0.45593999997E+02  0.45594000000E+02  0.51100000000E-03 0. -1.
         11   -1    0    0    0    0 -0.00000000000E+00 -0.00000000000E+00 -0.45593999997E+02  0.45594000000E+02  0.51100000000E-03 0.  1.
    9900012    2    1    2    0    0  0.15785002843E+02  0.39785336170E+02 -0.71822409871E+01  0.47787264125E+02  0.19999968451E+02 0.  0.
         12    1    1    2    0    0 -0.15785002843E+02 -0.39785336170E+02  0.71822409871E+01  0.43400735875E+02  0.00000000000E+00 0. -1.
         11    1    3    3    0    0 -0.36900131423E+01  0.11336730305E+02 -0.24656879897E+01  0.12174451467E+02  0.51100000000E-03 0. -1.
        -11    1    3    3    0    0  0.11228417322E+02  0.21507692198E+02 -0.12664518043E+01  0.24295309828E+02  0.51100000000E-03 0.  1.
        -12    1    3    3    0    0  0.82465986635E+01  0.69409136666E+01 -0.34501011931E+01  0.11317502829E+02  0.00000000000E+00 0.  1.
</event>
<event>
 7    1  0.5317846E-010  0.4778727E+02  0.7816164E-02  0.1312668E+00
        -11   -1    0    0    0    0  0.00000000000E+00  0.00000000000E+00  0.45593999997E+02  0.45594000000E+02  0.51100000000E-03 0.  1.
         11   -1    0    0    0    0 -0.00000000000E+00 -0.00000000000E+00 -0.45593999997E+02  0.45594000000E+02  0.51100000000E-03 0. -1.
    9900012    2    1    2    0    0 -0.11546486154E+01 -0.22938103321E+02  0.36825723982E+02  0.47787265626E+02  0.19999975295E+02 0.  0.
         12    1    1    2    0    0  0.11546486154E+01  0.22938103321E+02 -0.36825723982E+02  0.43400734374E+02  0.00000000000E+00 0. -1.
         11    1    3    3    0    0 -0.81775232192E+01 -0.10323513408E+02  0.20511238873E+02  0.24375350981E+02  0.51100000000E-03 0. -1.
        -11    1    3    3    0    0  0.42605038611E+00 -0.85690695485E+01  0.11310809504E+02  0.14196650441E+02  0.51100000000E-03 0.  1.
         12    1    3    3    0    0  0.65968242176E+01 -0.40455203639E+01  0.50036756058E+01  0.92152642036E+01  0.00000000000E+00 0. -1.
</event>
<event>
 7    1  0.5317846E-010  0.4778727E+02  0.7816164E-02  0.1312668E+00
        -11   -1    0    0    0    0  0.00000000000E+00  0.00000000000E+00  0.45593999997E+02  0.45594000000E+02  0.51100000000E-03 0.  1.
         11   -1    0    0    0    0 -0.00000000000E+00 -0.00000000000E+00 -0.45593999997E+02  0.45594000000E+02  0.51100000000E-03 0. -1.
    9900012    2    1    2    0    0  0.10722686623E+01  0.21231204293E+02  0.37837938855E+02  0.47787269446E+02  0.19999992714E+02 0.  0.
         12    1    1    2    0    0 -0.10722686623E+01 -0.21231204293E+02 -0.37837938855E+02  0.43400730554E+02  0.00000000000E+00 0. -1.
         11    1    3    3    0    0 -0.20320603843E+01  0.55856365238E+00 -0.40757373021E+00  0.21464806931E+01  0.51100000000E-03 0. -1.
        -11    1    3    3    0    0  0.45046868724E+01  0.92279681516E+01  0.29300506504E+02  0.31047822495E+02  0.51100000000E-03 0.  1.
        -12    1    3    3    0    0 -0.14003578257E+01  0.11444672489E+02  0.89450060803E+01  0.14592966258E+02  0.00000000000E+00 0.  1.
</event>
<event>
 7    1  0.5317846E-010  0.4778727E+02  0.7816164E-02  0.1312668E+00
        -11   -1    0    0    0    0  0.00000000000E+00  0.00000000000E+00  0.45593999997E+02  0.45594000000E+02  0.51100000000E-03 0.  1.
         11   -1    0    0    0    0 -0.00000000000E+00 -0.00000000000E+00 -0.45593999997E+02  0.45594000000E+02  0.51100000000E-03 0. -1.
    9900012    2    1    2    0    0  0.67942652619E+01  0.42143519325E+02  0.78348561753E+01  0.47787271518E+02  0.20000002157E+02 0.  0.
         12    1    1    2    0    0 -0.67942652619E+01 -0.42143519325E+02 -0.78348561753E+01  0.43400728482E+02  0.00000000000E+00 0. -1.
         11    1    3    3    0    0 -0.44733681910E+01  0.27039127911E+02  0.61448451997E+01  0.28087089275E+02  0.51100000000E-03 0. -1.
        -11    1    3    3    0    0  0.95632052129E+01  0.12529380518E+02  0.34650535516E+01  0.16138366289E+02  0.51100000000E-03 0.  1.
         12    1    3    3    0    0  0.17044282400E+01  0.25750108955E+01 -0.17750425760E+01  0.35618159531E+01  0.00000000000E+00 0. -1.
</event>
<event>
 7    1  0.5317846E-010  0.4778727E+02  0.7816164E-02  0.1312668E+00
        -11   -1    0    0    0    0  0.00000000000E+00  0.00000000000E+00  0.45593999997E+02  0.45594000000E+02  0.51100000000E-03 0.  1.
         11   -1    0    0    0    0 -0.00000000000E+00 -0.00000000000E+00 -0.45593999997E+02  0.45594000000E+02  0.51100000000E-03 0. -1.
    9900012    2    1    2    0    0  0.74055774679E+01 -0.39667763543E+02  0.15976522829E+02  0.47787270469E+02  0.19999997376E+02 0.  0.
         12    1    1    2    0    0 -0.74055774679E+01  0.39667763543E+02 -0.15976522829E+02  0.43400729531E+02  0.00000000000E+00 0. -1.
         11    1    3    3    0    0  0.90940281207E+01 -0.70551059156E+01  0.61475232284E+00  0.11526221741E+02  0.51100000000E-03 0. -1.
        -11    1    3    3    0    0 -0.24008649324E+01 -0.16341565271E+02  0.68112307636E+01  0.17866274730E+02  0.51100000000E-03 0.  1.
         12    1    3    3    0    0  0.71241427961E+00 -0.16271092356E+02  0.85505397426E+01  0.18394773999E+02  0.00000000000E+00 0. -1.
</event>
<event>
 7    1  0.5317846E-010  0.4778727E+02  0.7816164E-02  0.1312668E+00
        -11   -1    0    0    0    0  0.00000000000E+00  0.00000000000E+00  0.45593999997E+02  0.45594000000E+02  0.51100000000E-03 0.  1.
         11   -1    0    0    0    0 -0.00000000000E+00 -0.00000000000E+00 -0.45593999997E+02  0.45594000000E+02  0.51100000000E-03 0. -1.
    9900012    2    1    2    0    0  0.31904863829E+02  0.16602375508E+00  0.29422361487E+02  0.47787271258E+02  0.20000000975E+02 0.  0.
         12    1    1    2    0    0 -0.31904863829E+02 -0.16602375508E+00 -0.29422361487E+02  0.43400728742E+02  0.00000000000E+00 0. -1.
         11    1    3    3    0    0  0.24767853969E+02 -0.64027209903E+01  0.24831500592E+02  0.35651715923E+02  0.51100000000E-03 0. -1.
        -11    1    3    3    0    0  0.20078510719E+01  0.56193605091E+01  0.18770454529E+01  0.62555557987E+01  0.51100000000E-03 0.  1.
        -12    1    3    3    0    0  0.51291587879E+01  0.94938423635E+00  0.27138154415E+01  0.58799995366E+01  0.00000000000E+00 0.  1.
</event>
<event>
 7    1  0.5317846E-010  0.4778727E+02  0.7816164E-02  0.1312668E+00
        -11   -1    0    0    0    0  0.00000000000E+00  0.00000000000E+00  0.45593999997E+02  0.45594000000E+02  0.51100000000E-03 0. -1.
         11   -1    0    0    0    0 -0.00000000000E+00 -0.00000000000E+00 -0.45593999997E+02  0.45594000000E+02  0.51100000000E-03 0.  1.
    9900012    2    1    2    0    0 -0.35999019769E+02 -0.22650207379E+02 -0.86407131905E+01  0.47787271400E+02  0.20000001619E+02 0.  0.
         12    1    1    2    0    0  0.35999019769E+02  0.22650207379E+02  0.86407131905E+01  0.43400728600E+02  0.00000000000E+00 0. -1.
         11    1    3    3    0    0  0.43415698736E+00  0.50084222209E+00  0.14830699291E+00  0.67921310821E+00  0.51100000000E-03 0. -1.
        -11    1    3    3    0    0 -0.59566315957E+01  0.24250165063E+01 -0.37864869473E+00  0.64424793455E+01  0.51100000000E-03 0.  1.
        -12    1    3    3    0    0 -0.30476545160E+02 -0.25576066107E+02 -0.84103714886E+01  0.40665578946E+02  0.00000000000E+00 0.  1.
</event>
<event>
 7    1  0.5317846E-010  0.4778727E+02  0.7816164E-02  0.1312668E+00
        -11   -1    0    0    0    0  0.00000000000E+00  0.00000000000E+00  0.45593999997E+02  0.45594000000E+02  0.51100000000E-03 0.  1.
         11   -1    0    0    0    0 -0.00000000000E+00 -0.00000000000E+00 -0.45593999997E+02  0.45594000000E+02  0.51100000000E-03 0. -1.
    9900012    2    1    2    0    0 -0.53992386457E+01  0.31927104635E+02  0.28898637538E+02  0.47787273741E+02  0.20000012293E+02 0.  0.
         12    1    1    2    0    0  0.53992386457E+01 -0.31927104635E+02 -0.28898637538E+02  0.43400726259E+02  0.00000000000E+00 0. -1.
         11    1    3    3    0    0 -0.34268806638E+01  0.27943287667E+02  0.15499894945E+02  0.32137479371E+02  0.51100000000E-03 0. -1.
        -11    1    3    3    0    0 -0.32654371404E+00  0.13971633684E+01  0.12314584220E+02  0.12397890186E+02  0.51100000000E-03 0.  1.
        -12    1    3    3    0    0 -0.16458142679E+01  0.25866535989E+01  0.10841583719E+01  0.32519041838E+01  0.00000000000E+00 0.  1.
</event>
<event>
 7    1  0.5317846E-010  0.4778725E+02  0.7816164E-02  0.1312668E+00
        -11   -1    0    0    0    0  0.00000000000E+00  0.00000000000E+00  0.45593999997E+02  0.45594000000E+02  0.51100000000E-03 0. -1.
         11   -1    0    0    0    0 -0.00000000000E+00 -0.00000000000E+00 -0.45593999997E+02  0.45594000000E+02  0.51100000000E-03 0.  1.
    9900012    2    1    2    0    0  0.10935090758E+02  0.54813412771E+01 -0.41641367899E+02  0.47787253087E+02  0.19999918125E+02 0.  0.
         12    1    1    2    0    0 -0.10935090758E+02 -0.54813412771E+01  0.41641367899E+02  0.43400746913E+02  0.00000000000E+00 0. -1.
         11    1    3    3    0    0  0.12005431858E+02  0.61666333430E+01 -0.31923311505E+02  0.34659134130E+02  0.51100000000E-03 0. -1.
        -11    1    3    3    0    0  0.10035538396E+01  0.26521742589E+01 -0.85812388646E+01  0.90376329490E+01  0.51100000000E-03 0.  1.
         12    1    3    3    0    0 -0.20738949397E+01 -0.33374663249E+01 -0.11368175293E+01  0.40904860085E+01  0.00000000000E+00 0. -1.
</event>
<event>
 7    1  0.5317846E-010  0.4778728E+02  0.7816164E-02  0.1312668E+00
        -11   -1    0    0    0    0  0.00000000000E+00  0.00000000000E+00  0.45593999997E+02  0.45594000000E+02  0.51100000000E-03 0.  1.
         11   -1    0    0    0    0 -0.00000000000E+00 -0.00000000000E+00 -0.45593999997E+02  0.45594000000E+02  0.51100000000E-03 0. -1.
    9900012    2    1    2    0    0 -0.42907494470E+02 -0.65200464579E+01 -0.24107958727E+00  0.47787283337E+02  0.20000056046E+02 0.  0.
         12    1    1    2    0    0  0.42907494470E+02  0.65200464579E+01  0.24107958727E+00  0.43400716663E+02  0.00000000000E+00 0. -1.
         11    1    3    3    0    0 -0.17942566646E+01 -0.60676460017E+00  0.43211590059E+01  0.47180436278E+01  0.51100000000E-03 0.  1.
        -11    1    3    3    0    0 -0.29531242859E+02 -0.38781777110E+00 -0.26061894270E+00  0.29534939139E+02  0.51100000000E-03 0. -1.
         12    1    3    3    0    0 -0.11581994946E+02 -0.55254640867E+01 -0.43016196505E+01  0.13534300570E+02  0.00000000000E+00 0. -1.
</event>
<event>
 7    1  0.5317846E-010  0.4778727E+02  0.7816164E-02  0.1312668E+00
        -11   -1    0    0    0    0  0.00000000000E+00  0.00000000000E+00  0.45593999997E+02  0.45594000000E+02  0.51100000000E-03 0.  1.
         11   -1    0    0    0    0 -0.00000000000E+00 -0.00000000000E+00 -0.45593999997E+02  0.45594000000E+02  0.51100000000E-03 0. -1.
    9900012    2    1    2    0    0  0.38553110010E+02  0.12319629072E+02  0.15668685359E+02  0.47787271287E+02  0.20000001108E+02 0.  0.
         12    1    1    2    0    0 -0.38553110010E+02 -0.12319629072E+02 -0.15668685359E+02  0.43400728713E+02  0.00000000000E+00 0. -1.
         11    1    3    3    0    0  0.48058177086E+01  0.37463193761E+01 -0.28296956085E+01  0.67184797546E+01  0.51100000000E-03 0. -1.
        -11    1    3    3    0    0  0.34521017784E+02  0.78945641474E+01  0.17079256512E+02  0.39315719696E+02  0.51100000000E-03 0.  1.
         12    1    3    3    0    0 -0.77372548319E+00  0.67874554858E+00  0.14191244564E+01  0.17530718370E+01  0.00000000000E+00 0. -1.
</event>
<event>
 7    1  0.5317846E-010  0.4778727E+02  0.7816164E-02  0.1312668E+00
        -11   -1    0    0    0    0  0.00000000000E+00  0.00000000000E+00  0.45593999997E+02  0.45594000000E+02  0.51100000000E-03 0.  1.
         11   -1    0    0    0    0 -0.00000000000E+00 -0.00000000000E+00 -0.45593999997E+02  0.45594000000E+02  0.51100000000E-03 0. -1.
    9900012    2    1    2    0    0  0.25292763278E+02 -0.27720793027E+02  0.21804977705E+02  0.47787270824E+02  0.19999998996E+02 0.  0.
         12    1    1    2    0    0 -0.25292763278E+02  0.27720793027E+02 -0.21804977705E+02  0.43400729176E+02  0.00000000000E+00 0. -1.
         11    1    3    3    0    0  0.16549048515E+02 -0.13760624214E+02  0.49781726418E+01  0.22090902847E+02  0.51100000000E-03 0.  1.
        -11    1    3    3    0    0  0.46715080054E+01 -0.87001451217E+00  0.82644975649E+01  0.95331963453E+01  0.51100000000E-03 0. -1.
         12    1    3    3    0    0  0.40722067584E+01 -0.13090154301E+02  0.85623074978E+01  0.16163171632E+02  0.00000000000E+00 0. -1.
</event>
<event>
 7    1  0.5317846E-010  0.4778728E+02  0.7816164E-02  0.1312668E+00
        -11   -1    0    0    0    0  0.00000000000E+00  0.00000000000E+00  0.45593999997E+02  0.45594000000E+02  0.51100000000E-03 0. -1.
         11   -1    0    0    0    0 -0.00000000000E+00 -0.00000000000E+00 -0.45593999997E+02  0.45594000000E+02  0.51100000000E-03 0.  1.
    9900012    2    1    2    0    0 -0.32270656744E+02 -0.11137263454E+02 -0.26799042325E+02  0.47787278883E+02  0.20000035739E+02 0.  0.
         12    1    1    2    0    0  0.32270656744E+02  0.11137263454E+02  0.26799042325E+02  0.43400721117E+02  0.00000000000E+00 0. -1.
         11    1    3    3    0    0 -0.43141715658E+01 -0.19324448483E+01 -0.10767332770E+02  0.11759331386E+02  0.51100000000E-03 0. -1.
        -11    1    3    3    0    0 -0.98317192350E+01 -0.10041101652E+01 -0.12314753682E+02  0.15789999963E+02  0.51100000000E-03 0.  1.
         12    1    3    3    0    0 -0.18124765943E+02 -0.82007084404E+01 -0.37169558729E+01  0.20237947534E+02  0.00000000000E+00 0. -1.
</event>
<event>
 7    1  0.5317846E-010  0.4778727E+02  0.7816164E-02  0.1312668E+00
        -11   -1    0    0    0    0  0.00000000000E+00  0.00000000000E+00  0.45593999997E+02  0.45594000000E+02  0.51100000000E-03 0. -1.
         11   -1    0    0    0    0 -0.00000000000E+00 -0.00000000000E+00 -0.45593999997E+02  0.45594000000E+02  0.51100000000E-03 0.  1.
    9900012    2    1    2    0    0  0.31971968892E+02  0.28646149261E+02 -0.63886205349E+01  0.47787272648E+02  0.20000007311E+02 0.  0.
         12    1    1    2    0    0 -0.31971968892E+02 -0.28646149261E+02  0.63886205349E+01  0.43400727352E+02  0.00000000000E+00 0. -1.
         11    1    3    3    0    0  0.45999266926E+01  0.53757696448E+01 -0.80559399439E+01  0.10721771938E+02  0.51100000000E-03 0. -1.
        -11    1    3    3    0    0  0.24865411816E+02  0.21656032693E+02  0.40864061192E+01  0.33226061638E+02  0.51100000000E-03 0.  1.
        -12    1    3    3    0    0  0.25066303839E+01  0.16143469237E+01 -0.24190867102E+01  0.38394390714E+01  0.00000000000E+00 0.  1.
</event>
<event>
 7    1  0.5317846E-010  0.4778727E+02  0.7816164E-02  0.1312668E+00
        -11   -1    0    0    0    0  0.00000000000E+00  0.00000000000E+00  0.45593999997E+02  0.45594000000E+02  0.51100000000E-03 0.  1.
         11   -1    0    0    0    0 -0.00000000000E+00 -0.00000000000E+00 -0.45593999997E+02  0.45594000000E+02  0.51100000000E-03 0. -1.
    9900012    2    1    2    0    0  0.73247777249E+00  0.38314755382E+01  0.43225070816E+02  0.47787268721E+02  0.19999989405E+02 0.  0.
         12    1    1    2    0    0 -0.73247777249E+00 -0.38314755382E+01 -0.43225070816E+02  0.43400731279E+02  0.00000000000E+00 0. -1.
         11    1    3    3    0    0  0.39867843936E+01  0.31281597356E+01  0.18914913865E+01  0.54090269975E+01  0.51100000000E-03 0. -1.
        -11    1    3    3    0    0 -0.91638801710E+00 -0.16294474920E+01  0.14702681130E+01  0.23783512592E+01  0.51100000000E-03 0.  1.
         12    1    3    3    0    0 -0.23379186041E+01  0.23327632946E+01  0.39863311317E+02  0.39999890464E+02  0.00000000000E+00 0. -1.
</event>
<event>
 7    1  0.5317846E-010  0.4778727E+02  0.7816164E-02  0.1312668E+00
        -11   -1    0    0    0    0  0.00000000000E+00  0.00000000000E+00  0.45593999997E+02  0.45594000000E+02  0.51100000000E-03 0.  1.
         11   -1    0    0    0    0 -0.00000000000E+00 -0.00000000000E+00 -0.45593999997E+02  0.45594000000E+02  0.51100000000E-03 0. -1.
    9900012    2    1    2    0    0 -0.33358527819E+02  0.11434977438E+02  0.25299670667E+02  0.47787269325E+02  0.19999992160E+02 0.  0.
         12    1    1    2    0    0  0.33358527819E+02 -0.11434977438E+02 -0.25299670667E+02  0.43400730675E+02  0.00000000000E+00 0. -1.
         11    1    3    3    0    0 -0.32423817221E+01 -0.10444307639E+01  0.23545850987E+01  0.41410078605E+01  0.51100000000E-03 0. -1.
        -11    1    3    3    0    0 -0.83985140958E+01  0.84039495004E+01  0.12588557355E+00  0.11881803468E+02  0.51100000000E-03 0.  1.
        -12    1    3    3    0    0 -0.21717632001E+02  0.40754587011E+01  0.22819199995E+02  0.31764457996E+02  0.00000000000E+00 0.  1.
</event>
<event>
 7    1  0.5317846E-010  0.4778728E+02  0.7816164E-02  0.1312668E+00
        -11   -1    0    0    0    0  0.00000000000E+00  0.00000000000E+00  0.45593999997E+02  0.45594000000E+02  0.51100000000E-03 0.  1.
         11   -1    0    0    0    0 -0.00000000000E+00 -0.00000000000E+00 -0.45593999997E+02  0.45594000000E+02  0.51100000000E-03 0. -1.
    9900012    2    1    2    0    0  0.21762002587E+02  0.88819790410E+01  0.36484908805E+02  0.47787275596E+02  0.20000020753E+02 0.  0.
         12    1    1    2    0    0 -0.21762002587E+02 -0.88819790410E+01 -0.36484908805E+02  0.43400724404E+02  0.00000000000E+00 0. -1.
         11    1    3    3    0    0 -0.19182242762E+01  0.25656624279E+01  0.11066124050E+02  0.11520473507E+02  0.51100000000E-03 0. -1.
        -11    1    3    3    0    0  0.22440706999E+02  0.70183584370E+01  0.20661460614E+02  0.31300776999E+02  0.51100000000E-03 0.  1.
        -12    1    3    3    0    0  0.12395198638E+01 -0.70204182388E+00  0.47573241408E+01  0.49660250901E+01  0.00000000000E+00 0.  1.
</event>
<event>
 7    1  0.5317846E-010  0.4778726E+02  0.7816164E-02  0.1312668E+00
        -11   -1    0    0    0    0  0.00000000000E+00  0.00000000000E+00  0.45593999997E+02  0.45594000000E+02  0.51100000000E-03 0.  1.
         11   -1    0    0    0    0 -0.00000000000E+00 -0.00000000000E+00 -0.45593999997E+02  0.45594000000E+02  0.51100000000E-03 0. -1.
    9900012    2    1    2    0    0  0.26495683659E+02 -0.65092228503E+01  0.33752521604E+02  0.47787263263E+02  0.19999964522E+02 0.  0.
         12    1    1    2    0    0 -0.26495683659E+02  0.65092228503E+01 -0.33752521604E+02  0.43400736737E+02  0.00000000000E+00 0. -1.
         11    1    3    3    0    0  0.20973198872E+02  0.46767704432E+00  0.26000825423E+02  0.33408632352E+02  0.51100000000E-03 0.  1.
        -11    1    3    3    0    0  0.45490534799E+01 -0.26860361625E+01  0.84081457933E+01  0.99300349331E+01  0.51100000000E-03 0. -1.
         12    1    3    3    0    0  0.97343130770E+00 -0.42908637321E+01 -0.65644961230E+00  0.44485959776E+01  0.00000000000E+00 0. -1.
</event>
<event>
 7    1  0.5317846E-010  0.4778727E+02  0.7816164E-02  0.1312668E+00
        -11   -1    0    0    0    0  0.00000000000E+00  0.00000000000E+00  0.45593999997E+02  0.45594000000E+02  0.51100000000E-03 0.  1.
         11   -1    0    0    0    0 -0.00000000000E+00 -0.00000000000E+00 -0.45593999997E+02  0.45594000000E+02  0.51100000000E-03 0. -1.
    9900012    2    1    2    0    0 -0.95068524216E+01  0.27306634806E+02  0.32366504662E+02  0.47787272224E+02  0.20000005380E+02 0.  0.
         12    1    1    2    0    0  0.95068524216E+01 -0.27306634806E+02 -0.32366504662E+02  0.43400727776E+02  0.00000000000E+00 0. -1.
         11    1    3    3    0    0  0.46489683230E+01  0.72775986152E+01  0.24051818220E+01  0.89644435371E+01  0.51100000000E-03 0. -1.
        -11    1    3    3    0    0 -0.31336347127E+01  0.64567298880E+01  0.95663122330E+01  0.11959237324E+02  0.51100000000E-03 0.  1.
         12    1    3    3    0    0 -0.11022186032E+02  0.13572306303E+02  0.20395010607E+02  0.26863591364E+02  0.00000000000E+00 0. -1.
</event>
<event>
 7    1  0.5317846E-010  0.4778727E+02  0.7816164E-02  0.1312668E+00
        -11   -1    0    0    0    0  0.00000000000E+00  0.00000000000E+00  0.45593999997E+02  0.45594000000E+02  0.51100000000E-03 0.  1.
         11   -1    0    0    0    0 -0.00000000000E+00 -0.00000000000E+00 -0.45593999997E+02  0.45594000000E+02  0.51100000000E-03 0. -1.
    9900012    2    1    2    0    0  0.24602207919E+02 -0.35218342462E+02  0.61662777284E+01  0.47787271190E+02  0.20000000662E+02 0.  0.
         12    1    1    2    0    0 -0.24602207919E+02  0.35218342462E+02 -0.61662777284E+01  0.43400728810E+02  0.00000000000E+00 0. -1.
         11    1    3    3    0    0  0.14646720097E+02 -0.82070733660E+01  0.50946297753E+01  0.17545304660E+02  0.51100000000E-03 0. -1.
        -11    1    3    3    0    0  0.88708378645E+01 -0.11142059725E+02  0.15668640125E+01  0.14328025769E+02  0.51100000000E-03 0.  1.
         12    1    3    3    0    0  0.10846499582E+01 -0.15869209371E+02 -0.49521605939E+00  0.15913940761E+02  0.00000000000E+00 0. -1.
</event>
<event>
 7    1  0.5317846E-010  0.4778728E+02  0.7816164E-02  0.1312668E+00
        -11   -1    0    0    0    0  0.00000000000E+00  0.00000000000E+00  0.45593999997E+02  0.45594000000E+02  0.51100000000E-03 0. -1.
         11   -1    0    0    0    0 -0.00000000000E+00 -0.00000000000E+00 -0.45593999997E+02  0.45594000000E+02  0.51100000000E-03 0.  1.
    9900012    2    1    2    0    0  0.96820097217E+01  0.34328410589E+02 -0.24727347213E+02  0.47787276665E+02  0.20000025625E+02 0.  0.
         12    1    1    2    0    0 -0.96820097217E+01 -0.34328410589E+02  0.24727347213E+02  0.43400723335E+02  0.00000000000E+00 0. -1.
         11    1    3    3    0    0  0.84539149129E+01  0.70958276130E+01 -0.58804127192E+01  0.12505946621E+02  0.51100000000E-03 0. -1.
        -11    1    3    3    0    0 -0.54304369476E+01  0.12960696887E+02 -0.81747278047E+01  0.16257167163E+02  0.51100000000E-03 0.  1.
         12    1    3    3    0    0  0.66585317565E+01  0.14271886090E+02 -0.10672206689E+02  0.19024162881E+02  0.00000000000E+00 0. -1.
</event>
<event>
 7    1  0.5317846E-010  0.4778727E+02  0.7816164E-02  0.1312668E+00
        -11   -1    0    0    0    0  0.00000000000E+00  0.00000000000E+00  0.45593999997E+02  0.45594000000E+02  0.51100000000E-03 0. -1.
         11   -1    0    0    0    0 -0.00000000000E+00 -0.00000000000E+00 -0.45593999997E+02  0.45594000000E+02  0.51100000000E-03 0.  1.
    9900012    2    1    2    0    0 -0.34318304429E+02 -0.23069932667E+02  0.13177847967E+02  0.47787268564E+02  0.19999988689E+02 0.  0.
         12    1    1    2    0    0  0.34318304429E+02  0.23069932667E+02 -0.13177847967E+02  0.43400731436E+02  0.00000000000E+00 0. -1.
         11    1    3    3    0    0  0.98218046918E+00 -0.79292733718E+00 -0.19862421683E+01  0.23534167605E+01  0.51100000000E-03 0. -1.
        -11    1    3    3    0    0 -0.22024636585E+02 -0.19116010316E+02  0.10943882164E+02  0.31149237940E+02  0.51100000000E-03 0.  1.
         12    1    3    3    0    0 -0.13275848313E+02 -0.31609950137E+01  0.42202079712E+01  0.14284613863E+02  0.00000000000E+00 0. -1.
</event>
<event>
 7    1  0.5317846E-010  0.4778727E+02  0.7816164E-02  0.1312668E+00
        -11   -1    0    0    0    0  0.00000000000E+00  0.00000000000E+00  0.45593999997E+02  0.45594000000E+02  0.51100000000E-03 0.  1.
         11   -1    0    0    0    0 -0.00000000000E+00 -0.00000000000E+00 -0.45593999997E+02  0.45594000000E+02  0.51100000000E-03 0. -1.
    9900012    2    1    2    0    0  0.10411813769E+02  0.40195126896E+02  0.12632089160E+02  0.47787265344E+02  0.19999974010E+02 0.  0.
         12    1    1    2    0    0 -0.10411813769E+02 -0.40195126896E+02 -0.12632089160E+02  0.43400734656E+02  0.00000000000E+00 0. -1.
         11    1    3    3    0    0 -0.15238002434E+01  0.92149590814E+01  0.10164333235E+02  0.13804025081E+02  0.51100000000E-03 0. -1.
        -11    1    3    3    0    0  0.38322290407E+01  0.18984768765E+02  0.50024920860E+00  0.19374149633E+02  0.51100000000E-03 0.  1.
         12    1    3    3    0    0  0.81033849721E+01  0.11995399049E+02  0.19675067165E+01  0.14609090630E+02  0.00000000000E+00 0. -1.
</event>
<event>
 7    1  0.5317846E-010  0.4778727E+02  0.7816164E-02  0.1312668E+00
        -11   -1    0    0    0    0  0.00000000000E+00  0.00000000000E+00  0.45593999997E+02  0.45594000000E+02  0.51100000000E-03 0.  1.
         11   -1    0    0    0    0 -0.00000000000E+00 -0.00000000000E+00 -0.45593999997E+02  0.45594000000E+02  0.51100000000E-03 0. -1.
    9900012    2    1    2    0    0 -0.99810275503E+01  0.39677487484E+02  0.14481002169E+02  0.47787270192E+02  0.19999996114E+02 0.  0.
         12    1    1    2    0    0  0.99810275503E+01 -0.39677487484E+02 -0.14481002169E+02  0.43400729808E+02  0.00000000000E+00 0. -1.
         11    1    3    3    0    0 -0.77352190513E+01  0.93997282293E+01  0.46330800618E+01  0.13025127089E+02  0.51100000000E-03 0. -1.
        -11    1    3    3    0    0  0.19668334788E+01  0.19697954459E+02  0.13733977852E+00  0.19796381141E+02  0.51100000000E-03 0.  1.
        -12    1    3    3    0    0 -0.42126419778E+01  0.10579804796E+02  0.97105823288E+01  0.14965761963E+02  0.00000000000E+00 0.  1.
</event>
<event>
 7    1  0.5317846E-010  0.4778727E+02  0.7816164E-02  0.1312668E+00
        -11   -1    0    0    0    0  0.00000000000E+00  0.00000000000E+00  0.45593999997E+02  0.45594000000E+02  0.51100000000E-03 0.  1.
         11   -1    0    0    0    0 -0.00000000000E+00 -0.00000000000E+00 -0.45593999997E+02  0.45594000000E+02  0.51100000000E-03 0. -1.
    9900012    2    1    2    0    0 -0.68765995693E+01  0.31275653073E+02  0.29294527100E+02  0.47787269420E+02  0.19999992596E+02 0.  0.
         12    1    1    2    0    0  0.68765995693E+01 -0.31275653073E+02 -0.29294527100E+02  0.43400730580E+02  0.00000000000E+00 0. -1.
         11    1    3    3    0    0  0.44530968746E+01  0.81761456308E+01  0.12349797363E+02  0.15465992510E+02  0.51100000000E-03 0. -1.
        -11    1    3    3    0    0 -0.90801316136E+01  0.22962088498E+02  0.17141572641E+02  0.30058938956E+02  0.51100000000E-03 0.  1.
        -12    1    3    3    0    0 -0.22495648303E+01  0.13741894475E+00 -0.19684290341E+00  0.22623379546E+01  0.00000000000E+00 0.  1.
</event>
<event>
 7    1  0.5317846E-010  0.4778727E+02  0.7816164E-02  0.1312668E+00
        -11   -1    0    0    0    0  0.00000000000E+00  0.00000000000E+00  0.45593999997E+02  0.45594000000E+02  0.51100000000E-03 0.  1.
         11   -1    0    0    0    0 -0.00000000000E+00 -0.00000000000E+00 -0.45593999997E+02  0.45594000000E+02  0.51100000000E-03 0. -1.
    9900012    2    1    2    0    0  0.12149101486E+02 -0.39270597430E+02  0.13922755632E+02  0.47787267128E+02  0.19999982144E+02 0.  0.
         12    1    1    2    0    0 -0.12149101486E+02  0.39270597430E+02 -0.13922755632E+02  0.43400732872E+02  0.00000000000E+00 0. -1.
         11    1    3    3    0    0  0.69915737548E+01 -0.71629608288E+01  0.88581973533E+01  0.13366292381E+02  0.51100000000E-03 0. -1.
        -11    1    3    3    0    0 -0.13895698558E+01 -0.20792537466E+02  0.16184656785E+01  0.20901673380E+02  0.51100000000E-03 0.  1.
         12    1    3    3    0    0  0.65470975866E+01 -0.11315099136E+02  0.34460925999E+01  0.13519301367E+02  0.00000000000E+00 0. -1.
</event>
<event>
 7    1  0.5317846E-010  0.4778727E+02  0.7816164E-02  0.1312668E+00
        -11   -1    0    0    0    0  0.00000000000E+00  0.00000000000E+00  0.45593999997E+02  0.45594000000E+02  0.51100000000E-03 0. -1.
         11   -1    0    0    0    0 -0.00000000000E+00 -0.00000000000E+00 -0.45593999997E+02  0.45594000000E+02  0.51100000000E-03 0.  1.
    9900012    2    1    2    0    0  0.43142500930E+02  0.46101514965E+01  0.10461876502E+01  0.47787269685E+02  0.19999993801E+02 0.  0.
         12    1    1    2    0    0 -0.43142500930E+02 -0.46101514965E+01 -0.10461876502E+01  0.43400730315E+02  0.00000000000E+00 0. -1.
         11    1    3    3    0    0  0.58781598201E+01 -0.34111504355E+01  0.15808532934E+01  0.69776649075E+01  0.51100000000E-03 0.  1.
        -11    1    3    3    0    0  0.28721195313E+01  0.13724109421E+01  0.44042077820E+01  0.54341171173E+01  0.51100000000E-03 0. -1.
        -12    1    3    3    0    0  0.34392221578E+02  0.66488909900E+01 -0.49388734253E+01  0.35375487660E+02  0.00000000000E+00 0.  1.
</event>
<event>
 7    1  0.5317846E-010  0.4778727E+02  0.7816164E-02  0.1312668E+00
        -11   -1    0    0    0    0  0.00000000000E+00  0.00000000000E+00  0.45593999997E+02  0.45594000000E+02  0.51100000000E-03 0.  1.
         11   -1    0    0    0    0 -0.00000000000E+00 -0.00000000000E+00 -0.45593999997E+02  0.45594000000E+02  0.51100000000E-03 0. -1.
    9900012    2    1    2    0    0 -0.36059752612E+01  0.19792736566E+01  0.43205358811E+02  0.47787267151E+02  0.19999982249E+02 0.  0.
         12    1    1    2    0    0  0.36059752612E+01 -0.19792736566E+01 -0.43205358811E+02  0.43400732849E+02  0.00000000000E+00 0. -1.
         11    1    3    3    0    0 -0.12913999987E+01  0.19493703013E+01  0.15536358430E+01  0.28074086133E+01  0.51100000000E-03 0. -1.
        -11    1    3    3    0    0 -0.62060125968E+01  0.46837582529E+01  0.35494855118E+02  0.36336440715E+02  0.51100000000E-03 0.  1.
        -12    1    3    3    0    0  0.38914373343E+01 -0.46538548976E+01  0.61568678503E+01  0.86434178229E+01  0.00000000000E+00 0.  1.
</event>
<event>
 7    1  0.5317846E-010  0.4778727E+02  0.7816164E-02  0.1312668E+00
        -11   -1    0    0    0    0  0.00000000000E+00  0.00000000000E+00  0.45593999997E+02  0.45594000000E+02  0.51100000000E-03 0. -1.
         11   -1    0    0    0    0 -0.00000000000E+00 -0.00000000000E+00 -0.45593999997E+02  0.45594000000E+02  0.51100000000E-03 0.  1.
    9900012    2    1    2    0    0  0.19392724166E+02  0.38221302534E+02 -0.68320885607E+01  0.47787272447E+02  0.20000006397E+02 0.  0.
         12    1    1    2    0    0 -0.19392724166E+02 -0.38221302534E+02  0.68320885607E+01  0.43400727553E+02  0.00000000000E+00 0. -1.
         11    1    3    3    0    0  0.79229645590E+01  0.76259162152E+01 -0.74833825577E+01  0.13301465344E+02  0.51100000000E-03 0.  1.
        -11    1    3    3    0    0  0.13430050305E+02  0.28021229773E+02  0.15983374858E+01  0.31114470142E+02  0.51100000000E-03 0. -1.
         12    1    3    3    0    0 -0.19602906981E+01  0.25741565454E+01 -0.94704348889E+00  0.33713369620E+01  0.00000000000E+00 0. -1.
</event>
<event>
 7    1  0.5317846E-010  0.4778728E+02  0.7816164E-02  0.1312668E+00
        -11   -1    0    0    0    0  0.00000000000E+00  0.00000000000E+00  0.45593999997E+02  0.45594000000E+02  0.51100000000E-03 0.  1.
         11   -1    0    0    0    0 -0.00000000000E+00 -0.00000000000E+00 -0.45593999997E+02  0.45594000000E+02  0.51100000000E-03 0. -1.
    9900012    2    1    2    0    0  0.34418181388E+02 -0.18503531824E+02  0.18884672916E+02  0.47787276836E+02  0.20000026406E+02 0.  0.
         12    1    1    2    0    0 -0.34418181388E+02  0.18503531824E+02 -0.18884672916E+02  0.43400723164E+02  0.00000000000E+00 0. -1.
         11    1    3    3    0    0  0.18507389784E+01 -0.22768637976E+01  0.71052967155E+01  0.76873002540E+01  0.51100000000E-03 0. -1.
        -11    1    3    3    0    0  0.32603410437E+02 -0.17536537375E+02  0.11364018965E+02  0.38725359166E+02  0.51100000000E-03 0.  1.
         12    1    3    3    0    0 -0.35968027235E-01  0.13098693484E+01  0.41535723470E+00  0.13746174163E+01  0.00000000000E+00 0. -1.
</event>
<event>
 7    1  0.5317846E-010  0.4778727E+02  0.7816164E-02  0.1312668E+00
        -11   -1    0    0    0    0  0.00000000000E+00  0.00000000000E+00  0.45593999997E+02  0.45594000000E+02  0.51100000000E-03 0.  1.
         11   -1    0    0    0    0 -0.00000000000E+00 -0.00000000000E+00 -0.45593999997E+02  0.45594000000E+02  0.51100000000E-03 0. -1.
    9900012    2    1    2    0    0  0.31731019411E+02  0.17612913649E+02  0.23802332782E+02  0.47787269984E+02  0.19999995166E+02 0.  0.
         12    1    1    2    0    0 -0.31731019411E+02 -0.17612913649E+02 -0.23802332782E+02  0.43400730016E+02  0.00000000000E+00 0. -1.
         11    1    3    3    0    0  0.13493534539E+01  0.36580027827E+01  0.23095468519E+01  0.45316383378E+01  0.51100000000E-03 0. -1.
        -11    1    3    3    0    0  0.18487599212E+02  0.15281616051E+02  0.81516200328E+01  0.25333140807E+02  0.51100000000E-03 0.  1.
        -12    1    3    3    0    0  0.11894066745E+02 -0.13267051850E+01  0.13341165897E+02  0.17922490839E+02  0.00000000000E+00 0.  1.
</event>
<event>
 7    1  0.5317846E-010  0.4778727E+02  0.7816164E-02  0.1312668E+00
        -11   -1    0    0    0    0  0.00000000000E+00  0.00000000000E+00  0.45593999997E+02  0.45594000000E+02  0.51100000000E-03 0.  1.
         11   -1    0    0    0    0 -0.00000000000E+00 -0.00000000000E+00 -0.45593999997E+02  0.45594000000E+02  0.51100000000E-03 0. -1.
    9900012    2    1    2    0    0 -0.41119445086E+02  0.13285429502E+02 -0.40388284900E+01  0.47787268016E+02  0.19999986190E+02 0.  0.
         12    1    1    2    0    0  0.41119445086E+02 -0.13285429502E+02  0.40388284900E+01  0.43400731984E+02  0.00000000000E+00 0. -1.
         11    1    3    3    0    0 -0.97497865290E+01  0.43149896461E+01 -0.20732104694E+01  0.10861660781E+02  0.51100000000E-03 0. -1.
        -11    1    3    3    0    0 -0.56533558855E+01  0.86191058675E+01 -0.41554879724E+01  0.11113842687E+02  0.51100000000E-03 0.  1.
        -12    1    3    3    0    0 -0.25716302671E+02  0.35133398788E+00  0.21898699518E+01  0.25811764548E+02  0.00000000000E+00 0.  1.
</event>
<event>
 7    1  0.5317846E-010  0.4778727E+02  0.7816164E-02  0.1312668E+00
        -11   -1    0    0    0    0  0.00000000000E+00  0.00000000000E+00  0.45593999997E+02  0.45594000000E+02  0.51100000000E-03 0. -1.
         11   -1    0    0    0    0 -0.00000000000E+00 -0.00000000000E+00 -0.45593999997E+02  0.45594000000E+02  0.51100000000E-03 0.  1.
    9900012    2    1    2    0    0  0.26996898719E+02  0.33362748064E+02  0.64589443480E+01  0.47787268889E+02  0.19999990173E+02 0.  0.
         12    1    1    2    0    0 -0.26996898719E+02 -0.33362748064E+02 -0.64589443480E+01  0.43400731111E+02  0.00000000000E+00 0. -1.
         11    1    3    3    0    0  0.10514577198E+02  0.14895442739E+02  0.10618653545E+02  0.21099439600E+02  0.51100000000E-03 0. -1.
        -11    1    3    3    0    0  0.15581863563E+02  0.14915592599E+02 -0.59871725064E+00  0.21578411370E+02  0.51100000000E-03 0.  1.
         12    1    3    3    0    0  0.90045795879E+00  0.35517127265E+01 -0.35609919466E+01  0.51094179190E+01  0.00000000000E+00 0. -1.
</event>
<event>
 7    1  0.5317846E-010  0.4778727E+02  0.7816164E-02  0.1312668E+00
        -11   -1    0    0    0    0  0.00000000000E+00  0.00000000000E+00  0.45593999997E+02  0.45594000000E+02  0.51100000000E-03 0.  1.
         11   -1    0    0    0    0 -0.00000000000E+00 -0.00000000000E+00 -0.45593999997E+02  0.45594000000E+02  0.51100000000E-03 0. -1.
    9900012    2    1    2    0    0  0.25509856328E+02 -0.32095404963E+02  0.14239224449E+02  0.47787270715E+02  0.19999998496E+02 0.  0.
         12    1    1    2    0    0 -0.25509856328E+02  0.32095404963E+02 -0.14239224449E+02  0.43400729285E+02  0.00000000000E+00 0. -1.
         11    1    3    3    0    0 -0.59062433693E+00 -0.12214256023E+01  0.46476131111E+01  0.48415932812E+01  0.51100000000E-03 0. -1.
        -11    1    3    3    0    0  0.18907883131E+02 -0.25962671189E+02  0.34803854885E+01  0.32306058614E+02  0.51100000000E-03 0.  1.
        -12    1    3    3    0    0  0.71925975330E+01 -0.49113081715E+01  0.61112258497E+01  0.10639618819E+02  0.00000000000E+00 0.  1.
</event>
<event>
 7    1  0.5317846E-010  0.4778727E+02  0.7816164E-02  0.1312668E+00
        -11   -1    0    0    0    0  0.00000000000E+00  0.00000000000E+00  0.45593999997E+02  0.45594000000E+02  0.51100000000E-03 0.  1.
         11   -1    0    0    0    0 -0.00000000000E+00 -0.00000000000E+00 -0.45593999997E+02  0.45594000000E+02  0.51100000000E-03 0. -1.
    9900012    2    1    2    0    0  0.28168418173E+02  0.39898611490E+01  0.32775669465E+02  0.47787270937E+02  0.19999999510E+02 0.  0.
         12    1    1    2    0    0 -0.28168418173E+02 -0.39898611490E+01 -0.32775669465E+02  0.43400729063E+02  0.00000000000E+00 0. -1.
         11    1    3    3    0    0  0.11463949844E+02 -0.82936343196E+00  0.22553383430E+01  0.11713092718E+02  0.51100000000E-03 0. -1.
        -11    1    3    3    0    0  0.15393012585E+02  0.57713324519E+01  0.22350924916E+02  0.27745575495E+02  0.51100000000E-03 0.  1.
         12    1    3    3    0    0  0.13114557442E+01 -0.95210787102E+00  0.81694062058E+01  0.83286027233E+01  0.00000000000E+00 0. -1.
</event>
<event>
 7    1  0.5317846E-010  0.4778727E+02  0.7816164E-02  0.1312668E+00
        -11   -1    0    0    0    0  0.00000000000E+00  0.00000000000E+00  0.45593999997E+02  0.45594000000E+02  0.51100000000E-03 0.  1.
         11   -1    0    0    0    0 -0.00000000000E+00 -0.00000000000E+00 -0.45593999997E+02  0.45594000000E+02  0.51100000000E-03 0. -1.
    9900012    2    1    2    0    0  0.36554957833E+02  0.79504402327E+01  0.22003376849E+02  0.47787273798E+02  0.20000012556E+02 0.  0.
         12    1    1    2    0    0 -0.36554957833E+02 -0.79504402327E+01 -0.22003376849E+02  0.43400726202E+02  0.00000000000E+00 0. -1.
         11    1    3    3    0    0  0.27290315415E+02  0.42350001901E+01  0.90770668547E+01  0.29070426295E+02  0.51100000000E-03 0. -1.
        -11    1    3    3    0    0  0.77935796189E+01  0.15698471185E+01  0.30688012715E+01  0.85218451497E+01  0.51100000000E-03 0.  1.
         12    1    3    3    0    0  0.14710627992E+01  0.21455929241E+01  0.98575087232E+01  0.10195002353E+02  0.00000000000E+00 0. -1.
</event>
<event>
 7    1  0.5317846E-010  0.4778725E+02  0.7816164E-02  0.1312668E+00
        -11   -1    0    0    0    0  0.00000000000E+00  0.00000000000E+00  0.45593999997E+02  0.45594000000E+02  0.51100000000E-03 0.  1.
         11   -1    0    0    0    0 -0.00000000000E+00 -0.00000000000E+00 -0.45593999997E+02  0.45594000000E+02  0.51100000000E-03 0. -1.
    9900012    2    1    2    0    0  0.24738990304E+02  0.53148290695E+00  0.35655639127E+02  0.47787254420E+02  0.19999924203E+02 0.  0.
         12    1    1    2    0    0 -0.24738990304E+02 -0.53148290695E+00 -0.35655639127E+02  0.43400745580E+02  0.00000000000E+00 0. -1.
         11    1    3    3    0    0  0.62039454260E+00 -0.25218284393E+01  0.94761155712E+01  0.98255419518E+01  0.51100000000E-03 0. -1.
        -11    1    3    3    0    0  0.23517518088E+02  0.30481293006E+01  0.18029936917E+02  0.29789987827E+02  0.51100000000E-03 0.  1.
        -12    1    3    3    0    0  0.60107767303E+00  0.51820456787E-02  0.81495866392E+01  0.81717246413E+01  0.00000000000E+00 0.  1.
</event>
<event>
 7    1  0.5317846E-010  0.4778727E+02  0.7816164E-02  0.1312668E+00
        -11   -1    0    0    0    0  0.00000000000E+00  0.00000000000E+00  0.45593999997E+02  0.45594000000E+02  0.51100000000E-03 0.  1.
         11   -1    0    0    0    0 -0.00000000000E+00 -0.00000000000E+00 -0.45593999997E+02  0.45594000000E+02  0.51100000000E-03 0. -1.
    9900012    2    1    2    0    0 -0.28624663885E+02 -0.42042916571E+01  0.32350825626E+02  0.47787269942E+02  0.19999994972E+02 0.  0.
         12    1    1    2    0    0  0.28624663885E+02  0.42042916571E+01 -0.32350825626E+02  0.43400730058E+02  0.00000000000E+00 0. -1.
         11    1    3    3    0    0 -0.26776800730E+01  0.28672467814E+01  0.26016733029E+00  0.39317632151E+01  0.51100000000E-03 0. -1.
        -11    1    3    3    0    0 -0.20415919210E+02 -0.82530954687E+01  0.17247843700E+02  0.27971618733E+02  0.51100000000E-03 0.  1.
        -12    1    3    3    0    0 -0.55310646026E+01  0.11815570302E+01  0.14842814596E+02  0.15883887994E+02  0.00000000000E+00 0.  1.
</event>
<event>
 7    1  0.5317846E-010  0.4778727E+02  0.7816164E-02  0.1312668E+00
        -11   -1    0    0    0    0  0.00000000000E+00  0.00000000000E+00  0.45593999997E+02  0.45594000000E+02  0.51100000000E-03 0.  1.
         11   -1    0    0    0    0 -0.00000000000E+00 -0.00000000000E+00 -0.45593999997E+02  0.45594000000E+02  0.51100000000E-03 0. -1.
    9900012    2    1    2    0    0 -0.21729638364E+02  0.35140317738E+02  0.13289247416E+02  0.47787271768E+02  0.20000003299E+02 0.  0.
         12    1    1    2    0    0  0.21729638364E+02 -0.35140317738E+02 -0.13289247416E+02  0.43400728232E+02  0.00000000000E+00 0. -1.
         11    1    3    3    0    0  0.11975713474E+01  0.62879184742E+01 -0.20681854814E+01  0.67267739160E+01  0.51100000000E-03 0. -1.
        -11    1    3    3    0    0 -0.11433038535E+02  0.15354313284E+02  0.13081509662E+02  0.23186099324E+02  0.51100000000E-03 0.  1.
         12    1    3    3    0    0 -0.11494171177E+02  0.13498085980E+02  0.22759232354E+01  0.17874398528E+02  0.00000000000E+00 0. -1.
</event>
<event>
 7    1  0.5317846E-010  0.4778727E+02  0.7816164E-02  0.1312668E+00
        -11   -1    0    0    0    0  0.00000000000E+00  0.00000000000E+00  0.45593999997E+02  0.45594000000E+02  0.51100000000E-03 0. -1.
         11   -1    0    0    0    0 -0.00000000000E+00 -0.00000000000E+00 -0.45593999997E+02  0.45594000000E+02  0.51100000000E-03 0.  1.
    9900012    2    1    2    0    0  0.33173922605E+02 -0.18506298000E+02 -0.20991212866E+02  0.47787271616E+02  0.20000002608E+02 0.  0.
         12    1    1    2    0    0 -0.33173922605E+02  0.18506298000E+02  0.20991212866E+02  0.43400728384E+02  0.00000000000E+00 0. -1.
         11    1    3    3    0    0  0.12429451167E+02 -0.54661089032E+01 -0.17841780083E+02  0.22420943773E+02  0.51100000000E-03 0. -1.
        -11    1    3    3    0    0  0.16240994579E+02 -0.71959270374E+01 -0.16773161860E+01  0.17842776149E+02  0.51100000000E-03 0.  1.
        -12    1    3    3    0    0  0.45034768591E+01 -0.58442620591E+01 -0.14721165962E+01  0.75235516951E+01  0.00000000000E+00 0.  1.
</event>
<event>
 7    1  0.5317846E-010  0.4778727E+02  0.7816164E-02  0.1312668E+00
        -11   -1    0    0    0    0  0.00000000000E+00  0.00000000000E+00  0.45593999997E+02  0.45594000000E+02  0.51100000000E-03 0.  1.
         11   -1    0    0    0    0 -0.00000000000E+00 -0.00000000000E+00 -0.45593999997E+02  0.45594000000E+02  0.51100000000E-03 0. -1.
    9900012    2    1    2    0    0  0.19626445846E+02 -0.35509951872E+02  0.15410045876E+02  0.47787267605E+02  0.19999984318E+02 0.  0.
         12    1    1    2    0    0 -0.19626445846E+02  0.35509951872E+02 -0.15410045876E+02  0.43400732395E+02  0.00000000000E+00 0. -1.
         11    1    3    3    0    0  0.44432625144E+01 -0.98266788622E+01  0.20517768428E+00  0.10786486795E+02  0.51100000000E-03 0. -1.
        -11    1    3    3    0    0  0.10517765765E+02 -0.13567965420E+02  0.21248368765E+00  0.17168524453E+02  0.51100000000E-03 0.  1.
        -12    1    3    3    0    0  0.46654175662E+01 -0.12115307591E+02  0.14992384504E+02  0.19832256357E+02  0.00000000000E+00 0.  1.
</event>
<event>
 7    1  0.5317846E-010  0.4778726E+02  0.7816164E-02  0.1312668E+00
        -11   -1    0    0    0    0  0.00000000000E+00  0.00000000000E+00  0.45593999997E+02  0.45594000000E+02  0.51100000000E-03 0.  1.
         11   -1    0    0    0    0 -0.00000000000E+00 -0.00000000000E+00 -0.45593999997E+02  0.45594000000E+02  0.51100000000E-03 0. -1.
    9900012    2    1    2    0    0  0.30592633459E+02  0.27449226663E+02  0.13937530489E+02  0.47787262420E+02  0.19999960677E+02 0.  0.
         12    1    1    2    0    0 -0.30592633459E+02 -0.27449226663E+02 -0.13937530489E+02  0.43400737580E+02  0.00000000000E+00 0. -1.
         11    1    3    3    0    0  0.90487517897E+01  0.18420280557E+02  0.58816751328E+01  0.21349022165E+02  0.51100000000E-03 0. -1.
        -11    1    3    3    0    0  0.10407488416E+02  0.53124867318E+01  0.88695109084E+01  0.14669920055E+02  0.51100000000E-03 0.  1.
         12    1    3    3    0    0  0.11136393253E+02  0.37164593740E+01 -0.81365555245E+00  0.11768320200E+02  0.00000000000E+00 0. -1.
</event>
<event>
 7    1  0.5317846E-010  0.4778727E+02  0.7816164E-02  0.1312668E+00
        -11   -1    0    0    0    0  0.00000000000E+00  0.00000000000E+00  0.45593999997E+02  0.45594000000E+02  0.51100000000E-03 0. -1.
         11   -1    0    0    0    0 -0.00000000000E+00 -0.00000000000E+00 -0.45593999997E+02  0.45594000000E+02  0.51100000000E-03 0.  1.
    9900012    2    1    2    0    0  0.26071188081E+02  0.82235661921E+01 -0.33708890493E+02  0.47787272044E+02  0.20000004556E+02 0.  0.
         12    1    1    2    0    0 -0.26071188081E+02 -0.82235661921E+01  0.33708890493E+02  0.43400727956E+02  0.00000000000E+00 0. -1.
         11    1    3    3    0    0  0.11762224043E+02  0.28924981317E+01 -0.10547911959E+02  0.16061597269E+02  0.51100000000E-03 0. -1.
        -11    1    3    3    0    0  0.17600352212E+02  0.43725995792E+01 -0.20607592092E+02  0.27451136173E+02  0.51100000000E-03 0.  1.
         12    1    3    3    0    0 -0.32913881738E+01  0.95846848115E+00 -0.25533864418E+01  0.42745386021E+01  0.00000000000E+00 0. -1.
</event>
<event>
 7    1  0.5317846E-010  0.4778728E+02  0.7816164E-02  0.1312668E+00
        -11   -1    0    0    0    0  0.00000000000E+00  0.00000000000E+00  0.45593999997E+02  0.45594000000E+02  0.51100000000E-03 0. -1.
         11   -1    0    0    0    0 -0.00000000000E+00 -0.00000000000E+00 -0.45593999997E+02  0.45594000000E+02  0.51100000000E-03 0.  1.
    9900012    2    1    2    0    0 -0.42406323614E+02  0.82807999637E+01 -0.40932442049E+01  0.47787279054E+02  0.20000036517E+02 0.  0.
         12    1    1    2    0    0  0.42406323614E+02 -0.82807999637E+01  0.40932442049E+01  0.43400720946E+02  0.00000000000E+00 0. -1.
         11    1    3    3    0    0 -0.44727728977E+01 -0.32718385765E+01 -0.20654117150E+01  0.59140976386E+01  0.51100000000E-03 0. -1.
        -11    1    3    3    0    0 -0.29080032588E+02  0.14309937254E+02 -0.30032748454E+01  0.32549074635E+02  0.51100000000E-03 0.  1.
        -12    1    3    3    0    0 -0.88535181290E+01 -0.27572987141E+01  0.97544235547E+00  0.93241067802E+01  0.00000000000E+00 0.  1.
</event>
<event>
 7    1  0.5317846E-010  0.4778726E+02  0.7816164E-02  0.1312668E+00
        -11   -1    0    0    0    0  0.00000000000E+00  0.00000000000E+00  0.45593999997E+02  0.45594000000E+02  0.51100000000E-03 0.  1.
         11   -1    0    0    0    0 -0.00000000000E+00 -0.00000000000E+00 -0.45593999997E+02  0.45594000000E+02  0.51100000000E-03 0. -1.
    9900012    2    1    2    0    0 -0.12383510842E+02 -0.18904358119E+02  0.37052637232E+02  0.47787262420E+02  0.19999960677E+02 0.  0.
         12    1    1    2    0    0  0.12383510842E+02  0.18904358119E+02 -0.37052637232E+02  0.43400737580E+02  0.00000000000E+00 0. -1.
         11    1    3    3    0    0  0.77551130749E+00 -0.74845530455E+01  0.22669646386E+01  0.78586946125E+01  0.51100000000E-03 0. -1.
        -11    1    3    3    0    0 -0.14105680831E+02 -0.11601265936E+02  0.30622380808E+02  0.35655151236E+02  0.51100000000E-03 0.  1.
         12    1    3    3    0    0  0.94665868178E+00  0.18146086256E+00  0.41632917851E+01  0.42734165713E+01  0.00000000000E+00 0. -1.
</event>
<event>
 7    1  0.5317846E-010  0.4778727E+02  0.7816164E-02  0.1312668E+00
        -11   -1    0    0    0    0  0.00000000000E+00  0.00000000000E+00  0.45593999997E+02  0.45594000000E+02  0.51100000000E-03 0.  1.
         11   -1    0    0    0    0 -0.00000000000E+00 -0.00000000000E+00 -0.45593999997E+02  0.45594000000E+02  0.51100000000E-03 0. -1.
    9900012    2    1    2    0    0  0.37928657898E+02  0.15168179379E+02  0.14661739829E+02  0.47787269932E+02  0.19999994928E+02 0.  0.
         12    1    1    2    0    0 -0.37928657898E+02 -0.15168179379E+02 -0.14661739829E+02  0.43400730068E+02  0.00000000000E+00 0. -1.
         11    1    3    3    0    0  0.11456548838E+02  0.13183635172E+02  0.84973291087E+01  0.19423319743E+02  0.51100000000E-03 0. -1.
        -11    1    3    3    0    0  0.22640777607E+02  0.44308097767E+01  0.58884613074E+01  0.23809890019E+02  0.51100000000E-03 0.  1.
         12    1    3    3    0    0  0.38313314541E+01 -0.24462655694E+01  0.27594941245E+00  0.45540601692E+01  0.00000000000E+00 0. -1.
</event>
<event>
 7    1  0.5317846E-010  0.4778727E+02  0.7816164E-02  0.1312668E+00
        -11   -1    0    0    0    0  0.00000000000E+00  0.00000000000E+00  0.45593999997E+02  0.45594000000E+02  0.51100000000E-03 0.  1.
         11   -1    0    0    0    0 -0.00000000000E+00 -0.00000000000E+00 -0.45593999997E+02  0.45594000000E+02  0.51100000000E-03 0. -1.
    9900012    2    1    2    0    0 -0.86333019316E+01  0.18917515058E+02  0.38094838575E+02  0.47787274151E+02  0.20000014162E+02 0.  0.
         12    1    1    2    0    0  0.86333019316E+01 -0.18917515058E+02 -0.38094838575E+02  0.43400725849E+02  0.00000000000E+00 0. -1.
         11    1    3    3    0    0  0.40727636559E+01  0.36526069388E+01  0.16182800965E+01  0.57050654666E+01  0.51100000000E-03 0. -1.
        -11    1    3    3    0    0 -0.83636433963E+01  0.50532844830E+01  0.14880864796E+02  0.17802425460E+02  0.51100000000E-03 0.  1.
         12    1    3    3    0    0 -0.43424221911E+01  0.10211623636E+02  0.21595693683E+02  0.24279783224E+02  0.00000000000E+00 0. -1.
</event>
<event>
 7    1  0.5317846E-010  0.4778729E+02  0.7816164E-02  0.1312668E+00
        -11   -1    0    0    0    0  0.00000000000E+00  0.00000000000E+00  0.45593999997E+02  0.45594000000E+02  0.51100000000E-03 0. -1.
         11   -1    0    0    0    0 -0.00000000000E+00 -0.00000000000E+00 -0.45593999997E+02  0.45594000000E+02  0.51100000000E-03 0.  1.
    9900012    2    1    2    0    0 -0.31116536974E+02  0.29922514884E+02 -0.44749855142E+01  0.47787294181E+02  0.20000105489E+02 0.  0.
         12    1    1    2    0    0  0.31116536974E+02 -0.29922514884E+02  0.44749855142E+01  0.43400705819E+02  0.00000000000E+00 0. -1.
         11    1    3    3    0    0 -0.30092784218E+01  0.36576067565E+00  0.16586862048E+01  0.34555430368E+01  0.51100000000E-03 0. -1.
        -11    1    3    3    0    0 -0.93495319696E+01  0.19342674778E+02  0.17731256430E+01  0.21556827002E+02  0.51100000000E-03 0.  1.
        -12    1    3    3    0    0 -0.18757726582E+02  0.10214079431E+02 -0.79067973620E+01  0.22774924142E+02  0.00000000000E+00 0.  1.
</event>
<event>
 7    1  0.5317846E-010  0.4778728E+02  0.7816164E-02  0.1312668E+00
        -11   -1    0    0    0    0  0.00000000000E+00  0.00000000000E+00  0.45593999997E+02  0.45594000000E+02  0.51100000000E-03 0.  1.
         11   -1    0    0    0    0 -0.00000000000E+00 -0.00000000000E+00 -0.45593999997E+02  0.45594000000E+02  0.51100000000E-03 0. -1.
    9900012    2    1    2    0    0 -0.14393499821E+02  0.45971855298E+01  0.40685570877E+02  0.47787278468E+02  0.20000033848E+02 0.  0.
         12    1    1    2    0    0  0.14393499821E+02 -0.45971855298E+01 -0.40685570877E+02  0.43400721532E+02  0.00000000000E+00 0. -1.
         11    1    3    3    0    0 -0.12811622446E+01  0.51701119787E+01  0.15869449789E+01  0.55578619267E+01  0.51100000000E-03 0. -1.
        -11    1    3    3    0    0 -0.79489772584E+01 -0.40248576544E+01  0.29330227807E+02  0.30653678116E+02  0.51100000000E-03 0.  1.
        -12    1    3    3    0    0 -0.51633603185E+01  0.34519312056E+01  0.97683980912E+01  0.11575738425E+02  0.00000000000E+00 0.  1.
</event>
<event>
 7    1  0.5317846E-010  0.4778727E+02  0.7816164E-02  0.1312668E+00
        -11   -1    0    0    0    0  0.00000000000E+00  0.00000000000E+00  0.45593999997E+02  0.45594000000E+02  0.51100000000E-03 0.  1.
         11   -1    0    0    0    0 -0.00000000000E+00 -0.00000000000E+00 -0.45593999997E+02  0.45594000000E+02  0.51100000000E-03 0. -1.
    9900012    2    1    2    0    0 -0.37564479699E+02  0.17929862818E+02  0.12290361419E+02  0.47787273053E+02  0.20000009158E+02 0.  0.
         12    1    1    2    0    0  0.37564479699E+02 -0.17929862818E+02 -0.12290361419E+02  0.43400726947E+02  0.00000000000E+00 0. -1.
         11    1    3    3    0    0 -0.18976614959E+02  0.17015236945E+02  0.56296435129E+01  0.26102166384E+02  0.51100000000E-03 0. -1.
        -11    1    3    3    0    0 -0.88535971363E+01  0.19121626737E+01  0.76419036390E+01  0.11850790684E+02  0.51100000000E-03 0.  1.
         12    1    3    3    0    0 -0.97342676037E+01 -0.99753680125E+00 -0.98118573276E+00  0.98343159850E+01  0.00000000000E+00 0. -1.
</event>
<event>
 7    1  0.5317846E-010  0.4778727E+02  0.7816164E-02  0.1312668E+00
        -11   -1    0    0    0    0  0.00000000000E+00  0.00000000000E+00  0.45593999997E+02  0.45594000000E+02  0.51100000000E-03 0.  1.
         11   -1    0    0    0    0 -0.00000000000E+00 -0.00000000000E+00 -0.45593999997E+02  0.45594000000E+02  0.51100000000E-03 0. -1.
    9900012    2    1    2    0    0  0.13814658257E+02  0.37479545927E+00  0.41141684237E+02  0.47787269174E+02  0.19999991473E+02 0.  0.
         12    1    1    2    0    0 -0.13814658257E+02 -0.37479545927E+00 -0.41141684237E+02  0.43400730826E+02  0.00000000000E+00 0. -1.
         11    1    3    3    0    0  0.53626409660E+01  0.17123118788E+00  0.30059550098E+02  0.30534632643E+02  0.51100000000E-03 0. -1.
        -11    1    3    3    0    0  0.10166257245E+02 -0.64193434318E+00  0.11429334030E+02  0.15309949142E+02  0.51100000000E-03 0.  1.
         12    1    3    3    0    0 -0.17142399545E+01  0.84549861457E+00 -0.34719989225E+00  0.19426873897E+01  0.00000000000E+00 0. -1.
</event>
<event>
 7    1  0.5317846E-010  0.4778727E+02  0.7816164E-02  0.1312668E+00
        -11   -1    0    0    0    0  0.00000000000E+00  0.00000000000E+00  0.45593999997E+02  0.45594000000E+02  0.51100000000E-03 0.  1.
         11   -1    0    0    0    0 -0.00000000000E+00 -0.00000000000E+00 -0.45593999997E+02  0.45594000000E+02  0.51100000000E-03 0. -1.
    9900012    2    1    2    0    0 -0.16284870727E+01  0.28755215447E+02  0.32467042950E+02  0.47787271165E+02  0.20000000549E+02 0.  0.
         12    1    1    2    0    0  0.16284870727E+01 -0.28755215447E+02 -0.32467042950E+02  0.43400728835E+02  0.00000000000E+00 0. -1.
         11    1    3    3    0    0 -0.40335264898E+01  0.22255156780E+02  0.19388177077E+02  0.29790313021E+02  0.51100000000E-03 0. -1.
        -11    1    3    3    0    0 -0.99240657316E+00 -0.15946480116E+01  0.71770715168E+01  0.74187686920E+01  0.51100000000E-03 0.  1.
        -12    1    3    3    0    0  0.33974459902E+01  0.80947066781E+01  0.59017943561E+01  0.10578189452E+02  0.00000000000E+00 0.  1.
</event>
<event>
 7    1  0.5317846E-010  0.4778727E+02  0.7816164E-02  0.1312668E+00
        -11   -1    0    0    0    0  0.00000000000E+00  0.00000000000E+00  0.45593999997E+02  0.45594000000E+02  0.51100000000E-03 0.  1.
         11   -1    0    0    0    0 -0.00000000000E+00 -0.00000000000E+00 -0.45593999997E+02  0.45594000000E+02  0.51100000000E-03 0. -1.
    9900012    2    1    2    0    0  0.42467566538E+02  0.17944918583E+00  0.89496994441E+01  0.47787268096E+02  0.19999986555E+02 0.  0.
         12    1    1    2    0    0 -0.42467566538E+02 -0.17944918583E+00 -0.89496994441E+01  0.43400731904E+02  0.00000000000E+00 0. -1.
         11    1    3    3    0    0  0.91365607452E+01  0.71719447892E-01 -0.44798205792E+01  0.10175985388E+02  0.51100000000E-03 0. -1.
        -11    1    3    3    0    0  0.13594198614E+02 -0.17242802296E+01  0.11135854723E+02  0.17657367837E+02  0.51100000000E-03 0.  1.
        -12    1    3    3    0    0  0.19736807179E+02  0.18320099675E+01  0.22936653004E+01  0.19953914871E+02  0.00000000000E+00 0.  1.
</event>
<event>
 7    1  0.5317846E-010  0.4778727E+02  0.7816164E-02  0.1312668E+00
        -11   -1    0    0    0    0  0.00000000000E+00  0.00000000000E+00  0.45593999997E+02  0.45594000000E+02  0.51100000000E-03 0.  1.
         11   -1    0    0    0    0 -0.00000000000E+00 -0.00000000000E+00 -0.45593999997E+02  0.45594000000E+02  0.51100000000E-03 0. -1.
    9900012    2    1    2    0    0 -0.15450432338E+02  0.11424871653E+02  0.38915033116E+02  0.47787270120E+02  0.19999995784E+02 0.  0.
         12    1    1    2    0    0  0.15450432338E+02 -0.11424871653E+02 -0.38915033116E+02  0.43400729880E+02  0.00000000000E+00 0. -1.
         11    1    3    3    0    0 -0.98621445667E+00 -0.20639319886E+01 -0.50230164778E+00  0.23419524792E+01  0.51100000000E-03 0. -1.
        -11    1    3    3    0    0 -0.11721744129E+02  0.11154719674E+02  0.20142476375E+02  0.25836919538E+02  0.51100000000E-03 0.  1.
        -12    1    3    3    0    0 -0.27424737522E+01  0.23340839676E+01  0.19274858388E+02  0.19608398102E+02  0.00000000000E+00 0.  1.
</event>
<event>
 7    1  0.5317846E-010  0.4778728E+02  0.7816164E-02  0.1312668E+00
        -11   -1    0    0    0    0  0.00000000000E+00  0.00000000000E+00  0.45593999997E+02  0.45594000000E+02  0.51100000000E-03 0. -1.
         11   -1    0    0    0    0 -0.00000000000E+00 -0.00000000000E+00 -0.45593999997E+02  0.45594000000E+02  0.51100000000E-03 0.  1.
    9900012    2    1    2    0    0  0.29712645624E+02  0.19717072370E+02 -0.24738995312E+02  0.47787284086E+02  0.20000059460E+02 0.  0.
         12    1    1    2    0    0 -0.29712645624E+02 -0.19717072370E+02  0.24738995312E+02  0.43400715914E+02  0.00000000000E+00 0. -1.
         11    1    3    3    0    0  0.44894065969E+01  0.73820467913E+01 -0.33485434313E+01  0.92661820505E+01  0.51100000000E-03 0. -1.
        -11    1    3    3    0    0  0.19464609523E+01 -0.80544367791E+00 -0.86638427013E+01  0.89162559615E+01  0.51100000000E-03 0.  1.
        -12    1    3    3    0    0  0.23276778075E+02  0.13140469256E+02 -0.12726609180E+02  0.29604846074E+02  0.00000000000E+00 0.  1.
</event>
<event>
 7    1  0.5317846E-010  0.4778727E+02  0.7816164E-02  0.1312668E+00
        -11   -1    0    0    0    0  0.00000000000E+00  0.00000000000E+00  0.45593999997E+02  0.45594000000E+02  0.51100000000E-03 0. -1.
         11   -1    0    0    0    0 -0.00000000000E+00 -0.00000000000E+00 -0.45593999997E+02  0.45594000000E+02  0.51100000000E-03 0.  1.
    9900012    2    1    2    0    0 -0.66951970614E+01  0.35005452503E+02 -0.24767235961E+02  0.47787270216E+02  0.19999996224E+02 0.  0.
         12    1    1    2    0    0  0.66951970614E+01 -0.35005452503E+02  0.24767235961E+02  0.43400729784E+02  0.00000000000E+00 0. -1.
         11    1    3    3    0    0  0.63793552148E+00  0.10062849911E+02 -0.58504235348E+01  0.11657416775E+02  0.51100000000E-03 0. -1.
        -11    1    3    3    0    0 -0.45574910808E+00 -0.23749915565E+01 -0.27032521328E+01  0.36271013906E+01  0.51100000000E-03 0.  1.
        -12    1    3    3    0    0 -0.68773834748E+01  0.27317594148E+02 -0.16213560293E+02  0.32502752051E+02  0.00000000000E+00 0.  1.
</event>
<event>
 7    1  0.5317846E-010  0.4778727E+02  0.7816164E-02  0.1312668E+00
        -11   -1    0    0    0    0  0.00000000000E+00  0.00000000000E+00  0.45593999997E+02  0.45594000000E+02  0.51100000000E-03 0. -1.
         11   -1    0    0    0    0 -0.00000000000E+00 -0.00000000000E+00 -0.45593999997E+02  0.45594000000E+02  0.51100000000E-03 0.  1.
    9900012    2    1    2    0    0  0.12204492976E+02 -0.41381385515E+02 -0.47174599269E+01  0.47787272539E+02  0.20000006816E+02 0.  0.
         12    1    1    2    0    0 -0.12204492976E+02  0.41381385515E+02  0.47174599269E+01  0.43400727461E+02  0.00000000000E+00 0. -1.
         11    1    3    3    0    0  0.78551408562E+01 -0.30838890369E+02 -0.32701123803E+00  0.31825262507E+02  0.51100000000E-03 0. -1.
        -11    1    3    3    0    0  0.13613329762E+01 -0.11929706101E+02 -0.29358785469E+01  0.12360845369E+02  0.51100000000E-03 0.  1.
         12    1    3    3    0    0  0.29880191435E+01  0.13872109546E+01 -0.14545701419E+01  0.36011646633E+01  0.00000000000E+00 0. -1.
</event>
<event>
 7    1  0.5317846E-010  0.4778727E+02  0.7816164E-02  0.1312668E+00
        -11   -1    0    0    0    0  0.00000000000E+00  0.00000000000E+00  0.45593999997E+02  0.45594000000E+02  0.51100000000E-03 0.  1.
         11   -1    0    0    0    0 -0.00000000000E+00 -0.00000000000E+00 -0.45593999997E+02  0.45594000000E+02  0.51100000000E-03 0. -1.
    9900012    2    1    2    0    0  0.37948969513E+02  0.17898564039E+02  0.11096879769E+02  0.47787267030E+02  0.19999981694E+02 0.  0.
         12    1    1    2    0    0 -0.37948969513E+02 -0.17898564039E+02 -0.11096879769E+02  0.43400732970E+02  0.00000000000E+00 0. -1.
         11    1    3    3    0    0  0.12960336995E+02  0.57517706110E+01 -0.30079698211E+01  0.14494864018E+02  0.51100000000E-03 0. -1.
        -11    1    3    3    0    0  0.10883381825E+02  0.98595575467E+01  0.25269036401E+01  0.14901144830E+02  0.51100000000E-03 0.  1.
         12    1    3    3    0    0  0.14105250693E+02  0.22872358811E+01  0.11577945950E+02  0.18391258182E+02  0.00000000000E+00 0. -1.
</event>
<event>
 7    1  0.5317846E-010  0.4778727E+02  0.7816164E-02  0.1312668E+00
        -11   -1    0    0    0    0  0.00000000000E+00  0.00000000000E+00  0.45593999997E+02  0.45594000000E+02  0.51100000000E-03 0.  1.
         11   -1    0    0    0    0 -0.00000000000E+00 -0.00000000000E+00 -0.45593999997E+02  0.45594000000E+02  0.51100000000E-03 0. -1.
    9900012    2    1    2    0    0 -0.67255470567E+01 -0.42322639264E+02  0.68690999856E+01  0.47787270604E+02  0.19999997990E+02 0.  0.
         12    1    1    2    0    0  0.67255470567E+01  0.42322639264E+02 -0.68690999856E+01  0.43400729396E+02  0.00000000000E+00 0. -1.
         11    1    3    3    0    0 -0.29410518192E+00 -0.44946326689E+01  0.43094325393E+01  0.62337332120E+01  0.51100000000E-03 0. -1.
        -11    1    3    3    0    0 -0.77738771810E-01 -0.20276708644E+02  0.84691566833E+01  0.21974475465E+02  0.51100000000E-03 0.  1.
        -12    1    3    3    0    0 -0.63537031029E+01 -0.17551297951E+02 -0.59094892371E+01  0.19579061927E+02  0.00000000000E+00 0.  1.
</event>
<event>
 7    1  0.5317846E-010  0.4778728E+02  0.7816164E-02  0.1312668E+00
        -11   -1    0    0    0    0  0.00000000000E+00  0.00000000000E+00  0.45593999997E+02  0.45594000000E+02  0.51100000000E-03 0.  1.
         11   -1    0    0    0    0 -0.00000000000E+00 -0.00000000000E+00 -0.45593999997E+02  0.45594000000E+02  0.51100000000E-03 0. -1.
    9900012    2    1    2    0    0  0.15945339805E+02 -0.29808965592E+02  0.27217533835E+02  0.47787280660E+02  0.20000043842E+02 0.  0.
         12    1    1    2    0    0 -0.15945339805E+02  0.29808965592E+02 -0.27217533835E+02  0.43400719340E+02  0.00000000000E+00 0. -1.
         11    1    3    3    0    0  0.50112355176E+00  0.15318418309E+01  0.17641167395E+00  0.16213529995E+01  0.51100000000E-03 0. -1.
        -11    1    3    3    0    0  0.90990413095E+01 -0.17934977034E+02  0.23474844047E+02  0.30911555400E+02  0.51100000000E-03 0.  1.
        -12    1    3    3    0    0  0.63451749435E+01 -0.13405830389E+02  0.35662781139E+01  0.15254372260E+02  0.00000000000E+00 0.  1.
</event>
<event>
 7    1  0.5317846E-010  0.4778724E+02  0.7816164E-02  0.1312668E+00
        -11   -1    0    0    0    0  0.00000000000E+00  0.00000000000E+00  0.45593999997E+02  0.45594000000E+02  0.51100000000E-03 0. -1.
         11   -1    0    0    0    0 -0.00000000000E+00 -0.00000000000E+00 -0.45593999997E+02  0.45594000000E+02  0.51100000000E-03 0.  1.
    9900012    2    1    2    0    0 -0.13662994422E+02  0.32237733754E+02 -0.25645215186E+02  0.47787240144E+02  0.19999859113E+02 0.  0.
         12    1    1    2    0    0  0.13662994422E+02 -0.32237733754E+02  0.25645215186E+02  0.43400759856E+02  0.00000000000E+00 0. -1.
         11    1    3    3    0    0  0.31231710268E+01  0.12532977597E+02 -0.97031491351E+01  0.16154901056E+02  0.51100000000E-03 0. -1.
        -11    1    3    3    0    0 -0.11511808267E+02  0.18668299270E+02 -0.13198631692E+02  0.25597480462E+02  0.51100000000E-03 0.  1.
        -12    1    3    3    0    0 -0.52743571820E+01  0.10364568861E+01 -0.27434343588E+01  0.60348586264E+01  0.00000000000E+00 0.  1.
</event>
<event>
 7    1  0.5317846E-010  0.4778728E+02  0.7816164E-02  0.1312668E+00
        -11   -1    0    0    0    0  0.00000000000E+00  0.00000000000E+00  0.45593999997E+02  0.45594000000E+02  0.51100000000E-03 0. -1.
         11   -1    0    0    0    0 -0.00000000000E+00 -0.00000000000E+00 -0.45593999997E+02  0.45594000000E+02  0.51100000000E-03 0.  1.
    9900012    2    1    2    0    0 -0.27741441894E+02 -0.10509609413E+02  0.31679383644E+02  0.47787276084E+02  0.20000022977E+02 0.  0.
         12    1    1    2    0    0  0.27741441894E+02  0.10509609413E+02 -0.31679383644E+02  0.43400723916E+02  0.00000000000E+00 0. -1.
         11    1    3    3    0    0 -0.18981006143E+02 -0.99098750687E+01  0.25851071590E+02  0.33567277529E+02  0.51100000000E-03 0.  1.
        -11    1    3    3    0    0  0.16661143581E+01 -0.41497001092E+00 -0.76773253215E+00  0.18808377565E+01  0.51100000000E-03 0. -1.
         12    1    3    3    0    0 -0.10426550109E+02 -0.18476433328E+00  0.65960445862E+01  0.12339160799E+02  0.00000000000E+00 0. -1.
</event>
<event>
 7    1  0.5317846E-010  0.4778727E+02  0.7816164E-02  0.1312668E+00
        -11   -1    0    0    0    0  0.00000000000E+00  0.00000000000E+00  0.45593999997E+02  0.45594000000E+02  0.51100000000E-03 0. -1.
         11   -1    0    0    0    0 -0.00000000000E+00 -0.00000000000E+00 -0.45593999997E+02  0.45594000000E+02  0.51100000000E-03 0.  1.
    9900012    2    1    2    0    0 -0.20400286257E+02 -0.35508442972E+02 -0.14373658548E+02  0.47787271185E+02  0.20000000640E+02 0.  0.
         12    1    1    2    0    0  0.20400286257E+02  0.35508442972E+02  0.14373658548E+02  0.43400728815E+02  0.00000000000E+00 0. -1.
         11    1    3    3    0    0 -0.14299260299E+01 -0.24158660296E+01  0.25785838100E+01  0.38118488755E+01  0.51100000000E-03 0. -1.
        -11    1    3    3    0    0 -0.48133852740E+01 -0.18459418712E+02 -0.13386966259E+02  0.23305142842E+02  0.51100000000E-03 0.  1.
        -12    1    3    3    0    0 -0.14156974953E+02 -0.14633158230E+02 -0.35652760992E+01  0.20670279467E+02  0.00000000000E+00 0.  1.
</event>
<event>
 7    1  0.5317846E-010  0.4778727E+02  0.7816164E-02  0.1312668E+00
        -11   -1    0    0    0    0  0.00000000000E+00  0.00000000000E+00  0.45593999997E+02  0.45594000000E+02  0.51100000000E-03 0. -1.
         11   -1    0    0    0    0 -0.00000000000E+00 -0.00000000000E+00 -0.45593999997E+02  0.45594000000E+02  0.51100000000E-03 0.  1.
    9900012    2    1    2    0    0 -0.17420494039E+02 -0.35933064031E+02 -0.16998952946E+02  0.47787272996E+02  0.20000008897E+02 0.  0.
         12    1    1    2    0    0  0.17420494039E+02  0.35933064031E+02  0.16998952946E+02  0.43400727004E+02  0.00000000000E+00 0. -1.
         11    1    3    3    0    0  0.14296827300E+01 -0.42332608237E+01  0.28569839593E+01  0.53034750414E+01  0.51100000000E-03 0. -1.
        -11    1    3    3    0    0 -0.12409951265E+02 -0.24436608789E+02 -0.17422762892E+02  0.32476259122E+02  0.51100000000E-03 0.  1.
         12    1    3    3    0    0 -0.64402255042E+01 -0.72631944184E+01 -0.24331740134E+01  0.10007538832E+02  0.00000000000E+00 0. -1.
</event>
<event>
 7    1  0.5317846E-010  0.4778727E+02  0.7816164E-02  0.1312668E+00
        -11   -1    0    0    0    0  0.00000000000E+00  0.00000000000E+00  0.45593999997E+02  0.45594000000E+02  0.51100000000E-03 0. -1.
         11   -1    0    0    0    0 -0.00000000000E+00 -0.00000000000E+00 -0.45593999997E+02  0.45594000000E+02  0.51100000000E-03 0.  1.
    9900012    2    1    2    0    0  0.27413601221E+02  0.25816904503E+02 -0.21577884039E+02  0.47787272246E+02  0.20000005479E+02 0.  0.
         12    1    1    2    0    0 -0.27413601221E+02 -0.25816904503E+02  0.21577884039E+02  0.43400727754E+02  0.00000000000E+00 0. -1.
         11    1    3    3    0    0  0.83284529013E+01 -0.69135350138E-01 -0.95623190934E+01  0.12680924814E+02  0.51100000000E-03 0. -1.
        -11    1    3    3    0    0  0.91852106309E+01  0.18427679286E+02 -0.76395050679E+01  0.21961545850E+02  0.51100000000E-03 0.  1.
         12    1    3    3    0    0  0.98999376884E+01  0.74583605667E+01 -0.43760598776E+01  0.13144801582E+02  0.00000000000E+00 0. -1.
</event>
<event>
 7    1  0.5317846E-010  0.4778727E+02  0.7816164E-02  0.1312668E+00
        -11   -1    0    0    0    0  0.00000000000E+00  0.00000000000E+00  0.45593999997E+02  0.45594000000E+02  0.51100000000E-03 0. -1.
         11   -1    0    0    0    0 -0.00000000000E+00 -0.00000000000E+00 -0.45593999997E+02  0.45594000000E+02  0.51100000000E-03 0.  1.
    9900012    2    1    2    0    0  0.29278024105E+02  0.87575051488E+01 -0.30817635360E+02  0.47787271422E+02  0.20000001723E+02 0.  0.
         12    1    1    2    0    0 -0.29278024105E+02 -0.87575051488E+01  0.30817635360E+02  0.43400728578E+02  0.00000000000E+00 0. -1.
         11    1    3    3    0    0  0.42324169555E+01  0.53254949815E+01 -0.31290146618E+01  0.74876553806E+01  0.51100000000E-03 0. -1.
        -11    1    3    3    0    0  0.94887956908E+01 -0.29845963477E+01 -0.29415031981E+01  0.10372921495E+02  0.51100000000E-03 0.  1.
        -12    1    3    3    0    0  0.15556811458E+02  0.64166065150E+01 -0.24747117500E+02  0.29926694546E+02  0.00000000000E+00 0.  1.
</event>
<event>
 7    1  0.5317846E-010  0.4778728E+02  0.7816164E-02  0.1312668E+00
        -11   -1    0    0    0    0  0.00000000000E+00  0.00000000000E+00  0.45593999997E+02  0.45594000000E+02  0.51100000000E-03 0. -1.
         11   -1    0    0    0    0 -0.00000000000E+00 -0.00000000000E+00 -0.45593999997E+02  0.45594000000E+02  0.51100000000E-03 0.  1.
    9900012    2    1    2    0    0 -0.40942419556E+02 -0.13289948543E+02  0.55424218257E+01  0.47787275454E+02  0.20000020105E+02 0.  0.
         12    1    1    2    0    0  0.40942419556E+02  0.13289948543E+02 -0.55424218257E+01  0.43400724546E+02  0.00000000000E+00 0. -1.
         11    1    3    3    0    0 -0.93926607792E+00 -0.55441743040E+01  0.25700634786E+01  0.61826625351E+01  0.51100000000E-03 0. -1.
        -11    1    3    3    0    0 -0.28238648954E+02 -0.52364852586E+01  0.56755584892E+01  0.29275485257E+02  0.51100000000E-03 0.  1.
         12    1    3    3    0    0 -0.11764504524E+02 -0.25092889807E+01 -0.27032001421E+01  0.12329127662E+02  0.00000000000E+00 0. -1.
</event>
<event>
 7    1  0.5317846E-010  0.4778727E+02  0.7816164E-02  0.1312668E+00
        -11   -1    0    0    0    0  0.00000000000E+00  0.00000000000E+00  0.45593999997E+02  0.45594000000E+02  0.51100000000E-03 0. -1.
         11   -1    0    0    0    0 -0.00000000000E+00 -0.00000000000E+00 -0.45593999997E+02  0.45594000000E+02  0.51100000000E-03 0.  1.
    9900012    2    1    2    0    0  0.21570825364E+02  0.29765089804E+02 -0.23072979705E+02  0.47787268780E+02  0.19999989676E+02 0.  0.
         12    1    1    2    0    0 -0.21570825364E+02 -0.29765089804E+02  0.23072979705E+02  0.43400731220E+02  0.00000000000E+00 0. -1.
         11    1    3    3    0    0  0.10319336987E+02  0.19158033267E+02 -0.46027086040E+01  0.22241939692E+02  0.51100000000E-03 0. -1.
        -11    1    3    3    0    0  0.66134668207E+01  0.11140505129E+02 -0.14137580727E+02  0.19176026361E+02  0.51100000000E-03 0.  1.
         12    1    3    3    0    0  0.46380215561E+01 -0.53344859148E+00 -0.43326903742E+01  0.63693027274E+01  0.00000000000E+00 0. -1.
</event>
<event>
 7    1  0.6218748E-010  0.4778727E+02  0.7816164E-02  0.1312668E+00
        -11   -1    0    0    0    0  0.00000000000E+00  0.00000000000E+00  0.45593999997E+02  0.45594000000E+02  0.51100000000E-03 0. -1.
         11   -1    0    0    0    0 -0.00000000000E+00 -0.00000000000E+00 -0.45593999997E+02  0.45594000000E+02  0.51100000000E-03 0.  1.
    9900012    2    1    2    0    0 -0.30732639759E+02  0.42720289269E+01 -0.30345969677E+02  0.47787271281E+02  0.20000001079E+02 0.  0.
         12    1    1    2    0    0  0.30732639759E+02 -0.42720289269E+01  0.30345969677E+02  0.43400728719E+02  0.00000000000E+00 0. -1.
         11    1    3    3    0    0 -0.58271119480E+01  0.38070628383E+01 -0.45486848699E+00  0.69753757398E+01  0.51100000000E-03 0. -1.
        -11    1    3    3    0    0 -0.23775139443E+02  0.37982687374E+01 -0.27532814591E+02  0.36575127895E+02  0.51100000000E-03 0.  1.
         12    1    3    3    0    0 -0.11303883679E+01 -0.33333026488E+01 -0.23582865987E+01  0.42367676467E+01  0.00000000000E+00 0. -1.
</event>
<event>
 7    1  0.5317846E-010  0.4778729E+02  0.7816164E-02  0.1312668E+00
        -11   -1    0    0    0    0  0.00000000000E+00  0.00000000000E+00  0.45593999997E+02  0.45594000000E+02  0.51100000000E-03 0.  1.
         11   -1    0    0    0    0 -0.00000000000E+00 -0.00000000000E+00 -0.45593999997E+02  0.45594000000E+02  0.51100000000E-03 0. -1.
    9900012    2    1    2    0    0  0.28760454290E+02  0.18988038665E+02  0.26380156597E+02  0.47787285658E+02  0.20000066628E+02 0.  0.
         12    1    1    2    0    0 -0.28760454290E+02 -0.18988038665E+02 -0.26380156597E+02  0.43400714342E+02  0.00000000000E+00 0. -1.
         11    1    3    3    0    0  0.12957873733E+02  0.54030934158E+01  0.23876917528E+01  0.14240820984E+02  0.51100000000E-03 0. -1.
        -11    1    3    3    0    0  0.17426537620E+02  0.12820344323E+02  0.22479487595E+02  0.31198923135E+02  0.51100000000E-03 0.  1.
         12    1    3    3    0    0 -0.16239570628E+01  0.76460092653E+00  0.15129772496E+01  0.23475415388E+01  0.00000000000E+00 0. -1.
</event>
<event>
 7    1  0.5317846E-010  0.4778726E+02  0.7816164E-02  0.1312668E+00
        -11   -1    0    0    0    0  0.00000000000E+00  0.00000000000E+00  0.45593999997E+02  0.45594000000E+02  0.51100000000E-03 0.  1.
         11   -1    0    0    0    0 -0.00000000000E+00 -0.00000000000E+00 -0.45593999997E+02  0.45594000000E+02  0.51100000000E-03 0. -1.
    9900012    2    1    2    0    0  0.82741986638E+01 -0.26519819904E+02  0.33344574088E+02  0.47787264610E+02  0.19999970663E+02 0.  0.
         12    1    1    2    0    0 -0.82741986638E+01  0.26519819904E+02 -0.33344574088E+02  0.43400735390E+02  0.00000000000E+00 0. -1.
         11    1    3    3    0    0 -0.23561122827E+01 -0.64591868696E+01  0.13226348013E+01  0.70015514840E+01  0.51100000000E-03 0. -1.
        -11    1    3    3    0    0  0.41058968054E+01 -0.16383137536E+02  0.26716319553E+02  0.31607393357E+02  0.51100000000E-03 0.  1.
         12    1    3    3    0    0  0.65244141411E+01 -0.36774954982E+01  0.53056197341E+01  0.91783197693E+01  0.00000000000E+00 0. -1.
</event>
<event>
 7    1  0.5317846E-010  0.4778727E+02  0.7816164E-02  0.1312668E+00
        -11   -1    0    0    0    0  0.00000000000E+00  0.00000000000E+00  0.45593999997E+02  0.45594000000E+02  0.51100000000E-03 0.  1.
         11   -1    0    0    0    0 -0.00000000000E+00 -0.00000000000E+00 -0.45593999997E+02  0.45594000000E+02  0.51100000000E-03 0. -1.
    9900012    2    1    2    0    0 -0.38885665052E+02 -0.17717316141E+02 -0.75911378818E+01  0.47787267148E+02  0.19999982234E+02 0.  0.
         12    1    1    2    0    0  0.38885665052E+02  0.17717316141E+02  0.75911378818E+01  0.43400732852E+02  0.00000000000E+00 0. -1.
         11    1    3    3    0    0 -0.18137262046E+02 -0.64510757288E+01 -0.84096238532E+01  0.21007104184E+02  0.51100000000E-03 0. -1.
        -11    1    3    3    0    0 -0.10491879033E+02  0.37936400396E+00  0.34276124100E+01  0.11044092076E+02  0.51100000000E-03 0.  1.
        -12    1    3    3    0    0 -0.10256523973E+02 -0.11645604416E+02 -0.26091264386E+01  0.15736070888E+02  0.00000000000E+00 0.  1.
</event>
<event>
 7    1  0.5317846E-010  0.4778727E+02  0.7816164E-02  0.1312668E+00
        -11   -1    0    0    0    0  0.00000000000E+00  0.00000000000E+00  0.45593999997E+02  0.45594000000E+02  0.51100000000E-03 0.  1.
         11   -1    0    0    0    0 -0.00000000000E+00 -0.00000000000E+00 -0.45593999997E+02  0.45594000000E+02  0.51100000000E-03 0. -1.
    9900012    2    1    2    0    0 -0.38666380798E+02 -0.64547288278E+01 -0.18624476331E+02  0.47787266747E+02  0.19999980406E+02 0.  0.
         12    1    1    2    0    0  0.38666380798E+02  0.64547288278E+01  0.18624476331E+02  0.43400733253E+02  0.00000000000E+00 0. -1.
         11    1    3    3    0    0 -0.20903854958E+02 -0.13731776830E+01 -0.15770047878E+02  0.26221197138E+02  0.51100000000E-03 0. -1.
        -11    1    3    3    0    0 -0.14876524448E+02 -0.26603077870E+01  0.21898405354E+01  0.15270350978E+02  0.51100000000E-03 0.  1.
        -12    1    3    3    0    0 -0.28860013927E+01 -0.24212433577E+01 -0.50442689891E+01  0.62957186302E+01  0.00000000000E+00 0.  1.
</event>
<event>
 7    1  0.5317846E-010  0.4778727E+02  0.7816164E-02  0.1312668E+00
        -11   -1    0    0    0    0  0.00000000000E+00  0.00000000000E+00  0.45593999997E+02  0.45594000000E+02  0.51100000000E-03 0. -1.
         11   -1    0    0    0    0 -0.00000000000E+00 -0.00000000000E+00 -0.45593999997E+02  0.45594000000E+02  0.51100000000E-03 0.  1.
    9900012    2    1    2    0    0  0.29640325296E+02 -0.13499990047E+01 -0.31674153522E+02  0.47787269795E+02  0.19999994306E+02 0.  0.
         12    1    1    2    0    0 -0.29640325296E+02  0.13499990047E+01  0.31674153522E+02  0.43400730205E+02  0.00000000000E+00 0. -1.
         11    1    3    3    0    0  0.21835496653E+02  0.71584451023E+01 -0.20185760074E+02  0.30585898064E+02  0.51100000000E-03 0. -1.
        -11    1    3    3    0    0  0.66360420505E+01 -0.59057928738E+01 -0.51936821999E+01  0.10290275925E+02  0.51100000000E-03 0.  1.
         12    1    3    3    0    0  0.11687865920E+01 -0.26026512332E+01 -0.62947112486E+01  0.69110958062E+01  0.00000000000E+00 0. -1.
</event>
<event>
 7    1  0.5317846E-010  0.4778727E+02  0.7816164E-02  0.1312668E+00
        -11   -1    0    0    0    0  0.00000000000E+00  0.00000000000E+00  0.45593999997E+02  0.45594000000E+02  0.51100000000E-03 0.  1.
         11   -1    0    0    0    0 -0.00000000000E+00 -0.00000000000E+00 -0.45593999997E+02  0.45594000000E+02  0.51100000000E-03 0. -1.
    9900012    2    1    2    0    0  0.20719060077E+02 -0.24966505798E+02  0.28827374616E+02  0.47787269712E+02  0.19999993925E+02 0.  0.
         12    1    1    2    0    0 -0.20719060077E+02  0.24966505798E+02 -0.28827374616E+02  0.43400730288E+02  0.00000000000E+00 0. -1.
         11    1    3    3    0    0  0.14808324376E+01  0.17956243002E+01  0.81470868227E+01  0.84730251560E+01  0.51100000000E-03 0. -1.
        -11    1    3    3    0    0  0.12059452572E+02 -0.20438114917E+02  0.16317254836E+02  0.28799301091E+02  0.51100000000E-03 0.  1.
        -12    1    3    3    0    0  0.71787750670E+01 -0.63240151819E+01  0.43630329577E+01  0.10514943465E+02  0.00000000000E+00 0.  1.
</event>
<event>
 7    1  0.5317846E-010  0.4778726E+02  0.7816164E-02  0.1312668E+00
        -11   -1    0    0    0    0  0.00000000000E+00  0.00000000000E+00  0.45593999997E+02  0.45594000000E+02  0.51100000000E-03 0.  1.
         11   -1    0    0    0    0 -0.00000000000E+00 -0.00000000000E+00 -0.45593999997E+02  0.45594000000E+02  0.51100000000E-03 0. -1.
    9900012    2    1    2    0    0  0.19063248756E+01 -0.25519098420E+02  0.35053754410E+02  0.47787260871E+02  0.19999953616E+02 0.  0.
         12    1    1    2    0    0 -0.19063248756E+01  0.25519098420E+02 -0.35053754410E+02  0.43400739129E+02  0.00000000000E+00 0. -1.
         11    1    3    3    0    0 -0.50784523310E+01  0.13521900726E+00  0.65550093582E+01  0.82931966217E+01  0.51100000000E-03 0. -1.
        -11    1    3    3    0    0  0.52422475841E+01 -0.17016059599E+02  0.23077118319E+02  0.29147569954E+02  0.51100000000E-03 0.  1.
        -12    1    3    3    0    0  0.17425296225E+01 -0.86382578280E+01  0.54216267321E+01  0.10346494296E+02  0.00000000000E+00 0.  1.
</event>
<event>
 7    1  0.5317846E-010  0.4778727E+02  0.7816164E-02  0.1312668E+00
        -11   -1    0    0    0    0  0.00000000000E+00  0.00000000000E+00  0.45593999997E+02  0.45594000000E+02  0.51100000000E-03 0. -1.
         11   -1    0    0    0    0 -0.00000000000E+00 -0.00000000000E+00 -0.45593999997E+02  0.45594000000E+02  0.51100000000E-03 0.  1.
    9900012    2    1    2    0    0  0.50044113276E+01 -0.39370681526E+02 -0.17564991979E+02  0.47787266829E+02  0.19999980780E+02 0.  0.
         12    1    1    2    0    0 -0.50044113276E+01  0.39370681526E+02  0.17564991979E+02  0.43400733171E+02  0.00000000000E+00 0. -1.
         11    1    3    3    0    0  0.32631390768E+01 -0.11669179262E+02 -0.12260438757E+02  0.17237638471E+02  0.51100000000E-03 0. -1.
        -11    1    3    3    0    0 -0.45284477235E+01 -0.17682450564E+02 -0.27743077573E+01  0.18462737623E+02  0.51100000000E-03 0.  1.
         12    1    3    3    0    0  0.62697199743E+01 -0.10019051700E+02 -0.25302454645E+01  0.12086890735E+02  0.00000000000E+00 0. -1.
</event>
<event>
 7    1  0.5317846E-010  0.4778728E+02  0.7816164E-02  0.1312668E+00
        -11   -1    0    0    0    0  0.00000000000E+00  0.00000000000E+00  0.45593999997E+02  0.45594000000E+02  0.51100000000E-03 0. -1.
         11   -1    0    0    0    0 -0.00000000000E+00 -0.00000000000E+00 -0.45593999997E+02  0.45594000000E+02  0.51100000000E-03 0.  1.
    9900012    2    1    2    0    0 -0.56135493721E+01  0.32261860476E+02 -0.28483031500E+02  0.47787278101E+02  0.20000032175E+02 0.  0.
         12    1    1    2    0    0  0.56135493721E+01 -0.32261860476E+02  0.28483031500E+02  0.43400721899E+02  0.00000000000E+00 0. -1.
         11    1    3    3    0    0 -0.59147498158E+01  0.23676953740E+02 -0.10737133242E+02  0.26662116089E+02  0.51100000000E-03 0. -1.
        -11    1    3    3    0    0 -0.61663683435E+00  0.68136585747E+01 -0.56702150538E+01  0.88858045880E+01  0.51100000000E-03 0.  1.
         12    1    3    3    0    0  0.91783727801E+00  0.17712481606E+01 -0.12075683204E+02  0.12239357425E+02  0.00000000000E+00 0. -1.
</event>
<event>
 7    1  0.5317846E-010  0.4778726E+02  0.7816164E-02  0.1312668E+00
        -11   -1    0    0    0    0  0.00000000000E+00  0.00000000000E+00  0.45593999997E+02  0.45594000000E+02  0.51100000000E-03 0.  1.
         11   -1    0    0    0    0 -0.00000000000E+00 -0.00000000000E+00 -0.45593999997E+02  0.45594000000E+02  0.51100000000E-03 0. -1.
    9900012    2    1    2    0    0 -0.19010684376E+02 -0.35443322860E+01  0.38854284953E+02  0.47787264165E+02  0.19999968633E+02 0.  0.
         12    1    1    2    0    0  0.19010684376E+02  0.35443322860E+01 -0.38854284953E+02  0.43400735835E+02  0.00000000000E+00 0. -1.
         11    1    3    3    0    0 -0.86082746578E+01  0.12805930661E+01  0.40868954187E+01  0.96148336236E+01  0.51100000000E-03 0. -1.
        -11    1    3    3    0    0 -0.12572311977E+02 -0.41617589765E+01  0.26881682017E+02  0.29966783187E+02  0.51100000000E-03 0.  1.
         12    1    3    3    0    0  0.21699022586E+01 -0.66316637562E+00  0.78857075171E+01  0.82056473540E+01  0.00000000000E+00 0. -1.
</event>
<event>
 7    1  0.5317846E-010  0.4778728E+02  0.7816164E-02  0.1312668E+00
        -11   -1    0    0    0    0  0.00000000000E+00  0.00000000000E+00  0.45593999997E+02  0.45594000000E+02  0.51100000000E-03 0.  1.
         11   -1    0    0    0    0 -0.00000000000E+00 -0.00000000000E+00 -0.45593999997E+02  0.45594000000E+02  0.51100000000E-03 0. -1.
    9900012    2    1    2    0    0  0.28065051929E+02  0.16495550392E+02  0.28703176365E+02  0.47787278164E+02  0.20000032460E+02 0.  0.
         12    1    1    2    0    0 -0.28065051929E+02 -0.16495550392E+02 -0.28703176365E+02  0.43400721836E+02  0.00000000000E+00 0. -1.
         11    1    3    3    0    0  0.48246101797E+01 -0.36090023535E+01  0.74937146024E+01  0.96154833563E+01  0.51100000000E-03 0. -1.
        -11    1    3    3    0    0  0.20348887416E+02  0.19800807224E+02  0.20884057365E+02  0.35246177638E+02  0.51100000000E-03 0.  1.
        -12    1    3    3    0    0  0.28915543326E+01  0.30374552083E+00  0.32540439743E+00  0.29256171694E+01  0.00000000000E+00 0.  1.
</event>
<event>
 7    1  0.5317846E-010  0.4778727E+02  0.7816164E-02  0.1312668E+00
        -11   -1    0    0    0    0  0.00000000000E+00  0.00000000000E+00  0.45593999997E+02  0.45594000000E+02  0.51100000000E-03 0.  1.
         11   -1    0    0    0    0 -0.00000000000E+00 -0.00000000000E+00 -0.45593999997E+02  0.45594000000E+02  0.51100000000E-03 0. -1.
    9900012    2    1    2    0    0  0.12891708922E+02  0.41441790200E+02  0.72248690740E-01  0.47787270124E+02  0.19999995804E+02 0.  0.
         12    1    1    2    0    0 -0.12891708922E+02 -0.41441790200E+02 -0.72248690740E-01  0.43400729876E+02  0.00000000000E+00 0. -1.
         11    1    3    3    0    0  0.64682152408E+01  0.42481658659E+01 -0.22601901290E+00  0.77418219097E+01  0.51100000000E-03 0. -1.
        -11    1    3    3    0    0 -0.34215323656E+01  0.19452752728E+02 -0.11717117092E+00  0.19751713895E+02  0.51100000000E-03 0.  1.
        -12    1    3    3    0    0  0.98450260463E+01  0.17740871606E+02  0.41543887456E+00  0.20293734320E+02  0.00000000000E+00 0.  1.
</event>
<event>
 7    1  0.5317846E-010  0.4778727E+02  0.7816164E-02  0.1312668E+00
        -11   -1    0    0    0    0  0.00000000000E+00  0.00000000000E+00  0.45593999997E+02  0.45594000000E+02  0.51100000000E-03 0.  1.
         11   -1    0    0    0    0 -0.00000000000E+00 -0.00000000000E+00 -0.45593999997E+02  0.45594000000E+02  0.51100000000E-03 0. -1.
    9900012    2    1    2    0    0 -0.98950580835E+01 -0.30519148927E+02  0.29228283269E+02  0.47787272257E+02  0.20000005531E+02 0.  0.
         12    1    1    2    0    0  0.98950580835E+01  0.30519148927E+02 -0.29228283269E+02  0.43400727743E+02  0.00000000000E+00 0. -1.
         11    1    3    3    0    0 -0.74487747525E+01 -0.57717996631E+01  0.13443475205E+02  0.16417214822E+02  0.51100000000E-03 0. -1.
        -11    1    3    3    0    0 -0.20895502686E+01 -0.20184685655E+02  0.17176994075E+02  0.26586404063E+02  0.51100000000E-03 0.  1.
         12    1    3    3    0    0 -0.35673306237E+00 -0.45626636096E+01 -0.13921860114E+01  0.47836533719E+01  0.00000000000E+00 0. -1.
</event>
<event>
 7    1  0.5317846E-010  0.4778727E+02  0.7816164E-02  0.1312668E+00
        -11   -1    0    0    0    0  0.00000000000E+00  0.00000000000E+00  0.45593999997E+02  0.45594000000E+02  0.51100000000E-03 0.  1.
         11   -1    0    0    0    0 -0.00000000000E+00 -0.00000000000E+00 -0.45593999997E+02  0.45594000000E+02  0.51100000000E-03 0. -1.
    9900012    2    1    2    0    0  0.15148371005E+02 -0.76207884357E+01  0.39950890737E+02  0.47787271536E+02  0.20000002241E+02 0.  0.
         12    1    1    2    0    0 -0.15148371005E+02  0.76207884357E+01 -0.39950890737E+02  0.43400728464E+02  0.00000000000E+00 0. -1.
         11    1    3    3    0    0  0.11723543569E+02  0.24687109336E+01  0.20221578885E+02  0.23504217926E+02  0.51100000000E-03 0. -1.
        -11    1    3    3    0    0  0.35336970195E+01  0.48793925196E+00  0.45532647719E+01  0.57842302585E+01  0.51100000000E-03 0.  1.
         12    1    3    3    0    0 -0.10886958306E+00 -0.10577438621E+02  0.15176047081E+02  0.18498823351E+02  0.00000000000E+00 0. -1.
</event>
<event>
 7    1  0.5317846E-010  0.4778727E+02  0.7816164E-02  0.1312668E+00
        -11   -1    0    0    0    0  0.00000000000E+00  0.00000000000E+00  0.45593999997E+02  0.45594000000E+02  0.51100000000E-03 0.  1.
         11   -1    0    0    0    0 -0.00000000000E+00 -0.00000000000E+00 -0.45593999997E+02  0.45594000000E+02  0.51100000000E-03 0. -1.
    9900012    2    1    2    0    0 -0.64431410972E+00  0.43377218758E+02  0.12748211737E+01  0.47787269397E+02  0.19999992489E+02 0.  0.
         12    1    1    2    0    0  0.64431410972E+00 -0.43377218758E+02 -0.12748211737E+01  0.43400730603E+02  0.00000000000E+00 0. -1.
         11    1    3    3    0    0 -0.54063318059E+01  0.73373345497E+01  0.56661192395E+01  0.10731719778E+02  0.51100000000E-03 0. -1.
        -11    1    3    3    0    0  0.54846645527E+01  0.27541808011E+02 -0.17929600975E+01  0.28139783935E+02  0.51100000000E-03 0.  1.
         12    1    3    3    0    0 -0.72264685659E+00  0.84980761972E+01 -0.25983379683E+01  0.89157656839E+01  0.00000000000E+00 0. -1.
</event>
<event>
 7    1  0.5317846E-010  0.4778726E+02  0.7816164E-02  0.1312668E+00
        -11   -1    0    0    0    0  0.00000000000E+00  0.00000000000E+00  0.45593999997E+02  0.45594000000E+02  0.51100000000E-03 0. -1.
         11   -1    0    0    0    0 -0.00000000000E+00 -0.00000000000E+00 -0.45593999997E+02  0.45594000000E+02  0.51100000000E-03 0.  1.
    9900012    2    1    2    0    0 -0.41268565914E+01  0.23296097399E+02 -0.36385226810E+02  0.47787264645E+02  0.19999970824E+02 0.  0.
         12    1    1    2    0    0  0.41268565914E+01 -0.23296097399E+02  0.36385226810E+02  0.43400735355E+02  0.00000000000E+00 0. -1.
         11    1    3    3    0    0 -0.81623047144E+00 -0.20296623379E+01 -0.11568804784E+02  0.11773827151E+02  0.51100000000E-03 0.  1.
        -11    1    3    3    0    0 -0.27684409693E+01  0.25281303240E+02 -0.24708785386E+02  0.35458886537E+02  0.51100000000E-03 0. -1.
         12    1    3    3    0    0 -0.54218515069E+00  0.44456496660E-01 -0.10763663877E+00  0.55455095684E+00  0.00000000000E+00 0. -1.
</event>
<event>
 7    1  0.5317846E-010  0.4778727E+02  0.7816164E-02  0.1312668E+00
        -11   -1    0    0    0    0  0.00000000000E+00  0.00000000000E+00  0.45593999997E+02  0.45594000000E+02  0.51100000000E-03 0. -1.
         11   -1    0    0    0    0 -0.00000000000E+00 -0.00000000000E+00 -0.45593999997E+02  0.45594000000E+02  0.51100000000E-03 0.  1.
    9900012    2    1    2    0    0  0.73889923846E+01 -0.42009962311E+02 -0.80118320500E+01  0.47787267349E+02  0.19999983151E+02 0.  0.
         12    1    1    2    0    0 -0.73889923846E+01  0.42009962311E+02  0.80118320500E+01  0.43400732651E+02  0.00000000000E+00 0. -1.
         11    1    3    3    0    0  0.78161157589E+01 -0.30336185631E+02  0.15653581188E+01  0.31366003420E+02  0.51100000000E-03 0. -1.
        -11    1    3    3    0    0 -0.11371509472E+01 -0.12291440672E+02 -0.84816582919E+01  0.14977020856E+02  0.51100000000E-03 0.  1.
         12    1    3    3    0    0  0.71002757286E+00  0.61766399233E+00 -0.10955318769E+01  0.14442430734E+01  0.00000000000E+00 0. -1.
</event>
<event>
 7    1  0.5317846E-010  0.4778728E+02  0.7816164E-02  0.1312668E+00
        -11   -1    0    0    0    0  0.00000000000E+00  0.00000000000E+00  0.45593999997E+02  0.45594000000E+02  0.51100000000E-03 0.  1.
         11   -1    0    0    0    0 -0.00000000000E+00 -0.00000000000E+00 -0.45593999997E+02  0.45594000000E+02  0.51100000000E-03 0. -1.
    9900012    2    1    2    0    0  0.40842567725E+02  0.17930517281E+01  0.14570257931E+02  0.47787276630E+02  0.20000025465E+02 0.  0.
         12    1    1    2    0    0 -0.40842567725E+02 -0.17930517281E+01 -0.14570257931E+02  0.43400723370E+02  0.00000000000E+00 0. -1.
         11    1    3    3    0    0 -0.17763114686E+01 -0.10330288964E+01  0.52347824418E+00  0.21204859980E+01  0.51100000000E-03 0. -1.
        -11    1    3    3    0    0  0.26168976614E+02 -0.21055988932E+01  0.92620554139E+01  0.27839442424E+02  0.51100000000E-03 0.  1.
         12    1    3    3    0    0  0.16449902580E+02  0.49316795177E+01  0.47847242726E+01  0.17827348207E+02  0.00000000000E+00 0. -1.
</event>
<event>
 7    1  0.5317846E-010  0.4778727E+02  0.7816164E-02  0.1312668E+00
        -11   -1    0    0    0    0  0.00000000000E+00  0.00000000000E+00  0.45593999997E+02  0.45594000000E+02  0.51100000000E-03 0.  1.
         11   -1    0    0    0    0 -0.00000000000E+00 -0.00000000000E+00 -0.45593999997E+02  0.45594000000E+02  0.51100000000E-03 0. -1.
    9900012    2    1    2    0    0 -0.39729295708E+01 -0.44058545385E+01  0.42993344985E+02  0.47787269170E+02  0.19999991452E+02 0.  0.
         12    1    1    2    0    0  0.39729295708E+01  0.44058545385E+01 -0.42993344985E+02  0.43400730830E+02  0.00000000000E+00 0. -1.
         11    1    3    3    0    0 -0.73888272755E+01 -0.28634064079E+01  0.80990091602E+01  0.11330834674E+02  0.51100000000E-03 0. -1.
        -11    1    3    3    0    0  0.61235963322E+00  0.12541635038E+01  0.30535716598E+02  0.30567595568E+02  0.51100000000E-03 0.  1.
         12    1    3    3    0    0  0.28035380715E+01 -0.27966116343E+01  0.43586192274E+01  0.58888389281E+01  0.00000000000E+00 0. -1.
</event>
<event>
 7    1  0.5317846E-010  0.4778727E+02  0.7816164E-02  0.1312668E+00
        -11   -1    0    0    0    0  0.00000000000E+00  0.00000000000E+00  0.45593999997E+02  0.45594000000E+02  0.51100000000E-03 0. -1.
         11   -1    0    0    0    0 -0.00000000000E+00 -0.00000000000E+00 -0.45593999997E+02  0.45594000000E+02  0.51100000000E-03 0.  1.
    9900012    2    1    2    0    0  0.35802616195E+02 -0.62759336299E+01 -0.23715155880E+02  0.47787270884E+02  0.19999999271E+02 0.  0.
         12    1    1    2    0    0 -0.35802616195E+02  0.62759336299E+01  0.23715155880E+02  0.43400729116E+02  0.00000000000E+00 0. -1.
         11    1    3    3    0    0  0.79527898792E+00  0.17403662135E+01 -0.48821936238E+01  0.52437732662E+01  0.51100000000E-03 0. -1.
        -11    1    3    3    0    0  0.31676648275E+02 -0.92140950610E+01 -0.12480333755E+02  0.35271352747E+02  0.51100000000E-03 0.  1.
        -12    1    3    3    0    0  0.33306889324E+01  0.11977952176E+01 -0.63526285018E+01  0.72721448714E+01  0.00000000000E+00 0.  1.
</event>
<event>
 7    1  0.5317846E-010  0.4778727E+02  0.7816164E-02  0.1312668E+00
        -11   -1    0    0    0    0  0.00000000000E+00  0.00000000000E+00  0.45593999997E+02  0.45594000000E+02  0.51100000000E-03 0.  1.
         11   -1    0    0    0    0 -0.00000000000E+00 -0.00000000000E+00 -0.45593999997E+02  0.45594000000E+02  0.51100000000E-03 0. -1.
    9900012    2    1    2    0    0 -0.36630756414E+02  0.19375182591E+02  0.12900126575E+02  0.47787270956E+02  0.19999999597E+02 0.  0.
         12    1    1    2    0    0  0.36630756414E+02 -0.19375182591E+02 -0.12900126575E+02  0.43400729044E+02  0.00000000000E+00 0. -1.
         11    1    3    3    0    0  0.58449937033E+00  0.59958420159E+00  0.85637111377E-01  0.84170939443E+00  0.51100000000E-03 0. -1.
        -11    1    3    3    0    0 -0.19106201549E+02  0.17603039157E+02  0.25682584578E+01  0.26105744137E+02  0.51100000000E-03 0.  1.
        -12    1    3    3    0    0 -0.18109054235E+02  0.11725592321E+01  0.10246231006E+02  0.20839817425E+02  0.00000000000E+00 0.  1.
</event>
<event>
 7    1  0.5317846E-010  0.4778728E+02  0.7816164E-02  0.1312668E+00
        -11   -1    0    0    0    0  0.00000000000E+00  0.00000000000E+00  0.45593999997E+02  0.45594000000E+02  0.51100000000E-03 0.  1.
         11   -1    0    0    0    0 -0.00000000000E+00 -0.00000000000E+00 -0.45593999997E+02  0.45594000000E+02  0.51100000000E-03 0. -1.
    9900012    2    1    2    0    0 -0.37298716975E+01  0.41012849561E+02  0.13698798591E+02  0.47787275872E+02  0.20000022012E+02 0.  0.
         12    1    1    2    0    0  0.37298716975E+01 -0.41012849561E+02 -0.13698798591E+02  0.43400724128E+02  0.00000000000E+00 0. -1.
         11    1    3    3    0    0 -0.45665404352E+01  0.21470312499E+02 -0.33674551853E+00  0.21953154857E+02  0.51100000000E-03 0. -1.
        -11    1    3    3    0    0 -0.18616318739E+01  0.10873193614E+02  0.12420456038E+02  0.16612036030E+02  0.51100000000E-03 0.  1.
         12    1    3    3    0    0  0.26983006117E+01  0.86693434478E+01  0.16150880712E+01  0.92220849857E+01  0.00000000000E+00 0. -1.
</event>
<event>
 7    1  0.5317846E-010  0.4778727E+02  0.7816164E-02  0.1312668E+00
        -11   -1    0    0    0    0  0.00000000000E+00  0.00000000000E+00  0.45593999997E+02  0.45594000000E+02  0.51100000000E-03 0.  1.
         11   -1    0    0    0    0 -0.00000000000E+00 -0.00000000000E+00 -0.45593999997E+02  0.45594000000E+02  0.51100000000E-03 0. -1.
    9900012    2    1    2    0    0 -0.29870429197E+02  0.20328780630E+02  0.24044154736E+02  0.47787271443E+02  0.20000001819E+02 0.  0.
         12    1    1    2    0    0  0.29870429197E+02 -0.20328780630E+02 -0.24044154736E+02  0.43400728557E+02  0.00000000000E+00 0. -1.
         11    1    3    3    0    0 -0.10843018094E+01 -0.64708469330E+00 -0.11785469985E+00  0.12681951765E+01  0.51100000000E-03 0. -1.
        -11    1    3    3    0    0 -0.45200688419E+01  0.88565155752E+01  0.14789467173E+02  0.17821257812E+02  0.51100000000E-03 0.  1.
        -12    1    3    3    0    0 -0.24266058545E+02  0.12119349748E+02  0.93725422630E+01  0.28697818455E+02  0.00000000000E+00 0.  1.
</event>
<event>
 7    1  0.5317846E-010  0.4778728E+02  0.7816164E-02  0.1312668E+00
        -11   -1    0    0    0    0  0.00000000000E+00  0.00000000000E+00  0.45593999997E+02  0.45594000000E+02  0.51100000000E-03 0.  1.
         11   -1    0    0    0    0 -0.00000000000E+00 -0.00000000000E+00 -0.45593999997E+02  0.45594000000E+02  0.51100000000E-03 0. -1.
    9900012    2    1    2    0    0  0.46458666853E+01  0.33020767250E+02  0.27778907173E+02  0.47787276149E+02  0.20000023275E+02 0.  0.
         12    1    1    2    0    0 -0.46458666853E+01 -0.33020767250E+02 -0.27778907173E+02  0.43400723851E+02  0.00000000000E+00 0. -1.
         11    1    3    3    0    0 -0.92728740396E+00  0.86640343686E+01 -0.72020172011E+00  0.87432284797E+01  0.51100000000E-03 0. -1.
        -11    1    3    3    0    0  0.29247724734E+01  0.58037524613E+01  0.13703397899E+02  0.15166441603E+02  0.51100000000E-03 0.  1.
        -12    1    3    3    0    0  0.26483816159E+01  0.18552980420E+02  0.14795710994E+02  0.23877606067E+02  0.00000000000E+00 0.  1.
</event>
<event>
 7    1  0.5317846E-010  0.4778727E+02  0.7816164E-02  0.1312668E+00
        -11   -1    0    0    0    0  0.00000000000E+00  0.00000000000E+00  0.45593999997E+02  0.45594000000E+02  0.51100000000E-03 0.  1.
         11   -1    0    0    0    0 -0.00000000000E+00 -0.00000000000E+00 -0.45593999997E+02  0.45594000000E+02  0.51100000000E-03 0. -1.
    9900012    2    1    2    0    0 -0.20500314258E+02 -0.30196816248E+02  0.23484307329E+02  0.47787270894E+02  0.19999999316E+02 0.  0.
         12    1    1    2    0    0  0.20500314258E+02  0.30196816248E+02 -0.23484307329E+02  0.43400729106E+02  0.00000000000E+00 0. -1.
         11    1    3    3    0    0 -0.11699289584E+02 -0.17091658484E+02  0.11966195375E+02  0.23920451470E+02  0.51100000000E-03 0.  1.
        -11    1    3    3    0    0  0.17710928638E+00 -0.88267964616E+00 -0.28420161960E+01  0.29811989830E+01  0.51100000000E-03 0. -1.
        -12    1    3    3    0    0 -0.89781339602E+01 -0.12222478117E+02  0.14360128150E+02  0.20885620441E+02  0.00000000000E+00 0.  1.
</event>
<event>
 7    1  0.6992904E-010  0.4778728E+02  0.7816164E-02  0.1312668E+00
        -11   -1    0    0    0    0  0.00000000000E+00  0.00000000000E+00  0.45593999997E+02  0.45594000000E+02  0.51100000000E-03 0.  1.
         11   -1    0    0    0    0 -0.00000000000E+00 -0.00000000000E+00 -0.45593999997E+02  0.45594000000E+02  0.51100000000E-03 0. -1.
    9900012    2    1    2    0    0 -0.43259849214E+02  0.17346676403E+01 -0.30329145433E+01  0.47787283457E+02  0.20000056592E+02 0.  0.
         12    1    1    2    0    0  0.43259849214E+02 -0.17346676403E+01  0.30329145433E+01  0.43400716543E+02  0.00000000000E+00 0. -1.
         11    1    3    3    0    0 -0.30204775127E+02  0.10694321984E+01 -0.61994221412E+01  0.30852957084E+02  0.51100000000E-03 0. -1.
        -11    1    3    3    0    0 -0.12037222764E+02 -0.83157181823E+00 -0.12798924231E+01  0.12133604923E+02  0.51100000000E-03 0.  1.
         12    1    3    3    0    0 -0.10178513238E+01  0.14968072601E+01  0.44464000210E+01  0.48007214497E+01  0.00000000000E+00 0. -1.
</event>
<event>
 7    1  0.5317846E-010  0.4778727E+02  0.7816164E-02  0.1312668E+00
        -11   -1    0    0    0    0  0.00000000000E+00  0.00000000000E+00  0.45593999997E+02  0.45594000000E+02  0.51100000000E-03 0.  1.
         11   -1    0    0    0    0 -0.00000000000E+00 -0.00000000000E+00 -0.45593999997E+02  0.45594000000E+02  0.51100000000E-03 0. -1.
    9900012    2    1    2    0    0 -0.89000853389E+01  0.36699367101E+02  0.21390841630E+02  0.47787272238E+02  0.20000005440E+02 0.  0.
         12    1    1    2    0    0  0.89000853389E+01 -0.36699367101E+02 -0.21390841630E+02  0.43400727762E+02  0.00000000000E+00 0. -1.
         11    1    3    3    0    0 -0.51715204594E+01  0.48998658232E+01  0.79406129443E+01  0.10668019645E+02  0.51100000000E-03 0. -1.
        -11    1    3    3    0    0 -0.48358828327E+01  0.32235752711E+02  0.14361819032E+02  0.35620097723E+02  0.51100000000E-03 0.  1.
        -12    1    3    3    0    0  0.11073179532E+01 -0.43625143315E+00 -0.91159034681E+00  0.14991548695E+01  0.00000000000E+00 0.  1.
</event>
<event>
 7    1  0.5317846E-010  0.4778723E+02  0.7816164E-02  0.1312668E+00
        -11   -1    0    0    0    0  0.00000000000E+00  0.00000000000E+00  0.45593999997E+02  0.45594000000E+02  0.51100000000E-03 0.  1.
         11   -1    0    0    0    0 -0.00000000000E+00 -0.00000000000E+00 -0.45593999997E+02  0.45594000000E+02  0.51100000000E-03 0. -1.
    9900012    2    1    2    0    0  0.27893127205E+02  0.18042449062E+02  0.27929739242E+02  0.47787229874E+02  0.19999812285E+02 0.  0.
         12    1    1    2    0    0 -0.27893127205E+02 -0.18042449062E+02 -0.27929739242E+02  0.43400770126E+02  0.00000000000E+00 0. -1.
         11    1    3    3    0    0  0.59494926382E+01  0.18347514885E+01  0.25468449848E+01  0.67267522114E+01  0.51100000000E-03 0. -1.
        -11    1    3    3    0    0  0.45997973920E+01 -0.36724131671E+01  0.49546179052E+01  0.76936982892E+01  0.51100000000E-03 0.  1.
        -12    1    3    3    0    0  0.17343837175E+02  0.19880110741E+02  0.20428276352E+02  0.33366779373E+02  0.00000000000E+00 0.  1.
</event>
<event>
 7    1  0.5317846E-010  0.4778727E+02  0.7816164E-02  0.1312668E+00
        -11   -1    0    0    0    0  0.00000000000E+00  0.00000000000E+00  0.45593999997E+02  0.45594000000E+02  0.51100000000E-03 0.  1.
         11   -1    0    0    0    0 -0.00000000000E+00 -0.00000000000E+00 -0.45593999997E+02  0.45594000000E+02  0.51100000000E-03 0. -1.
    9900012    2    1    2    0    0  0.80944939634E+01 -0.24298182163E+02  0.35038558855E+02  0.47787273098E+02  0.20000009365E+02 0.  0.
         12    1    1    2    0    0 -0.80944939634E+01  0.24298182163E+02 -0.35038558855E+02  0.43400726902E+02  0.00000000000E+00 0. -1.
         11    1    3    3    0    0 -0.22221225078E+01  0.26180549917E+01  0.51743823574E+01  0.62101749912E+01  0.51100000000E-03 0. -1.
        -11    1    3    3    0    0  0.68088215865E+01 -0.14661862666E+02  0.16031434135E+02  0.22767018885E+02  0.51100000000E-03 0.  1.
         12    1    3    3    0    0  0.35077948847E+01 -0.12254374489E+02  0.13832742362E+02  0.18810079222E+02  0.00000000000E+00 0. -1.
</event>
<event>
 7    1  0.5317846E-010  0.4778727E+02  0.7816164E-02  0.1312668E+00
        -11   -1    0    0    0    0  0.00000000000E+00  0.00000000000E+00  0.45593999997E+02  0.45594000000E+02  0.51100000000E-03 0.  1.
         11   -1    0    0    0    0 -0.00000000000E+00 -0.00000000000E+00 -0.45593999997E+02  0.45594000000E+02  0.51100000000E-03 0. -1.
    9900012    2    1    2    0    0  0.74171960496E+01 -0.63344721736E+01  0.42290463628E+02  0.47787266725E+02  0.19999980305E+02 0.  0.
         12    1    1    2    0    0 -0.74171960496E+01  0.63344721736E+01 -0.42290463628E+02  0.43400733275E+02  0.00000000000E+00 0. -1.
         11    1    3    3    0    0  0.10045266794E+02  0.36545331122E+01  0.26141704666E+02  0.28242728628E+02  0.51100000000E-03 0. -1.
        -11    1    3    3    0    0 -0.29159172883E+01 -0.63897868498E+01  0.12896444204E+02  0.14685033980E+02  0.51100000000E-03 0.  1.
         12    1    3    3    0    0  0.28784654408E+00 -0.35992184360E+01  0.32523147572E+01  0.48595041170E+01  0.00000000000E+00 0. -1.
</event>
<event>
 7    1  0.5317846E-010  0.4778727E+02  0.7816164E-02  0.1312668E+00
        -11   -1    0    0    0    0  0.00000000000E+00  0.00000000000E+00  0.45593999997E+02  0.45594000000E+02  0.51100000000E-03 0. -1.
         11   -1    0    0    0    0 -0.00000000000E+00 -0.00000000000E+00 -0.45593999997E+02  0.45594000000E+02  0.51100000000E-03 0.  1.
    9900012    2    1    2    0    0 -0.74584242815E+01 -0.38468089591E+02 -0.18660164364E+02  0.47787265632E+02  0.19999975323E+02 0.  0.
         12    1    1    2    0    0  0.74584242815E+01  0.38468089591E+02  0.18660164364E+02  0.43400734368E+02  0.00000000000E+00 0. -1.
         11    1    3    3    0    0 -0.52187054227E+01 -0.21721592484E+02 -0.33188472350E+01  0.22584889054E+02  0.51100000000E-03 0. -1.
        -11    1    3    3    0    0 -0.50032109018E+01 -0.15076184820E+02 -0.94471775253E+01  0.18481683676E+02  0.51100000000E-03 0.  1.
         12    1    3    3    0    0  0.27634920430E+01 -0.16703122866E+01 -0.58941396042E+01  0.67206929018E+01  0.00000000000E+00 0. -1.
</event>
<event>
 7    1  0.5317846E-010  0.4778727E+02  0.7816164E-02  0.1312668E+00
        -11   -1    0    0    0    0  0.00000000000E+00  0.00000000000E+00  0.45593999997E+02  0.45594000000E+02  0.51100000000E-03 0. -1.
         11   -1    0    0    0    0 -0.00000000000E+00 -0.00000000000E+00 -0.45593999997E+02  0.45594000000E+02  0.51100000000E-03 0.  1.
    9900012    2    1    2    0    0  0.96913090701E+01  0.41197224920E+02  0.96172100044E+01  0.47787267969E+02  0.19999985976E+02 0.  0.
         12    1    1    2    0    0 -0.96913090701E+01 -0.41197224920E+02 -0.96172100044E+01  0.43400732031E+02  0.00000000000E+00 0. -1.
         11    1    3    3    0    0  0.37832101980E+01 -0.87251223288E-01  0.32568863357E+01  0.49927548551E+01  0.51100000000E-03 0. -1.
        -11    1    3    3    0    0  0.28748240215E+01  0.50175300893E+01  0.21007702604E+01  0.61525163388E+01  0.51100000000E-03 0.  1.
         12    1    3    3    0    0  0.30332748506E+01  0.36266946054E+02  0.42595534082E+01  0.36641996775E+02  0.00000000000E+00 0. -1.
</event>
<event>
 7    1  0.5317846E-010  0.4778727E+02  0.7816164E-02  0.1312668E+00
        -11   -1    0    0    0    0  0.00000000000E+00  0.00000000000E+00  0.45593999997E+02  0.45594000000E+02  0.51100000000E-03 0.  1.
         11   -1    0    0    0    0 -0.00000000000E+00 -0.00000000000E+00 -0.45593999997E+02  0.45594000000E+02  0.51100000000E-03 0. -1.
    9900012    2    1    2    0    0 -0.33355772485E+02 -0.24720429815E+02  0.12645784625E+02  0.47787273311E+02  0.20000010336E+02 0.  0.
         12    1    1    2    0    0  0.33355772485E+02  0.24720429815E+02 -0.12645784625E+02  0.43400726689E+02  0.00000000000E+00 0. -1.
         11    1    3    3    0    0 -0.61069107837E+01  0.20208619860E+01  0.23753646220E+01  0.68571568332E+01  0.51100000000E-03 0. -1.
        -11    1    3    3    0    0 -0.20080715575E+02 -0.21390487891E+02  0.12207885991E+02  0.31777674409E+02  0.51100000000E-03 0.  1.
        -12    1    3    3    0    0 -0.71681461265E+01 -0.53508039101E+01 -0.19374659884E+01  0.91524420693E+01  0.00000000000E+00 0.  1.
</event>
<event>
 7    1  0.5317846E-010  0.4778727E+02  0.7816164E-02  0.1312668E+00
        -11   -1    0    0    0    0  0.00000000000E+00  0.00000000000E+00  0.45593999997E+02  0.45594000000E+02  0.51100000000E-03 0.  1.
         11   -1    0    0    0    0 -0.00000000000E+00 -0.00000000000E+00 -0.45593999997E+02  0.45594000000E+02  0.51100000000E-03 0. -1.
    9900012    2    1    2    0    0  0.63010559330E+01  0.30859404712E+02  0.29859960896E+02  0.47787269249E+02  0.19999991813E+02 0.  0.
         12    1    1    2    0    0 -0.63010559330E+01 -0.30859404712E+02 -0.29859960896E+02  0.43400730751E+02  0.00000000000E+00 0. -1.
         11    1    3    3    0    0 -0.27253079456E+01  0.46401439810E+00  0.44576655020E+01  0.52453212245E+01  0.51100000000E-03 0. -1.
        -11    1    3    3    0    0  0.11018630494E+02  0.23581382252E+02  0.23788265307E+02  0.35261499875E+02  0.51100000000E-03 0.  1.
        -12    1    3    3    0    0 -0.19922666150E+01  0.68140080618E+01  0.16140300871E+01  0.72804481492E+01  0.00000000000E+00 0.  1.
</event>
<event>
 7    1  0.5317846E-010  0.4778727E+02  0.7816164E-02  0.1312668E+00
        -11   -1    0    0    0    0  0.00000000000E+00  0.00000000000E+00  0.45593999997E+02  0.45594000000E+02  0.51100000000E-03 0.  1.
         11   -1    0    0    0    0 -0.00000000000E+00 -0.00000000000E+00 -0.45593999997E+02  0.45594000000E+02  0.51100000000E-03 0. -1.
    9900012    2    1    2    0    0  0.21035281266E+02 -0.10437607400E+02  0.36499267920E+02  0.47787271148E+02  0.20000000473E+02 0.  0.
         12    1    1    2    0    0 -0.21035281266E+02  0.10437607400E+02 -0.36499267920E+02  0.43400728852E+02  0.00000000000E+00 0. -1.
         11    1    3    3    0    0  0.28528177258E+01 -0.96577600145E+01  0.79810656204E+01  0.12849447699E+02  0.51100000000E-03 0. -1.
        -11    1    3    3    0    0  0.14073952009E+02  0.16960354847E+01  0.15211122732E+02  0.20792568782E+02  0.51100000000E-03 0.  1.
        -12    1    3    3    0    0  0.41085115310E+01 -0.24758828699E+01  0.13307079567E+02  0.14145254667E+02  0.00000000000E+00 0.  1.
</event>
<event>
 7    1  0.5317846E-010  0.4778727E+02  0.7816164E-02  0.1312668E+00
        -11   -1    0    0    0    0  0.00000000000E+00  0.00000000000E+00  0.45593999997E+02  0.45594000000E+02  0.51100000000E-03 0.  1.
         11   -1    0    0    0    0 -0.00000000000E+00 -0.00000000000E+00 -0.45593999997E+02  0.45594000000E+02  0.51100000000E-03 0. -1.
    9900012    2    1    2    0    0 -0.12992599718E+02  0.40753115497E+02 -0.73484051459E+01  0.47787272721E+02  0.20000007646E+02 0.  0.
         12    1    1    2    0    0  0.12992599718E+02 -0.40753115497E+02  0.73484051459E+01  0.43400727279E+02  0.00000000000E+00 0. -1.
         11    1    3    3    0    0 -0.13036679377E+01 -0.15278619424E+01 -0.65403640899E-01  0.20095248453E+01  0.51100000000E-03 0.  1.
        -11    1    3    3    0    0 -0.68387282552E+01  0.38274522549E+02 -0.67724774071E+01  0.39466108638E+02  0.51100000000E-03 0. -1.
         12    1    3    3    0    0 -0.48502035250E+01  0.40064548901E+01 -0.51052409796E+00  0.63116392383E+01  0.00000000000E+00 0. -1.
</event>
<event>
 7    1  0.5317846E-010  0.4778727E+02  0.7816164E-02  0.1312668E+00
        -11   -1    0    0    0    0  0.00000000000E+00  0.00000000000E+00  0.45593999997E+02  0.45594000000E+02  0.51100000000E-03 0. -1.
         11   -1    0    0    0    0 -0.00000000000E+00 -0.00000000000E+00 -0.45593999997E+02  0.45594000000E+02  0.51100000000E-03 0.  1.
    9900012    2    1    2    0    0  0.15923735994E+02  0.36213189679E+02 -0.17851138520E+02  0.47787267043E+02  0.19999981756E+02 0.  0.
         12    1    1    2    0    0 -0.15923735994E+02 -0.36213189679E+02  0.17851138520E+02  0.43400732957E+02  0.00000000000E+00 0. -1.
         11    1    3    3    0    0 -0.20531478517E+01  0.93964419960E+01 -0.76701324911E+01  0.12302010851E+02  0.51100000000E-03 0. -1.
        -11    1    3    3    0    0  0.11369055664E+02  0.24459954633E+02 -0.78371943368E+01  0.28088546112E+02  0.51100000000E-03 0.  1.
         12    1    3    3    0    0  0.66078281817E+01  0.23567930495E+01 -0.23438116920E+01  0.73967100798E+01  0.00000000000E+00 0. -1.
</event>
<event>
 7    1  0.5317846E-010  0.4778727E+02  0.7816164E-02  0.1312668E+00
        -11   -1    0    0    0    0  0.00000000000E+00  0.00000000000E+00  0.45593999997E+02  0.45594000000E+02  0.51100000000E-03 0.  1.
         11   -1    0    0    0    0 -0.00000000000E+00 -0.00000000000E+00 -0.45593999997E+02  0.45594000000E+02  0.51100000000E-03 0. -1.
    9900012    2    1    2    0    0  0.23071571213E+02  0.15845682193E+02  0.33169866221E+02  0.47787273422E+02  0.20000010839E+02 0.  0.
         12    1    1    2    0    0 -0.23071571213E+02 -0.15845682193E+02 -0.33169866221E+02  0.43400726578E+02  0.00000000000E+00 0. -1.
         11    1    3    3    0    0  0.73851391158E+01  0.25738236592E+01  0.10785158665E+01  0.78948112533E+01  0.51100000000E-03 0. -1.
        -11    1    3    3    0    0  0.53965027701E+01  0.83490542276E+01  0.23793334996E+02  0.25786658161E+02  0.51100000000E-03 0.  1.
         12    1    3    3    0    0  0.10289929327E+02  0.49228043064E+01  0.82980153585E+01  0.14105804007E+02  0.00000000000E+00 0. -1.
</event>
<event>
 7    1  0.5317846E-010  0.4778728E+02  0.7816164E-02  0.1312668E+00
        -11   -1    0    0    0    0  0.00000000000E+00  0.00000000000E+00  0.45593999997E+02  0.45594000000E+02  0.51100000000E-03 0.  1.
         11   -1    0    0    0    0 -0.00000000000E+00 -0.00000000000E+00 -0.45593999997E+02  0.45594000000E+02  0.51100000000E-03 0. -1.
    9900012    2    1    2    0    0  0.11496253033E+02 -0.29473614625E+02  0.29711359872E+02  0.47787277675E+02  0.20000030233E+02 0.  0.
         12    1    1    2    0    0 -0.11496253033E+02  0.29473614625E+02 -0.29711359872E+02  0.43400722325E+02  0.00000000000E+00 0. -1.
         11    1    3    3    0    0 -0.12432951683E+01 -0.44387144500E+01 -0.10632628614E+01  0.47305916139E+01  0.51100000000E-03 0. -1.
        -11    1    3    3    0    0  0.85582827456E+01 -0.22739953594E+02  0.29301343703E+02  0.38064661250E+02  0.51100000000E-03 0.  1.
        -12    1    3    3    0    0  0.41812654555E+01 -0.22949465805E+01  0.14732790311E+01  0.49920248117E+01  0.00000000000E+00 0.  1.
</event>
<event>
 7    1  0.5317846E-010  0.4778728E+02  0.7816164E-02  0.1312668E+00
        -11   -1    0    0    0    0  0.00000000000E+00  0.00000000000E+00  0.45593999997E+02  0.45594000000E+02  0.51100000000E-03 0.  1.
         11   -1    0    0    0    0 -0.00000000000E+00 -0.00000000000E+00 -0.45593999997E+02  0.45594000000E+02  0.51100000000E-03 0. -1.
    9900012    2    1    2    0    0 -0.19085356467E+01 -0.39689373111E+02 -0.17456621996E+02  0.47787279986E+02  0.20000040768E+02 0.  0.
         12    1    1    2    0    0  0.19085356467E+01  0.39689373111E+02  0.17456621996E+02  0.43400720014E+02  0.00000000000E+00 0. -1.
         11    1    3    3    0    0  0.14549474415E+01 -0.16447802556E+02 -0.15506534985E+02  0.22651704317E+02  0.51100000000E-03 0. -1.
        -11    1    3    3    0    0 -0.53968609470E+01 -0.88380103036E+01  0.57588296414E+00  0.10371507878E+02  0.51100000000E-03 0.  1.
         12    1    3    3    0    0  0.20333778588E+01 -0.14403560251E+02 -0.25259699753E+01  0.14764067791E+02  0.00000000000E+00 0. -1.
</event>
<event>
 7    1  0.5317846E-010  0.4778727E+02  0.7816164E-02  0.1312668E+00
        -11   -1    0    0    0    0  0.00000000000E+00  0.00000000000E+00  0.45593999997E+02  0.45594000000E+02  0.51100000000E-03 0. -1.
         11   -1    0    0    0    0 -0.00000000000E+00 -0.00000000000E+00 -0.45593999997E+02  0.45594000000E+02  0.51100000000E-03 0.  1.
    9900012    2    1    2    0    0 -0.16772289296E+02  0.15755462528E+01 -0.39997892627E+02  0.47787269029E+02  0.19999990812E+02 0.  0.
         12    1    1    2    0    0  0.16772289296E+02 -0.15755462528E+01  0.39997892627E+02  0.43400730971E+02  0.00000000000E+00 0. -1.
         11    1    3    3    0    0  0.27432369455E+01  0.33863585313E+01 -0.14773031398E+02  0.15402442338E+02  0.51100000000E-03 0. -1.
        -11    1    3    3    0    0 -0.12389751115E+02 -0.26157095056E+00 -0.19540419221E+02  0.23138762622E+02  0.51100000000E-03 0.  1.
         12    1    3    3    0    0 -0.71257751258E+01 -0.15492413279E+01 -0.56844420079E+01  0.92460640695E+01  0.00000000000E+00 0. -1.
</event>
<event>
 7    1  0.5317846E-010  0.4778727E+02  0.7816164E-02  0.1312668E+00
        -11   -1    0    0    0    0  0.00000000000E+00  0.00000000000E+00  0.45593999997E+02  0.45594000000E+02  0.51100000000E-03 0. -1.
         11   -1    0    0    0    0 -0.00000000000E+00 -0.00000000000E+00 -0.45593999997E+02  0.45594000000E+02  0.51100000000E-03 0.  1.
    9900012    2    1    2    0    0  0.28431260282E+02  0.10519267400E+02 -0.31058523869E+02  0.47787268983E+02  0.19999990601E+02 0.  0.
         12    1    1    2    0    0 -0.28431260282E+02 -0.10519267400E+02  0.31058523869E+02  0.43400731017E+02  0.00000000000E+00 0. -1.
         11    1    3    3    0    0  0.42508207804E+01 -0.33888693913E+00 -0.63606563722E+01  0.76578241956E+01  0.51100000000E-03 0.  1.
        -11    1    3    3    0    0  0.87955881228E+01 -0.43373911351E+01 -0.56848536369E+01  0.11335470587E+02  0.51100000000E-03 0. -1.
        -12    1    3    3    0    0  0.15384851379E+02  0.15195545475E+02 -0.19013013860E+02  0.28793974201E+02  0.00000000000E+00 0.  1.
</event>
<event>
 7    1  0.5317846E-010  0.4778727E+02  0.7816164E-02  0.1312668E+00
        -11   -1    0    0    0    0  0.00000000000E+00  0.00000000000E+00  0.45593999997E+02  0.45594000000E+02  0.51100000000E-03 0.  1.
         11   -1    0    0    0    0 -0.00000000000E+00 -0.00000000000E+00 -0.45593999997E+02  0.45594000000E+02  0.51100000000E-03 0. -1.
    9900012    2    1    2    0    0 -0.26654546375E+02 -0.28187315158E+02 -0.19458513583E+02  0.47787270408E+02  0.19999997099E+02 0.  0.
         12    1    1    2    0    0  0.26654546375E+02  0.28187315158E+02  0.19458513583E+02  0.43400729592E+02  0.00000000000E+00 0. -1.
         11    1    3    3    0    0 -0.81347235888E+01 -0.58759943593E+01 -0.13485333432E+02  0.16809379989E+02  0.51100000000E-03 0. -1.
        -11    1    3    3    0    0 -0.64950979545E+01 -0.28536923948E+01  0.75767807994E+00  0.71346992969E+01  0.51100000000E-03 0.  1.
         12    1    3    3    0    0 -0.12024724832E+02 -0.19457628404E+02 -0.67308582304E+01  0.23843191122E+02  0.00000000000E+00 0. -1.
</event>
<event>
 7    1  0.5317846E-010  0.4778727E+02  0.7816164E-02  0.1312668E+00
        -11   -1    0    0    0    0  0.00000000000E+00  0.00000000000E+00  0.45593999997E+02  0.45594000000E+02  0.51100000000E-03 0.  1.
         11   -1    0    0    0    0 -0.00000000000E+00 -0.00000000000E+00 -0.45593999997E+02  0.45594000000E+02  0.51100000000E-03 0. -1.
    9900012    2    1    2    0    0 -0.37840470501E+02  0.21114861369E+02  0.24258680074E+01  0.47787269430E+02  0.19999992641E+02 0.  0.
         12    1    1    2    0    0  0.37840470501E+02 -0.21114861369E+02 -0.24258680074E+01  0.43400730570E+02  0.00000000000E+00 0. -1.
         11    1    3    3    0    0 -0.35732711076E+00  0.76999299982E+01 -0.11737545460E+01  0.77970702598E+01  0.51100000000E-03 0. -1.
        -11    1    3    3    0    0 -0.27765858295E+02  0.97010690664E+01  0.31119428649E+01  0.29575966874E+02  0.51100000000E-03 0.  1.
         12    1    3    3    0    0 -0.97172850958E+01  0.37138623042E+01  0.48767968856E+00  0.10414232297E+02  0.00000000000E+00 0. -1.
</event>
<event>
 7    1  0.5317846E-010  0.4778727E+02  0.7816164E-02  0.1312668E+00
        -11   -1    0    0    0    0  0.00000000000E+00  0.00000000000E+00  0.45593999997E+02  0.45594000000E+02  0.51100000000E-03 0. -1.
         11   -1    0    0    0    0 -0.00000000000E+00 -0.00000000000E+00 -0.45593999997E+02  0.45594000000E+02  0.51100000000E-03 0.  1.
    9900012    2    1    2    0    0  0.35225378463E+02  0.11657846735E+02 -0.22514229934E+02  0.47787271574E+02  0.20000002413E+02 0.  0.
         12    1    1    2    0    0 -0.35225378463E+02 -0.11657846735E+02  0.22514229934E+02  0.43400728426E+02  0.00000000000E+00 0. -1.
         11    1    3    3    0    0  0.52437994243E+01  0.44112771101E+01  0.27587723645E+01  0.73869901424E+01  0.51100000000E-03 0. -1.
        -11    1    3    3    0    0  0.23229870275E+02  0.70255640380E+01 -0.22512011798E+02  0.33102508946E+02  0.51100000000E-03 0.  1.
         12    1    3    3    0    0  0.67517087640E+01  0.22100558709E+00 -0.27609905006E+01  0.72977724853E+01  0.00000000000E+00 0. -1.
</event>
<event>
 7    1  0.5317846E-010  0.4778727E+02  0.7816164E-02  0.1312668E+00
        -11   -1    0    0    0    0  0.00000000000E+00  0.00000000000E+00  0.45593999997E+02  0.45594000000E+02  0.51100000000E-03 0.  1.
         11   -1    0    0    0    0 -0.00000000000E+00 -0.00000000000E+00 -0.45593999997E+02  0.45594000000E+02  0.51100000000E-03 0. -1.
    9900012    2    1    2    0    0  0.31776539513E+02 -0.18056072576E+02  0.23406258052E+02  0.47787272630E+02  0.20000007227E+02 0.  0.
         12    1    1    2    0    0 -0.31776539513E+02  0.18056072576E+02 -0.23406258052E+02  0.43400727370E+02  0.00000000000E+00 0. -1.
         11    1    3    3    0    0  0.25512061979E+02 -0.14069909291E+02  0.13011357107E+02  0.31908040803E+02  0.51100000000E-03 0. -1.
        -11    1    3    3    0    0  0.56649491549E+00 -0.20099473967E+01  0.95663562436E+01  0.97916279069E+01  0.51100000000E-03 0.  1.
        -12    1    3    3    0    0  0.56979826187E+01 -0.19762158883E+01  0.82854470126E+00  0.60876039196E+01  0.00000000000E+00 0.  1.
</event>
<event>
 7    1  0.5317846E-010  0.4778727E+02  0.7816164E-02  0.1312668E+00
        -11   -1    0    0    0    0  0.00000000000E+00  0.00000000000E+00  0.45593999997E+02  0.45594000000E+02  0.51100000000E-03 0.  1.
         11   -1    0    0    0    0 -0.00000000000E+00 -0.00000000000E+00 -0.45593999997E+02  0.45594000000E+02  0.51100000000E-03 0. -1.
    9900012    2    1    2    0    0 -0.67775017550E+01 -0.65411315108E+01  0.42366287525E+02  0.47787271318E+02  0.20000001249E+02 0.  0.
         12    1    1    2    0    0  0.67775017550E+01  0.65411315108E+01 -0.42366287525E+02  0.43400728682E+02  0.00000000000E+00 0. -1.
         11    1    3    3    0    0  0.14391763131E+01  0.38005691106E+01  0.13680503427E+02  0.14271360423E+02  0.51100000000E-03 0. -1.
        -11    1    3    3    0    0 -0.13801513842E+01 -0.12616027951E+01  0.17394426028E+02  0.17494642510E+02  0.51100000000E-03 0.  1.
         12    1    3    3    0    0 -0.68365266840E+01 -0.90800978263E+01  0.11291358069E+02  0.16021268385E+02  0.00000000000E+00 0. -1.
</event>
<event>
 7    1  0.5317846E-010  0.4778727E+02  0.7816164E-02  0.1312668E+00
        -11   -1    0    0    0    0  0.00000000000E+00  0.00000000000E+00  0.45593999997E+02  0.45594000000E+02  0.51100000000E-03 0.  1.
         11   -1    0    0    0    0 -0.00000000000E+00 -0.00000000000E+00 -0.45593999997E+02  0.45594000000E+02  0.51100000000E-03 0. -1.
    9900012    2    1    2    0    0 -0.37328997108E+01  0.77434542900E+00  0.43232967029E+02  0.47787267411E+02  0.19999983436E+02 0.  0.
         12    1    1    2    0    0  0.37328997108E+01 -0.77434542900E+00 -0.43232967029E+02  0.43400732589E+02  0.00000000000E+00 0. -1.
         11    1    3    3    0    0 -0.81246290939E+01  0.46172828170E+01  0.27811509265E+02  0.29339545776E+02  0.51100000000E-03 0. -1.
        -11    1    3    3    0    0 -0.37946937125E+00  0.11689602512E+00  0.10563334537E+02  0.10570794601E+02  0.51100000000E-03 0.  1.
         12    1    3    3    0    0  0.47711987543E+01 -0.39598334131E+01  0.48581232270E+01  0.78769270342E+01  0.00000000000E+00 0. -1.
</event>
<event>
 7    1  0.5317846E-010  0.4778727E+02  0.7816164E-02  0.1312668E+00
        -11   -1    0    0    0    0  0.00000000000E+00  0.00000000000E+00  0.45593999997E+02  0.45594000000E+02  0.51100000000E-03 0.  1.
         11   -1    0    0    0    0 -0.00000000000E+00 -0.00000000000E+00 -0.45593999997E+02  0.45594000000E+02  0.51100000000E-03 0. -1.
    9900012    2    1    2    0    0  0.18338112866E+02  0.26549994496E+02  0.29024729158E+02  0.47787268510E+02  0.19999988443E+02 0.  0.
         12    1    1    2    0    0 -0.18338112866E+02 -0.26549994496E+02 -0.29024729158E+02  0.43400731490E+02  0.00000000000E+00 0. -1.
         11    1    3    3    0    0  0.19776655147E+01 -0.68811170503E+00  0.16518986031E+01  0.26671010222E+01  0.51100000000E-03 0. -1.
        -11    1    3    3    0    0  0.15389263302E+02  0.14737419408E+02  0.96020638889E+01  0.23371362540E+02  0.51100000000E-03 0.  1.
        -12    1    3    3    0    0  0.97118404952E+00  0.12500686793E+02  0.17770766666E+02  0.21748804948E+02  0.00000000000E+00 0.  1.
</event>
<event>
 7    1  0.5317846E-010  0.4778730E+02  0.7816164E-02  0.1312668E+00
        -11   -1    0    0    0    0  0.00000000000E+00  0.00000000000E+00  0.45593999997E+02  0.45594000000E+02  0.51100000000E-03 0.  1.
         11   -1    0    0    0    0 -0.00000000000E+00 -0.00000000000E+00 -0.45593999997E+02  0.45594000000E+02  0.51100000000E-03 0. -1.
    9900012    2    1    2    0    0  0.13202557468E+02  0.73667850916E+01  0.40682230134E+02  0.47787298451E+02  0.20000124959E+02 0.  0.
         12    1    1    2    0    0 -0.13202557468E+02 -0.73667850916E+01 -0.40682230134E+02  0.43400701549E+02  0.00000000000E+00 0. -1.
         11    1    3    3    0    0  0.56257762093E+01 -0.44785908779E+01  0.44371530802E+01  0.84495835357E+01  0.51100000000E-03 0. -1.
        -11    1    3    3    0    0  0.71036811852E+01  0.78318343085E+01  0.30746042918E+02  0.32513367565E+02  0.51100000000E-03 0.  1.
        -12    1    3    3    0    0  0.47310007331E+00  0.40135416610E+01  0.54990341349E+01  0.68243473505E+01  0.00000000000E+00 0.  1.
</event>
<event>
 7    1  0.5317846E-010  0.4778727E+02  0.7816164E-02  0.1312668E+00
        -11   -1    0    0    0    0  0.00000000000E+00  0.00000000000E+00  0.45593999997E+02  0.45594000000E+02  0.51100000000E-03 0. -1.
         11   -1    0    0    0    0 -0.00000000000E+00 -0.00000000000E+00 -0.45593999997E+02  0.45594000000E+02  0.51100000000E-03 0.  1.
    9900012    2    1    2    0    0 -0.92103181851E+01  0.35832396843E+02 -0.22689925173E+02  0.47787270410E+02  0.19999997109E+02 0.  0.
         12    1    1    2    0    0  0.92103181851E+01 -0.35832396843E+02  0.22689925173E+02  0.43400729590E+02  0.00000000000E+00 0. -1.
         11    1    3    3    0    0 -0.61376843995E+01  0.26615943994E+02 -0.91188339172E+01  0.28796402149E+02  0.51100000000E-03 0. -1.
        -11    1    3    3    0    0  0.48092124535E+00 -0.16940244734E+01 -0.12866230177E+01  0.21809179745E+01  0.51100000000E-03 0.  1.
        -12    1    3    3    0    0 -0.35535550310E+01  0.10910477322E+02 -0.12284468238E+02  0.16809950287E+02  0.00000000000E+00 0.  1.
</event>
<event>
 7    1  0.5317846E-010  0.4778727E+02  0.7816164E-02  0.1312668E+00
        -11   -1    0    0    0    0  0.00000000000E+00  0.00000000000E+00  0.45593999997E+02  0.45594000000E+02  0.51100000000E-03 0. -1.
         11   -1    0    0    0    0 -0.00000000000E+00 -0.00000000000E+00 -0.45593999997E+02  0.45594000000E+02  0.51100000000E-03 0.  1.
    9900012    2    1    2    0    0 -0.41539796626E+02  0.12125347726E+02 -0.33233187775E+01  0.47787271793E+02  0.20000003411E+02 0.  0.
         12    1    1    2    0    0  0.41539796626E+02 -0.12125347726E+02  0.33233187775E+01  0.43400728207E+02  0.00000000000E+00 0. -1.
         11    1    3    3    0    0  0.61855358415E+00 -0.72021664830E+00 -0.19000043427E+01  0.21239908946E+01  0.51100000000E-03 0. -1.
        -11    1    3    3    0    0 -0.20559225910E+02  0.63988704112E+01  0.52359865620E+01  0.22159487090E+02  0.51100000000E-03 0.  1.
        -12    1    3    3    0    0 -0.21599124300E+02  0.64466939631E+01 -0.66593009967E+01  0.23503793808E+02  0.00000000000E+00 0.  1.
</event>
<event>
 7    1  0.5317846E-010  0.4778727E+02  0.7816164E-02  0.1312668E+00
        -11   -1    0    0    0    0  0.00000000000E+00  0.00000000000E+00  0.45593999997E+02  0.45594000000E+02  0.51100000000E-03 0.  1.
         11   -1    0    0    0    0 -0.00000000000E+00 -0.00000000000E+00 -0.45593999997E+02  0.45594000000E+02  0.51100000000E-03 0. -1.
    9900012    2    1    2    0    0 -0.38096629938E+02  0.31117891845E+01  0.20556925231E+02  0.47787267062E+02  0.19999981845E+02 0.  0.
         12    1    1    2    0    0  0.38096629938E+02 -0.31117891845E+01 -0.20556925231E+02  0.43400732938E+02  0.00000000000E+00 0. -1.
         11    1    3    3    0    0 -0.23790757909E+01  0.12318027697E+01 -0.25583587075E+01  0.37043945820E+01  0.51100000000E-03 0. -1.
        -11    1    3    3    0    0 -0.32796415032E+02  0.35265927005E+01  0.23780950484E+02  0.40664177124E+02  0.51100000000E-03 0.  1.
        -12    1    3    3    0    0 -0.29211391151E+01 -0.16466062857E+01 -0.66566654499E+00  0.34186953562E+01  0.00000000000E+00 0.  1.
</event>
<event>
 7    1  0.5317846E-010  0.4778727E+02  0.7816164E-02  0.1312668E+00
        -11   -1    0    0    0    0  0.00000000000E+00  0.00000000000E+00  0.45593999997E+02  0.45594000000E+02  0.51100000000E-03 0.  1.
         11   -1    0    0    0    0 -0.00000000000E+00 -0.00000000000E+00 -0.45593999997E+02  0.45594000000E+02  0.51100000000E-03 0. -1.
    9900012    2    1    2    0    0  0.40437351909E+02  0.86041119821E+01 -0.13206545861E+02  0.47787273900E+02  0.20000013022E+02 0.  0.
         12    1    1    2    0    0 -0.40437351909E+02 -0.86041119821E+01  0.13206545861E+02  0.43400726100E+02  0.00000000000E+00 0. -1.
         11    1    3    3    0    0  0.80965463602E+01  0.59066812634E+01  0.28297102076E+01  0.10413942895E+02  0.51100000000E-03 0. -1.
        -11    1    3    3    0    0  0.15073874718E+02  0.21463804785E+00 -0.24740294066E+01  0.15277060918E+02  0.51100000000E-03 0.  1.
         12    1    3    3    0    0  0.17266930830E+02  0.24827926709E+01 -0.13562226662E+02  0.22096270087E+02  0.00000000000E+00 0. -1.
</event>
<event>
 7    1  0.5317846E-010  0.4778727E+02  0.7816164E-02  0.1312668E+00
        -11   -1    0    0    0    0  0.00000000000E+00  0.00000000000E+00  0.45593999997E+02  0.45594000000E+02  0.51100000000E-03 0.  1.
         11   -1    0    0    0    0 -0.00000000000E+00 -0.00000000000E+00 -0.45593999997E+02  0.45594000000E+02  0.51100000000E-03 0. -1.
    9900012    2    1    2    0    0 -0.15629680090E+02 -0.17050315438E+02  0.36723602843E+02  0.47787272333E+02  0.20000005877E+02 0.  0.
         12    1    1    2    0    0  0.15629680090E+02  0.17050315438E+02 -0.36723602843E+02  0.43400727667E+02  0.00000000000E+00 0. -1.
         11    1    3    3    0    0 -0.25980963503E+01 -0.28411219837E+01  0.18705686091E+01  0.42803161045E+01  0.51100000000E-03 0.  1.
        -11    1    3    3    0    0 -0.48523955088E+01 -0.74869059135E+01  0.22121559800E+01  0.91920148321E+01  0.51100000000E-03 0. -1.
        -12    1    3    3    0    0 -0.81791882305E+01 -0.67222875403E+01  0.32640878254E+02  0.34314941397E+02  0.00000000000E+00 0.  1.
</event>
<event>
 7    1  0.5317846E-010  0.4778727E+02  0.7816164E-02  0.1312668E+00
        -11   -1    0    0    0    0  0.00000000000E+00  0.00000000000E+00  0.45593999997E+02  0.45594000000E+02  0.51100000000E-03 0.  1.
         11   -1    0    0    0    0 -0.00000000000E+00 -0.00000000000E+00 -0.45593999997E+02  0.45594000000E+02  0.51100000000E-03 0. -1.
    9900012    2    1    2    0    0 -0.89283860969E+01 -0.19895525150E+02  0.37524331160E+02  0.47787269266E+02  0.19999991890E+02 0.  0.
         12    1    1    2    0    0  0.89283860969E+01  0.19895525150E+02 -0.37524331160E+02  0.43400730734E+02  0.00000000000E+00 0. -1.
         11    1    3    3    0    0 -0.83792449242E+01 -0.11392643362E+02  0.27338612367E+02  0.30779925189E+02  0.51100000000E-03 0.  1.
        -11    1    3    3    0    0 -0.39845054550E+01 -0.43776428257E+01  0.50905848089E+00  0.59413114065E+01  0.51100000000E-03 0. -1.
        -12    1    3    3    0    0  0.34353642824E+01 -0.41252389625E+01  0.96766603124E+01  0.11066032670E+02  0.00000000000E+00 0.  1.
</event>
<event>
 7    1  0.5317846E-010  0.4778727E+02  0.7816164E-02  0.1312668E+00
        -11   -1    0    0    0    0  0.00000000000E+00  0.00000000000E+00  0.45593999997E+02  0.45594000000E+02  0.51100000000E-03 0.  1.
         11   -1    0    0    0    0 -0.00000000000E+00 -0.00000000000E+00 -0.45593999997E+02  0.45594000000E+02  0.51100000000E-03 0. -1.
    9900012    2    1    2    0    0 -0.95918990794E+01 -0.61912092367E+01  0.41872281346E+02  0.47787267922E+02  0.19999985763E+02 0.  0.
         12    1    1    2    0    0  0.95918990794E+01  0.61912092367E+01 -0.41872281346E+02  0.43400732078E+02  0.00000000000E+00 0. -1.
         11    1    3    3    0    0  0.33711329606E+01 -0.60880104131E+01  0.14640997219E+02  0.16210712756E+02  0.51100000000E-03 0. -1.
        -11    1    3    3    0    0 -0.18708777963E+01  0.27703588205E+01  0.20774355344E+01  0.39358366815E+01  0.51100000000E-03 0.  1.
         12    1    3    3    0    0 -0.11092154244E+02 -0.28735576441E+01  0.25153848593E+02  0.27640718485E+02  0.00000000000E+00 0. -1.
</event>
<event>
 7    1  0.5317846E-010  0.4778727E+02  0.7816164E-02  0.1312668E+00
        -11   -1    0    0    0    0  0.00000000000E+00  0.00000000000E+00  0.45593999997E+02  0.45594000000E+02  0.51100000000E-03 0.  1.
         11   -1    0    0    0    0 -0.00000000000E+00 -0.00000000000E+00 -0.45593999997E+02  0.45594000000E+02  0.51100000000E-03 0. -1.
    9900012    2    1    2    0    0  0.88866151186E+01 -0.42419929598E+02 -0.22805633032E+01  0.47787270463E+02  0.19999997351E+02 0.  0.
         12    1    1    2    0    0 -0.88866151186E+01  0.42419929598E+02  0.22805633032E+01  0.43400729537E+02  0.00000000000E+00 0. -1.
         11    1    3    3    0    0  0.37959762234E+00 -0.17073683084E+02 -0.85133419037E+01  0.19082236217E+02  0.51100000000E-03 0. -1.
        -11    1    3    3    0    0  0.15649034687E+01 -0.16259048013E+02  0.17708350383E+01  0.16429894161E+02  0.51100000000E-03 0.  1.
         12    1    3    3    0    0  0.69421140276E+01 -0.90871985009E+01  0.44619435621E+01  0.12275140086E+02  0.00000000000E+00 0. -1.
</event>
<event>
 7    1  0.5317846E-010  0.4778727E+02  0.7816164E-02  0.1312668E+00
        -11   -1    0    0    0    0  0.00000000000E+00  0.00000000000E+00  0.45593999997E+02  0.45594000000E+02  0.51100000000E-03 0.  1.
         11   -1    0    0    0    0 -0.00000000000E+00 -0.00000000000E+00 -0.45593999997E+02  0.45594000000E+02  0.51100000000E-03 0. -1.
    9900012    2    1    2    0    0 -0.20841957784E+02 -0.18000361087E+02  0.33544345402E+02  0.47787270605E+02  0.19999997997E+02 0.  0.
         12    1    1    2    0    0  0.20841957784E+02  0.18000361087E+02 -0.33544345402E+02  0.43400729395E+02  0.00000000000E+00 0. -1.
         11    1    3    3    0    0 -0.21038516621E+01  0.38059929348E+01  0.72522083589E+01  0.84561398036E+01  0.51100000000E-03 0. -1.
        -11    1    3    3    0    0 -0.12620054711E+02 -0.17239420319E+02  0.21538185919E+02  0.30337383651E+02  0.51100000000E-03 0.  1.
         12    1    3    3    0    0 -0.61180514110E+01 -0.45669337028E+01  0.47539511249E+01  0.89937471507E+01  0.00000000000E+00 0. -1.
</event>
<event>
 7    1  0.5317846E-010  0.4778727E+02  0.7816164E-02  0.1312668E+00
        -11   -1    0    0    0    0  0.00000000000E+00  0.00000000000E+00  0.45593999997E+02  0.45594000000E+02  0.51100000000E-03 0.  1.
         11   -1    0    0    0    0 -0.00000000000E+00 -0.00000000000E+00 -0.45593999997E+02  0.45594000000E+02  0.51100000000E-03 0. -1.
    9900012    2    1    2    0    0  0.37355729219E+02  0.21506455402E+02  0.50641225610E+01  0.47787268823E+02  0.19999989870E+02 0.  0.
         12    1    1    2    0    0 -0.37355729219E+02 -0.21506455402E+02 -0.50641225610E+01  0.43400731177E+02  0.00000000000E+00 0. -1.
         11    1    3    3    0    0  0.17582508018E+02  0.12289884041E+02 -0.46657490661E+01  0.21953474727E+02  0.51100000000E-03 0. -1.
        -11    1    3    3    0    0  0.11633904919E+02  0.97340899282E+01  0.90175457093E+01  0.17646993548E+02  0.51100000000E-03 0.  1.
        -12    1    3    3    0    0  0.81393162818E+01 -0.51751856799E+00  0.71232591770E+00  0.81868005482E+01  0.00000000000E+00 0.  1.
</event>
<event>
 7    1  0.5317846E-010  0.4778726E+02  0.7816164E-02  0.1312668E+00
        -11   -1    0    0    0    0  0.00000000000E+00  0.00000000000E+00  0.45593999997E+02  0.45594000000E+02  0.51100000000E-03 0.  1.
         11   -1    0    0    0    0 -0.00000000000E+00 -0.00000000000E+00 -0.45593999997E+02  0.45594000000E+02  0.51100000000E-03 0. -1.
    9900012    2    1    2    0    0 -0.35629498401E+02 -0.11431160011E+02  0.21988434439E+02  0.47787264700E+02  0.19999971074E+02 0.  0.
         12    1    1    2    0    0  0.35629498401E+02  0.11431160011E+02 -0.21988434439E+02  0.43400735300E+02  0.00000000000E+00 0. -1.
         11    1    3    3    0    0 -0.12535524340E+02 -0.40329233790E+01  0.25430135437E+01  0.13411590495E+02  0.51100000000E-03 0. -1.
        -11    1    3    3    0    0 -0.57547664654E+01 -0.34582541770E+01  0.14406684338E+02  0.15894320146E+02  0.51100000000E-03 0.  1.
        -12    1    3    3    0    0 -0.17339207595E+02 -0.39399824552E+01  0.50387365571E+01  0.18481354059E+02  0.00000000000E+00 0.  1.
</event>
<event>
 7    1  0.5317846E-010  0.4778727E+02  0.7816164E-02  0.1312668E+00
        -11   -1    0    0    0    0  0.00000000000E+00  0.00000000000E+00  0.45593999997E+02  0.45594000000E+02  0.51100000000E-03 0.  1.
         11   -1    0    0    0    0 -0.00000000000E+00 -0.00000000000E+00 -0.45593999997E+02  0.45594000000E+02  0.51100000000E-03 0. -1.
    9900012    2    1    2    0    0  0.18154794615E+02 -0.16059998308E+02  0.36001437470E+02  0.47787267137E+02  0.19999982183E+02 0.  0.
         12    1    1    2    0    0 -0.18154794615E+02  0.16059998308E+02 -0.36001437470E+02  0.43400732863E+02  0.00000000000E+00 0. -1.
         11    1    3    3    0    0 -0.31663869011E+01  0.13371881992E+00  0.45084803821E+01  0.55109239105E+01  0.51100000000E-03 0. -1.
        -11    1    3    3    0    0  0.15950011814E+02 -0.16317065527E+02  0.26004084320E+02  0.34595692013E+02  0.51100000000E-03 0.  1.
         12    1    3    3    0    0  0.53711697018E+01  0.12334839892E+00  0.54888727681E+01  0.76806512131E+01  0.00000000000E+00 0. -1.
</event>
<event>
 7    1  0.5317846E-010  0.4778728E+02  0.7816164E-02  0.1312668E+00
        -11   -1    0    0    0    0  0.00000000000E+00  0.00000000000E+00  0.45593999997E+02  0.45594000000E+02  0.51100000000E-03 0.  1.
         11   -1    0    0    0    0 -0.00000000000E+00 -0.00000000000E+00 -0.45593999997E+02  0.45594000000E+02  0.51100000000E-03 0. -1.
    9900012    2    1    2    0    0 -0.10038530749E+02  0.30847626857E+02  0.28831829337E+02  0.47787279208E+02  0.20000037223E+02 0.  0.
         12    1    1    2    0    0  0.10038530749E+02 -0.30847626857E+02 -0.28831829337E+02  0.43400720792E+02  0.00000000000E+00 0. -1.
         11    1    3    3    0    0 -0.38162718912E+01  0.45928769147E+01  0.47098144390E+01  0.76053140509E+01  0.51100000000E-03 0. -1.
        -11    1    3    3    0    0 -0.11162252979E+02  0.10970073809E+02  0.86621315684E+01  0.17887731397E+02  0.51100000000E-03 0.  1.
        -12    1    3    3    0    0  0.49399941217E+01  0.15284676133E+02  0.15459883330E+02  0.22294233761E+02  0.00000000000E+00 0.  1.
</event>
<event>
 7    1  0.5317846E-010  0.4778727E+02  0.7816164E-02  0.1312668E+00
        -11   -1    0    0    0    0  0.00000000000E+00  0.00000000000E+00  0.45593999997E+02  0.45594000000E+02  0.51100000000E-03 0.  1.
         11   -1    0    0    0    0 -0.00000000000E+00 -0.00000000000E+00 -0.45593999997E+02  0.45594000000E+02  0.51100000000E-03 0. -1.
    9900012    2    1    2    0    0  0.20499219003E+02  0.36887466547E+01  0.38076220381E+02  0.47787269705E+02  0.19999993893E+02 0.  0.
         12    1    1    2    0    0 -0.20499219003E+02 -0.36887466547E+01 -0.38076220381E+02  0.43400730295E+02  0.00000000000E+00 0. -1.
         11    1    3    3    0    0  0.17280352269E+02  0.82463418212E+01  0.27072367153E+02  0.33159098170E+02  0.51100000000E-03 0. -1.
        -11    1    3    3    0    0  0.53165696046E+01 -0.87617449861E+00  0.65349959050E+01  0.84699330489E+01  0.51100000000E-03 0.  1.
         12    1    3    3    0    0 -0.20977028705E+01 -0.36814206678E+01  0.44688573236E+01  0.61582384856E+01  0.00000000000E+00 0. -1.
</event>
<event>
 7    1  0.5317846E-010  0.4778726E+02  0.7816164E-02  0.1312668E+00
        -11   -1    0    0    0    0  0.00000000000E+00  0.00000000000E+00  0.45593999997E+02  0.45594000000E+02  0.51100000000E-03 0.  1.
         11   -1    0    0    0    0 -0.00000000000E+00 -0.00000000000E+00 -0.45593999997E+02  0.45594000000E+02  0.51100000000E-03 0. -1.
    9900012    2    1    2    0    0 -0.22122008245E+02 -0.99444167007E+01  0.35990965424E+02  0.47787259633E+02  0.19999947970E+02 0.  0.
         12    1    1    2    0    0  0.22122008245E+02  0.99444167007E+01 -0.35990965424E+02  0.43400740367E+02  0.00000000000E+00 0. -1.
         11    1    3    3    0    0 -0.41637338369E+01 -0.19004178522E+01  0.20047946955E+02  0.20563765337E+02  0.51100000000E-03 0. -1.
        -11    1    3    3    0    0  0.11080808823E+01  0.36245544862E+00  0.41813991969E+00  0.12385711314E+01  0.51100000000E-03 0.  1.
         12    1    3    3    0    0 -0.19066355290E+02 -0.84064542971E+01  0.15524878549E+02  0.25984923164E+02  0.00000000000E+00 0. -1.
</event>
<event>
 7    1  0.5317846E-010  0.4778727E+02  0.7816164E-02  0.1312668E+00
        -11   -1    0    0    0    0  0.00000000000E+00  0.00000000000E+00  0.45593999997E+02  0.45594000000E+02  0.51100000000E-03 0.  1.
         11   -1    0    0    0    0 -0.00000000000E+00 -0.00000000000E+00 -0.45593999997E+02  0.45594000000E+02  0.51100000000E-03 0. -1.
    9900012    2    1    2    0    0  0.71919551808E+01 -0.10901831406E+02  0.41388996804E+02  0.47787271852E+02  0.20000003681E+02 0.  0.
         12    1    1    2    0    0 -0.71919551808E+01  0.10901831406E+02 -0.41388996804E+02  0.43400728148E+02  0.00000000000E+00 0. -1.
         11    1    3    3    0    0  0.17931714045E+01 -0.55060706717E+00  0.21247530514E+02  0.21330170769E+02  0.51100000000E-03 0. -1.
        -11    1    3    3    0    0  0.48718028420E+01 -0.30557507980E+01  0.17908740557E+02  0.18809440833E+02  0.51100000000E-03 0.  1.
         12    1    3    3    0    0  0.52698093434E+00 -0.72954735411E+01  0.22327257335E+01  0.76476602497E+01  0.00000000000E+00 0. -1.
</event>
<event>
 7    1  0.5317846E-010  0.4778728E+02  0.7816164E-02  0.1312668E+00
        -11   -1    0    0    0    0  0.00000000000E+00  0.00000000000E+00  0.45593999997E+02  0.45594000000E+02  0.51100000000E-03 0. -1.
         11   -1    0    0    0    0 -0.00000000000E+00 -0.00000000000E+00 -0.45593999997E+02  0.45594000000E+02  0.51100000000E-03 0.  1.
    9900012    2    1    2    0    0  0.14504182744E+02 -0.38813105819E+02 -0.12914878400E+02  0.47787278987E+02  0.20000036211E+02 0.  0.
         12    1    1    2    0    0 -0.14504182744E+02  0.38813105819E+02  0.12914878400E+02  0.43400721013E+02  0.00000000000E+00 0. -1.
         11    1    3    3    0    0  0.78774749081E+00 -0.22544919291E+01  0.41425527608E+01  0.47816339890E+01  0.51100000000E-03 0. -1.
        -11    1    3    3    0    0  0.10428984122E+02 -0.32891876895E+02 -0.14210163225E+02  0.37317127631E+02  0.51100000000E-03 0.  1.
         12    1    3    3    0    0  0.32874511316E+01 -0.36667369953E+01 -0.28472679354E+01  0.56885173667E+01  0.00000000000E+00 0. -1.
</event>
<event>
 7    1  0.5317846E-010  0.4778727E+02  0.7816164E-02  0.1312668E+00
        -11   -1    0    0    0    0  0.00000000000E+00  0.00000000000E+00  0.45593999997E+02  0.45594000000E+02  0.51100000000E-03 0.  1.
         11   -1    0    0    0    0 -0.00000000000E+00 -0.00000000000E+00 -0.45593999997E+02  0.45594000000E+02  0.51100000000E-03 0. -1.
    9900012    2    1    2    0    0 -0.17616186446E+02  0.53502003620E+00  0.39661153472E+02  0.47787269982E+02  0.19999995156E+02 0.  0.
         12    1    1    2    0    0  0.17616186446E+02 -0.53502003620E+00 -0.39661153472E+02  0.43400730018E+02  0.00000000000E+00 0. -1.
         11    1    3    3    0    0 -0.29117932109E+01 -0.54155418077E+01  0.20770210595E+02  0.21661216060E+02  0.51100000000E-03 0. -1.
        -11    1    3    3    0    0 -0.72174925897E+01  0.69048706112E+01  0.76277914868E+01  0.12567921096E+02  0.51100000000E-03 0.  1.
         12    1    3    3    0    0 -0.74869006450E+01 -0.95430876731E+00  0.11263151391E+02  0.13558132826E+02  0.00000000000E+00 0. -1.
</event>
<event>
 7    1  0.5317846E-010  0.4778727E+02  0.7816164E-02  0.1312668E+00
        -11   -1    0    0    0    0  0.00000000000E+00  0.00000000000E+00  0.45593999997E+02  0.45594000000E+02  0.51100000000E-03 0. -1.
         11   -1    0    0    0    0 -0.00000000000E+00 -0.00000000000E+00 -0.45593999997E+02  0.45594000000E+02  0.51100000000E-03 0.  1.
    9900012    2    1    2    0    0 -0.38263014361E+02 -0.19010329969E+02  0.76270708587E+01  0.47787272778E+02  0.20000007905E+02 0.  0.
         12    1    1    2    0    0  0.38263014361E+02  0.19010329969E+02 -0.76270708587E+01  0.43400727222E+02  0.00000000000E+00 0. -1.
         11    1    3    3    0    0 -0.72184842481E+01  0.33196074308E+01  0.50590440313E+01  0.94191419517E+01  0.51100000000E-03 0. -1.
        -11    1    3    3    0    0 -0.10011237514E+02 -0.79482670409E+01  0.14325374199E+01  0.12862814203E+02  0.51100000000E-03 0.  1.
         12    1    3    3    0    0 -0.21033292599E+02 -0.14381670359E+02  0.11354894076E+01  0.25505316623E+02  0.00000000000E+00 0. -1.
</event>
<event>
 7    1  0.5317846E-010  0.4778727E+02  0.7816164E-02  0.1312668E+00
        -11   -1    0    0    0    0  0.00000000000E+00  0.00000000000E+00  0.45593999997E+02  0.45594000000E+02  0.51100000000E-03 0. -1.
         11   -1    0    0    0    0 -0.00000000000E+00 -0.00000000000E+00 -0.45593999997E+02  0.45594000000E+02  0.51100000000E-03 0.  1.
    9900012    2    1    2    0    0 -0.42526733570E+02 -0.56638987798E+01  0.65589991892E+01  0.47787270883E+02  0.19999999264E+02 0.  0.
         12    1    1    2    0    0  0.42526733570E+02  0.56638987798E+01 -0.65589991892E+01  0.43400729117E+02  0.00000000000E+00 0. -1.
         11    1    3    3    0    0 -0.18975291513E+02 -0.58527189949E+01  0.62794108925E+01  0.20826593794E+02  0.51100000000E-03 0. -1.
        -11    1    3    3    0    0  0.89672362570E+00 -0.20597977052E+01  0.85196595428E+00  0.24026498071E+01  0.51100000000E-03 0.  1.
        -12    1    3    3    0    0 -0.24448165682E+02  0.22486179203E+01 -0.57237765763E+00  0.24558027282E+02  0.00000000000E+00 0.  1.
</event>
<event>
 7    1  0.5317846E-010  0.4778727E+02  0.7816164E-02  0.1312668E+00
        -11   -1    0    0    0    0  0.00000000000E+00  0.00000000000E+00  0.45593999997E+02  0.45594000000E+02  0.51100000000E-03 0.  1.
         11   -1    0    0    0    0 -0.00000000000E+00 -0.00000000000E+00 -0.45593999997E+02  0.45594000000E+02  0.51100000000E-03 0. -1.
    9900012    2    1    2    0    0  0.42374694432E+02 -0.38030628556E+01 -0.85758665966E+01  0.47787268403E+02  0.19999987957E+02 0.  0.
         12    1    1    2    0    0 -0.42374694432E+02  0.38030628556E+01  0.85758665966E+01  0.43400731597E+02  0.00000000000E+00 0. -1.
         11    1    3    3    0    0  0.16756391867E+02  0.55633412360E+01 -0.87174384889E+01  0.19690636561E+02  0.51100000000E-03 0. -1.
        -11    1    3    3    0    0  0.78242584164E+01 -0.57915567987E+01 -0.15942843305E+01  0.98642228638E+01  0.51100000000E-03 0.  1.
         12    1    3    3    0    0  0.17794044148E+02 -0.35748472929E+01  0.17358562228E+01  0.18232408978E+02  0.00000000000E+00 0. -1.
</event>
<event>
 7    1  0.5317846E-010  0.4778727E+02  0.7816164E-02  0.1312668E+00
        -11   -1    0    0    0    0  0.00000000000E+00  0.00000000000E+00  0.45593999997E+02  0.45594000000E+02  0.51100000000E-03 0.  1.
         11   -1    0    0    0    0 -0.00000000000E+00 -0.00000000000E+00 -0.45593999997E+02  0.45594000000E+02  0.51100000000E-03 0. -1.
    9900012    2    1    2    0    0  0.42328237363E+02 -0.70854502579E+01  0.64606617007E+01  0.47787269208E+02  0.19999991627E+02 0.  0.
         12    1    1    2    0    0 -0.42328237363E+02  0.70854502579E+01 -0.64606617007E+01  0.43400730792E+02  0.00000000000E+00 0. -1.
         11    1    3    3    0    0  0.16006231561E+02  0.54583722802E+01  0.23700038494E+01  0.17076597882E+02  0.51100000000E-03 0. -1.
        -11    1    3    3    0    0  0.13040269076E+02 -0.10231935039E+02 -0.15646233331E+00  0.16576054807E+02  0.51100000000E-03 0.  1.
        -12    1    3    3    0    0  0.13281736727E+02 -0.23118874987E+01  0.42471201846E+01  0.14134616520E+02  0.00000000000E+00 0.  1.
</event>
<event>
 7    1  0.5317846E-010  0.4778728E+02  0.7816164E-02  0.1312668E+00
        -11   -1    0    0    0    0  0.00000000000E+00  0.00000000000E+00  0.45593999997E+02  0.45594000000E+02  0.51100000000E-03 0.  1.
         11   -1    0    0    0    0 -0.00000000000E+00 -0.00000000000E+00 -0.45593999997E+02  0.45594000000E+02  0.51100000000E-03 0. -1.
    9900012    2    1    2    0    0  0.78775579813E+00 -0.15316265715E+01  0.43366534657E+02  0.47787276880E+02  0.20000026609E+02 0.  0.
         12    1    1    2    0    0 -0.78775579813E+00  0.15316265715E+01 -0.43366534657E+02  0.43400723120E+02  0.00000000000E+00 0. -1.
         11    1    3    3    0    0 -0.20303991079E+01 -0.40201474077E+01  0.35602377094E+02  0.35886116546E+02  0.51100000000E-03 0. -1.
        -11    1    3    3    0    0  0.72032201520E+00 -0.23077897728E+01  0.58453272517E+01  0.63255520219E+01  0.51100000000E-03 0.  1.
         12    1    3    3    0    0  0.20978328908E+01  0.47963106091E+01  0.19188303112E+01  0.55756083130E+01  0.00000000000E+00 0. -1.
</event>
<event>
 7    1  0.5317846E-010  0.4778728E+02  0.7816164E-02  0.1312668E+00
        -11   -1    0    0    0    0  0.00000000000E+00  0.00000000000E+00  0.45593999997E+02  0.45594000000E+02  0.51100000000E-03 0.  1.
         11   -1    0    0    0    0 -0.00000000000E+00 -0.00000000000E+00 -0.45593999997E+02  0.45594000000E+02  0.51100000000E-03 0. -1.
    9900012    2    1    2    0    0 -0.21337215355E+02  0.28959759983E+02  0.24283292684E+02  0.47787276953E+02  0.20000026940E+02 0.  0.
         12    1    1    2    0    0  0.21337215355E+02 -0.28959759983E+02 -0.24283292684E+02  0.43400723047E+02  0.00000000000E+00 0. -1.
         11    1    3    3    0    0  0.16692201364E+00  0.38167802663E+01  0.92981137762E+01  0.10052392482E+02  0.51100000000E-03 0. -1.
        -11    1    3    3    0    0 -0.11649179303E+02  0.12394357252E+02  0.21715046041E+01  0.17147562586E+02  0.51100000000E-03 0.  1.
         12    1    3    3    0    0 -0.98549580653E+01  0.12748622465E+02  0.12813674304E+02  0.20587321885E+02  0.00000000000E+00 0. -1.
</event>
<event>
 7    1  0.5317846E-010  0.4778727E+02  0.7816164E-02  0.1312668E+00
        -11   -1    0    0    0    0  0.00000000000E+00  0.00000000000E+00  0.45593999997E+02  0.45594000000E+02  0.51100000000E-03 0.  1.
         11   -1    0    0    0    0 -0.00000000000E+00 -0.00000000000E+00 -0.45593999997E+02  0.45594000000E+02  0.51100000000E-03 0. -1.
    9900012    2    1    2    0    0 -0.30397388806E+02 -0.10120967964E+02  0.29277772627E+02  0.47787271795E+02  0.20000003421E+02 0.  0.
         12    1    1    2    0    0  0.30397388806E+02  0.10120967964E+02 -0.29277772627E+02  0.43400728205E+02  0.00000000000E+00 0. -1.
         11    1    3    3    0    0 -0.91983612768E+01 -0.98046771437E+01  0.64838929044E+01  0.14925897344E+02  0.51100000000E-03 0. -1.
        -11    1    3    3    0    0 -0.18641088946E+02 -0.79839847498E+00  0.23647549790E+02  0.30121989452E+02  0.51100000000E-03 0.  1.
        -12    1    3    3    0    0 -0.25579385838E+01  0.48210765504E+00 -0.85367006721E+00  0.27393849991E+01  0.00000000000E+00 0.  1.
</event>
<event>
 7    1  0.5317846E-010  0.4778727E+02  0.7816164E-02  0.1312668E+00
        -11   -1    0    0    0    0  0.00000000000E+00  0.00000000000E+00  0.45593999997E+02  0.45594000000E+02  0.51100000000E-03 0. -1.
         11   -1    0    0    0    0 -0.00000000000E+00 -0.00000000000E+00 -0.45593999997E+02  0.45594000000E+02  0.51100000000E-03 0.  1.
    9900012    2    1    2    0    0  0.66503069195E+01 -0.22410952721E+02 -0.36567005425E+02  0.47787271092E+02  0.20000000219E+02 0.  0.
         12    1    1    2    0    0 -0.66503069195E+01  0.22410952721E+02  0.36567005425E+02  0.43400728908E+02  0.00000000000E+00 0. -1.
         11    1    3    3    0    0  0.12856022710E+01  0.44008570992E+00 -0.11978171850E+01  0.18114124051E+01  0.51100000000E-03 0. -1.
        -11    1    3    3    0    0 -0.52476587443E+01 -0.11742124389E+02 -0.98943108764E+01  0.16226915771E+02  0.51100000000E-03 0.  1.
        -12    1    3    3    0    0  0.10612363393E+02 -0.11108914042E+02 -0.25474877363E+02  0.29748942916E+02  0.00000000000E+00 0.  1.
</event>
<event>
 7    1  0.5317846E-010  0.4778727E+02  0.7816164E-02  0.1312668E+00
        -11   -1    0    0    0    0  0.00000000000E+00  0.00000000000E+00  0.45593999997E+02  0.45594000000E+02  0.51100000000E-03 0.  1.
         11   -1    0    0    0    0 -0.00000000000E+00 -0.00000000000E+00 -0.45593999997E+02  0.45594000000E+02  0.51100000000E-03 0. -1.
    9900012    2    1    2    0    0  0.42642038416E+02  0.49160202172E+00  0.80646050842E+01  0.47787274569E+02  0.20000016068E+02 0.  0.
         12    1    1    2    0    0 -0.42642038416E+02 -0.49160202172E+00 -0.80646050842E+01  0.43400725431E+02  0.00000000000E+00 0. -1.
         11    1    3    3    0    0  0.76259115810E+00  0.11302172961E+01  0.31843719626E+01  0.34639805814E+01  0.51100000000E-03 0. -1.
        -11    1    3    3    0    0  0.28733374343E+02  0.13668998823E+01 -0.29077425604E+01  0.28912457237E+02  0.51100000000E-03 0.  1.
        -12    1    3    3    0    0  0.13146072915E+02 -0.20055151566E+01  0.77879756820E+01  0.15410836751E+02  0.00000000000E+00 0.  1.
</event>
<event>
 7    1  0.5317846E-010  0.4778727E+02  0.7816164E-02  0.1312668E+00
        -11   -1    0    0    0    0  0.00000000000E+00  0.00000000000E+00  0.45593999997E+02  0.45594000000E+02  0.51100000000E-03 0. -1.
         11   -1    0    0    0    0 -0.00000000000E+00 -0.00000000000E+00 -0.45593999997E+02  0.45594000000E+02  0.51100000000E-03 0.  1.
    9900012    2    1    2    0    0  0.23390253158E+02  0.33959769940E+02  0.13537112095E+02  0.47787270501E+02  0.19999997522E+02 0.  0.
         12    1    1    2    0    0 -0.23390253158E+02 -0.33959769940E+02 -0.13537112095E+02  0.43400729499E+02  0.00000000000E+00 0. -1.
         11    1    3    3    0    0  0.19167834119E+02  0.19751977349E+02  0.26672092892E+01  0.27652494999E+02  0.51100000000E-03 0. -1.
        -11    1    3    3    0    0  0.33778039655E+01  0.14702491785E+01  0.56077330261E+00  0.37263466336E+01  0.51100000000E-03 0.  1.
         12    1    3    3    0    0  0.84461507330E+00  0.12737543413E+02  0.10309129503E+02  0.16408428869E+02  0.00000000000E+00 0. -1.
</event>
<event>
 7    1  0.5317846E-010  0.4778728E+02  0.7816164E-02  0.1312668E+00
        -11   -1    0    0    0    0  0.00000000000E+00  0.00000000000E+00  0.45593999997E+02  0.45594000000E+02  0.51100000000E-03 0.  1.
         11   -1    0    0    0    0 -0.00000000000E+00 -0.00000000000E+00 -0.45593999997E+02  0.45594000000E+02  0.51100000000E-03 0. -1.
    9900012    2    1    2    0    0  0.15975244948E+02  0.64605698929E+01  0.39833095109E+02  0.47787275577E+02  0.20000020666E+02 0.  0.
         12    1    1    2    0    0 -0.15975244948E+02 -0.64605698929E+01 -0.39833095109E+02  0.43400724423E+02  0.00000000000E+00 0. -1.
         11    1    3    3    0    0  0.33638252735E+01  0.72007179490E+01  0.45530847638E+01  0.91594891003E+01  0.51100000000E-03 0. -1.
        -11    1    3    3    0    0  0.55877069761E+01  0.16600840811E+01  0.57823665846E+01  0.82106097208E+01  0.51100000000E-03 0.  1.
         12    1    3    3    0    0  0.70237126980E+01 -0.24002321372E+01  0.29497643761E+02  0.30417176756E+02  0.00000000000E+00 0. -1.
</event>
<event>
 7    1  0.5317846E-010  0.4778727E+02  0.7816164E-02  0.1312668E+00
        -11   -1    0    0    0    0  0.00000000000E+00  0.00000000000E+00  0.45593999997E+02  0.45594000000E+02  0.51100000000E-03 0.  1.
         11   -1    0    0    0    0 -0.00000000000E+00 -0.00000000000E+00 -0.45593999997E+02  0.45594000000E+02  0.51100000000E-03 0. -1.
    9900012    2    1    2    0    0  0.13155090047E+02  0.30328996512E+02  0.28119722530E+02  0.47787271680E+02  0.20000002896E+02 0.  0.
         12    1    1    2    0    0 -0.13155090047E+02 -0.30328996512E+02 -0.28119722530E+02  0.43400728320E+02  0.00000000000E+00 0. -1.
         11    1    3    3    0    0 -0.29104549344E+01  0.87951688541E+01  0.15222161484E+02  0.17819650490E+02  0.51100000000E-03 0. -1.
        -11    1    3    3    0    0  0.61294114009E+01  0.88461793291E+01  0.35238536730E+01  0.11324403641E+02  0.51100000000E-03 0.  1.
         12    1    3    3    0    0  0.99361335810E+01  0.12687648329E+02  0.93737073730E+01  0.18643217549E+02  0.00000000000E+00 0. -1.
</event>
<event>
 7    1  0.5317846E-010  0.4778727E+02  0.7816164E-02  0.1312668E+00
        -11   -1    0    0    0    0  0.00000000000E+00  0.00000000000E+00  0.45593999997E+02  0.45594000000E+02  0.51100000000E-03 0.  1.
         11   -1    0    0    0    0 -0.00000000000E+00 -0.00000000000E+00 -0.45593999997E+02  0.45594000000E+02  0.51100000000E-03 0. -1.
    9900012    2    1    2    0    0  0.21950950298E+02 -0.17883495908E+02  0.32893153315E+02  0.47787272127E+02  0.20000004937E+02 0.  0.
         12    1    1    2    0    0 -0.21950950298E+02  0.17883495908E+02 -0.32893153315E+02  0.43400727873E+02  0.00000000000E+00 0. -1.
         11    1    3    3    0    0  0.12950083259E+02 -0.18790402940E+02  0.29532954133E+02  0.37322637623E+02  0.51100000000E-03 0. -1.
        -11    1    3    3    0    0  0.33655304377E+01 -0.10430943504E+01  0.27513880799E+01  0.44704560817E+01  0.51100000000E-03 0.  1.
         12    1    3    3    0    0  0.56353366014E+01  0.19500013826E+01  0.60881110240E+00  0.59941784226E+01  0.00000000000E+00 0. -1.
</event>
<event>
 7    1  0.5317846E-010  0.4778727E+02  0.7816164E-02  0.1312668E+00
        -11   -1    0    0    0    0  0.00000000000E+00  0.00000000000E+00  0.45593999997E+02  0.45594000000E+02  0.51100000000E-03 0.  1.
         11   -1    0    0    0    0 -0.00000000000E+00 -0.00000000000E+00 -0.45593999997E+02  0.45594000000E+02  0.51100000000E-03 0. -1.
    9900012    2    1    2    0    0  0.11159389772E+02 -0.37578389728E+02  0.18626760236E+02  0.47787267846E+02  0.19999985417E+02 0.  0.
         12    1    1    2    0    0 -0.11159389772E+02  0.37578389728E+02 -0.18626760236E+02  0.43400732154E+02  0.00000000000E+00 0. -1.
         11    1    3    3    0    0  0.94902806808E+01 -0.93115757838E+01  0.71749081193E+01  0.15107950813E+02  0.51100000000E-03 0. -1.
        -11    1    3    3    0    0  0.54931687072E+01 -0.89433992027E+01  0.65796646139E+01  0.12387545295E+02  0.51100000000E-03 0.  1.
         12    1    3    3    0    0 -0.38240596158E+01 -0.19323414741E+02  0.48721875029E+01  0.20291771738E+02  0.00000000000E+00 0. -1.
</event>
<event>
 7    1  0.5317846E-010  0.4778727E+02  0.7816164E-02  0.1312668E+00
        -11   -1    0    0    0    0  0.00000000000E+00  0.00000000000E+00  0.45593999997E+02  0.45594000000E+02  0.51100000000E-03 0.  1.
         11   -1    0    0    0    0 -0.00000000000E+00 -0.00000000000E+00 -0.45593999997E+02  0.45594000000E+02  0.51100000000E-03 0. -1.
    9900012    2    1    2    0    0  0.29151353297E+02 -0.31453441187E+02 -0.66710427542E+01  0.47787272207E+02  0.20000005298E+02 0.  0.
         12    1    1    2    0    0 -0.29151353297E+02  0.31453441187E+02  0.66710427542E+01  0.43400727793E+02  0.00000000000E+00 0. -1.
         11    1    3    3    0    0  0.89687271715E+01 -0.94335342425E+00 -0.33142755464E+01  0.96079345032E+01  0.51100000000E-03 0. -1.
        -11    1    3    3    0    0  0.14546647176E+02 -0.26205558696E+02 -0.60799293985E+01  0.30582704138E+02  0.51100000000E-03 0.  1.
         12    1    3    3    0    0  0.56359789499E+01 -0.43045290664E+01  0.27231621906E+01  0.75966335652E+01  0.00000000000E+00 0. -1.
</event>
<event>
 7    1  0.5317846E-010  0.4778728E+02  0.7816164E-02  0.1312668E+00
        -11   -1    0    0    0    0  0.00000000000E+00  0.00000000000E+00  0.45593999997E+02  0.45594000000E+02  0.51100000000E-03 0.  1.
         11   -1    0    0    0    0 -0.00000000000E+00 -0.00000000000E+00 -0.45593999997E+02  0.45594000000E+02  0.51100000000E-03 0. -1.
    9900012    2    1    2    0    0  0.21449184074E+02  0.22488225833E+02  0.30295791882E+02  0.47787276454E+02  0.20000024663E+02 0.  0.
         12    1    1    2    0    0 -0.21449184074E+02 -0.22488225833E+02 -0.30295791882E+02  0.43400723546E+02  0.00000000000E+00 0. -1.
         11    1    3    3    0    0 -0.27251594103E+01  0.49029906211E+01  0.64682959940E+01  0.85618143036E+01  0.51100000000E-03 0. -1.
        -11    1    3    3    0    0  0.60916061392E+01  0.23386550721E+00  0.48364272893E+01  0.77816057223E+01  0.51100000000E-03 0.  1.
         12    1    3    3    0    0  0.18082737346E+02  0.17351369705E+02  0.18991068599E+02  0.31443856428E+02  0.00000000000E+00 0. -1.
</event>
<event>
 7    1  0.5317846E-010  0.4778727E+02  0.7816164E-02  0.1312668E+00
        -11   -1    0    0    0    0  0.00000000000E+00  0.00000000000E+00  0.45593999997E+02  0.45594000000E+02  0.51100000000E-03 0.  1.
         11   -1    0    0    0    0 -0.00000000000E+00 -0.00000000000E+00 -0.45593999997E+02  0.45594000000E+02  0.51100000000E-03 0. -1.
    9900012    2    1    2    0    0  0.12656071628E+02  0.18730919336E+02  0.37048614556E+02  0.47787270412E+02  0.19999997118E+02 0.  0.
         12    1    1    2    0    0 -0.12656071628E+02 -0.18730919336E+02 -0.37048614556E+02  0.43400729588E+02  0.00000000000E+00 0. -1.
         11    1    3    3    0    0  0.13090743345E+01  0.13749021874E+02  0.28295526171E+02  0.31486283993E+02  0.51100000000E-03 0. -1.
        -11    1    3    3    0    0  0.54179340646E+01  0.10619180488E+01  0.70863887562E+00  0.55663137522E+01  0.51100000000E-03 0.  1.
        -12    1    3    3    0    0  0.59290632288E+01  0.39199794125E+01  0.80444495092E+01  0.10734672667E+02  0.00000000000E+00 0.  1.
</event>
<event>
 7    1  0.5317846E-010  0.4778727E+02  0.7816164E-02  0.1312668E+00
        -11   -1    0    0    0    0  0.00000000000E+00  0.00000000000E+00  0.45593999997E+02  0.45594000000E+02  0.51100000000E-03 0.  1.
         11   -1    0    0    0    0 -0.00000000000E+00 -0.00000000000E+00 -0.45593999997E+02  0.45594000000E+02  0.51100000000E-03 0. -1.
    9900012    2    1    2    0    0 -0.32081270669E+02  0.17167787936E+02  0.23657604360E+02  0.47787272882E+02  0.20000008377E+02 0.  0.
         12    1    1    2    0    0  0.32081270669E+02 -0.17167787936E+02 -0.23657604360E+02  0.43400727118E+02  0.00000000000E+00 0. -1.
         11    1    3    3    0    0 -0.21448328976E+02  0.68993179716E+01  0.16791097669E+02  0.28099330340E+02  0.51100000000E-03 0.  1.
        -11    1    3    3    0    0  0.22658949224E+01  0.25745656017E+01  0.11423499361E+01  0.36149179070E+01  0.51100000000E-03 0. -1.
         12    1    3    3    0    0 -0.12898836615E+02  0.76939043626E+01  0.57241567555E+01  0.16073024635E+02  0.00000000000E+00 0. -1.
</event>
<event>
 7    1  0.5317846E-010  0.4778728E+02  0.7816164E-02  0.1312668E+00
        -11   -1    0    0    0    0  0.00000000000E+00  0.00000000000E+00  0.45593999997E+02  0.45594000000E+02  0.51100000000E-03 0.  1.
         11   -1    0    0    0    0 -0.00000000000E+00 -0.00000000000E+00 -0.45593999997E+02  0.45594000000E+02  0.51100000000E-03 0. -1.
    9900012    2    1    2    0    0  0.90468614066E+01  0.10076078375E+02  0.41234078795E+02  0.47787282140E+02  0.20000050587E+02 0.  0.
         12    1    1    2    0    0 -0.90468614066E+01 -0.10076078375E+02 -0.41234078795E+02  0.43400717860E+02  0.00000000000E+00 0. -1.
         11    1    3    3    0    0 -0.72439756452E+00  0.48075167681E+01  0.83978118748E+01  0.97036185958E+01  0.51100000000E-03 0. -1.
        -11    1    3    3    0    0  0.65478696565E+01  0.61223045074E+01  0.33504377818E+02  0.34682856612E+02  0.51100000000E-03 0.  1.
        -12    1    3    3    0    0  0.32233893146E+01 -0.85374290031E+00 -0.66811089835E+00  0.34008069316E+01  0.00000000000E+00 0.  1.
</event>
<event>
 7    1  0.5317846E-010  0.4778727E+02  0.7816164E-02  0.1312668E+00
        -11   -1    0    0    0    0  0.00000000000E+00  0.00000000000E+00  0.45593999997E+02  0.45594000000E+02  0.51100000000E-03 0.  1.
         11   -1    0    0    0    0 -0.00000000000E+00 -0.00000000000E+00 -0.45593999997E+02  0.45594000000E+02  0.51100000000E-03 0. -1.
    9900012    2    1    2    0    0  0.29249753094E+02 -0.24528133220E+02  0.20650561693E+02  0.47787273352E+02  0.20000010523E+02 0.  0.
         12    1    1    2    0    0 -0.29249753094E+02  0.24528133220E+02 -0.20650561693E+02  0.43400726648E+02  0.00000000000E+00 0. -1.
         11    1    3    3    0    0  0.22179061244E+02 -0.22276202517E+02  0.17829634063E+02  0.36139117412E+02  0.51100000000E-03 0. -1.
        -11    1    3    3    0    0  0.21148592901E+00 -0.33172686420E+01  0.33081234462E+01  0.46896352244E+01  0.51100000000E-03 0.  1.
         12    1    3    3    0    0  0.68592059211E+01  0.10653379391E+01 -0.48719581636E+00  0.69585207160E+01  0.00000000000E+00 0. -1.
</event>
<event>
 7    1  0.5317846E-010  0.4778727E+02  0.7816164E-02  0.1312668E+00
        -11   -1    0    0    0    0  0.00000000000E+00  0.00000000000E+00  0.45593999997E+02  0.45594000000E+02  0.51100000000E-03 0.  1.
         11   -1    0    0    0    0 -0.00000000000E+00 -0.00000000000E+00 -0.45593999997E+02  0.45594000000E+02  0.51100000000E-03 0. -1.
    9900012    2    1    2    0    0  0.32782069933E+02 -0.11043596941E+02  0.26210649235E+02  0.47787271022E+02  0.19999999899E+02 0.  0.
         12    1    1    2    0    0 -0.32782069933E+02  0.11043596941E+02 -0.26210649235E+02  0.43400728978E+02  0.00000000000E+00 0. -1.
         11    1    3    3    0    0  0.20328769066E+02 -0.44134658081E+01  0.74713915539E+01  0.22103375855E+02  0.51100000000E-03 0. -1.
        -11    1    3    3    0    0  0.10887836720E+02 -0.38471514471E+01  0.19252308959E+02  0.22449876685E+02  0.51100000000E-03 0.  1.
        -12    1    3    3    0    0  0.15654641479E+01 -0.27829796857E+01 -0.51305127784E+00  0.32340184822E+01  0.00000000000E+00 0.  1.
</event>
<event>
 7    1  0.5317846E-010  0.4778727E+02  0.7816164E-02  0.1312668E+00
        -11   -1    0    0    0    0  0.00000000000E+00  0.00000000000E+00  0.45593999997E+02  0.45594000000E+02  0.51100000000E-03 0.  1.
         11   -1    0    0    0    0 -0.00000000000E+00 -0.00000000000E+00 -0.45593999997E+02  0.45594000000E+02  0.51100000000E-03 0. -1.
    9900012    2    1    2    0    0  0.18405343590E+01 -0.24714273925E+02  0.35629206997E+02  0.47787270817E+02  0.19999998963E+02 0.  0.
         12    1    1    2    0    0 -0.18405343590E+01  0.24714273925E+02 -0.35629206997E+02  0.43400729183E+02  0.00000000000E+00 0. -1.
         11    1    3    3    0    0  0.94151290848E+01 -0.21030132547E+02  0.23085566683E+02  0.32616782796E+02  0.51100000000E-03 0.  1.
        -11    1    3    3    0    0 -0.50915860871E+01 -0.29153533814E+01  0.77863170522E+01  0.97493726834E+01  0.51100000000E-03 0. -1.
        -12    1    3    3    0    0 -0.24830086386E+01 -0.76878799659E+00  0.47573232618E+01  0.54211153373E+01  0.00000000000E+00 0.  1.
</event>
<event>
 7    1  0.5317846E-010  0.4778727E+02  0.7816164E-02  0.1312668E+00
        -11   -1    0    0    0    0  0.00000000000E+00  0.00000000000E+00  0.45593999997E+02  0.45594000000E+02  0.51100000000E-03 0.  1.
         11   -1    0    0    0    0 -0.00000000000E+00 -0.00000000000E+00 -0.45593999997E+02  0.45594000000E+02  0.51100000000E-03 0. -1.
    9900012    2    1    2    0    0  0.41849977171E+02 -0.41148531914E+01  0.10736403823E+02  0.47787274510E+02  0.20000015800E+02 0.  0.
         12    1    1    2    0    0 -0.41849977171E+02  0.41148531914E+01 -0.10736403823E+02  0.43400725490E+02  0.00000000000E+00 0. -1.
         11    1    3    3    0    0  0.28835834662E+02  0.22927402937E+01  0.16814503560E+01  0.28975667279E+02  0.51100000000E-03 0. -1.
        -11    1    3    3    0    0  0.10926727896E+02 -0.21350529615E+01  0.85341877385E+01  0.14027978981E+02  0.51100000000E-03 0.  1.
         12    1    3    3    0    0  0.20874146132E+01 -0.42725405236E+01  0.52076572888E+00  0.47836282503E+01  0.00000000000E+00 0. -1.
</event>
<event>
 7    1  0.5317846E-010  0.4778731E+02  0.7816164E-02  0.1312668E+00
        -11   -1    0    0    0    0  0.00000000000E+00  0.00000000000E+00  0.45593999997E+02  0.45594000000E+02  0.51100000000E-03 0.  1.
         11   -1    0    0    0    0 -0.00000000000E+00 -0.00000000000E+00 -0.45593999997E+02  0.45594000000E+02  0.51100000000E-03 0. -1.
    9900012    2    1    2    0    0  0.63307001250E+01 -0.15756148220E+02  0.39941031246E+02  0.47787309363E+02  0.20000174707E+02 0.  0.
         12    1    1    2    0    0 -0.63307001250E+01  0.15756148220E+02 -0.39941031246E+02  0.43400690637E+02  0.00000000000E+00 0. -1.
         11    1    3    3    0    0 -0.77655875404E+00 -0.20783013522E+01 -0.67184482207E+00  0.23181362633E+01  0.51100000000E-03 0. -1.
        -11    1    3    3    0    0  0.86524018504E+01 -0.88032343762E+01  0.37507740214E+02  0.39486599872E+02  0.51100000000E-03 0.  1.
        -12    1    3    3    0    0 -0.15451429714E+01 -0.48746124912E+01  0.31051358548E+01  0.59825732272E+01  0.00000000000E+00 0.  1.
</event>
<event>
 7    1  0.5317846E-010  0.4778728E+02  0.7816164E-02  0.1312668E+00
        -11   -1    0    0    0    0  0.00000000000E+00  0.00000000000E+00  0.45593999997E+02  0.45594000000E+02  0.51100000000E-03 0. -1.
         11   -1    0    0    0    0 -0.00000000000E+00 -0.00000000000E+00 -0.45593999997E+02  0.45594000000E+02  0.51100000000E-03 0.  1.
    9900012    2    1    2    0    0 -0.36584850230E+02  0.45711302302E+01  0.22897079769E+02  0.47787276966E+02  0.20000026998E+02 0.  0.
         12    1    1    2    0    0  0.36584850230E+02 -0.45711302302E+01 -0.22897079769E+02  0.43400723034E+02  0.00000000000E+00 0. -1.
         11    1    3    3    0    0  0.13320219774E+01  0.55705527052E+00 -0.10954307641E+01  0.18123360458E+01  0.51100000000E-03 0. -1.
        -11    1    3    3    0    0 -0.31060079279E+02  0.41796312804E+01  0.23357717253E+02  0.39086836633E+02  0.51100000000E-03 0.  1.
        -12    1    3    3    0    0 -0.68567929287E+01 -0.16555632069E+00  0.63479328042E+00  0.68881042872E+01  0.00000000000E+00 0.  1.
</event>
<event>
 7    1  0.5317846E-010  0.4778727E+02  0.7816164E-02  0.1312668E+00
        -11   -1    0    0    0    0  0.00000000000E+00  0.00000000000E+00  0.45593999997E+02  0.45594000000E+02  0.51100000000E-03 0.  1.
         11   -1    0    0    0    0 -0.00000000000E+00 -0.00000000000E+00 -0.45593999997E+02  0.45594000000E+02  0.51100000000E-03 0. -1.
    9900012    2    1    2    0    0  0.41594582907E+02 -0.75257819647E+01  0.98425922233E+01  0.47787270247E+02  0.19999996364E+02 0.  0.
         12    1    1    2    0    0 -0.41594582907E+02  0.75257819647E+01 -0.98425922233E+01  0.43400729753E+02  0.00000000000E+00 0. -1.
         11    1    3    3    0    0  0.24452898291E+02 -0.90216950372E+01 -0.12587145568E+01  0.26094435782E+02  0.51100000000E-03 0. -1.
        -11    1    3    3    0    0  0.21253458627E+01  0.72965562971E-01  0.49788982462E+01  0.54140416527E+01  0.51100000000E-03 0.  1.
        -12    1    3    3    0    0  0.15016338753E+02  0.14229475095E+01  0.61224085338E+01  0.16278792812E+02  0.00000000000E+00 0.  1.
</event>
<event>
 7    1  0.5317846E-010  0.4778727E+02  0.7816164E-02  0.1312668E+00
        -11   -1    0    0    0    0  0.00000000000E+00  0.00000000000E+00  0.45593999997E+02  0.45594000000E+02  0.51100000000E-03 0. -1.
         11   -1    0    0    0    0 -0.00000000000E+00 -0.00000000000E+00 -0.45593999997E+02  0.45594000000E+02  0.51100000000E-03 0.  1.
    9900012    2    1    2    0    0 -0.21416727389E+02 -0.18374455363E+02 -0.32974633111E+02  0.47787271311E+02  0.20000001214E+02 0.  0.
         12    1    1    2    0    0  0.21416727389E+02  0.18374455363E+02  0.32974633111E+02  0.43400728689E+02  0.00000000000E+00 0. -1.
         11    1    3    3    0    0 -0.86362193341E+01 -0.16898889783E+02 -0.18193602184E+02  0.26289996595E+02  0.51100000000E-03 0. -1.
        -11    1    3    3    0    0 -0.13077764989E+02  0.48188748526E+00 -0.14440768107E+02  0.19488353867E+02  0.51100000000E-03 0.  1.
        -12    1    3    3    0    0  0.29725693408E+00 -0.19574530655E+01 -0.34026281941E+00  0.20089208484E+01  0.00000000000E+00 0.  1.
</event>
<event>
 7    1  0.5317846E-010  0.4778726E+02  0.7816164E-02  0.1312668E+00
        -11   -1    0    0    0    0  0.00000000000E+00  0.00000000000E+00  0.45593999997E+02  0.45594000000E+02  0.51100000000E-03 0.  1.
         11   -1    0    0    0    0 -0.00000000000E+00 -0.00000000000E+00 -0.45593999997E+02  0.45594000000E+02  0.51100000000E-03 0. -1.
    9900012    2    1    2    0    0  0.16800539385E+02 -0.27305265996E+02  0.29253864019E+02  0.47787259974E+02  0.19999949526E+02 0.  0.
         12    1    1    2    0    0 -0.16800539385E+02  0.27305265996E+02 -0.29253864019E+02  0.43400740026E+02  0.00000000000E+00 0. -1.
         11    1    3    3    0    0  0.17757733124E+02 -0.13691988678E+02  0.16890396357E+02  0.28072996438E+02  0.51100000000E-03 0. -1.
        -11    1    3    3    0    0 -0.12189508543E+01 -0.10541339211E+02  0.49982591537E+01  0.11729802571E+02  0.51100000000E-03 0.  1.
         12    1    3    3    0    0  0.26175711556E+00 -0.30719381076E+01  0.73652085082E+01  0.79844609645E+01  0.00000000000E+00 0. -1.
</event>
<event>
 7    1  0.5317846E-010  0.4778728E+02  0.7816164E-02  0.1312668E+00
        -11   -1    0    0    0    0  0.00000000000E+00  0.00000000000E+00  0.45593999997E+02  0.45594000000E+02  0.51100000000E-03 0.  1.
         11   -1    0    0    0    0 -0.00000000000E+00 -0.00000000000E+00 -0.45593999997E+02  0.45594000000E+02  0.51100000000E-03 0. -1.
    9900012    2    1    2    0    0  0.71475096183E+01  0.16136003733E+02  0.39650538339E+02  0.47787277647E+02  0.20000030101E+02 0.  0.
         12    1    1    2    0    0 -0.71475096183E+01 -0.16136003733E+02 -0.39650538339E+02  0.43400722353E+02  0.00000000000E+00 0. -1.
         11    1    3    3    0    0  0.22882192591E+01 -0.26180421306E+01  0.88049545207E+00  0.35868320950E+01  0.51100000000E-03 0. -1.
        -11    1    3    3    0    0  0.62523844428E+01  0.99699286137E+01  0.16924764314E+02  0.20614059162E+02  0.51100000000E-03 0.  1.
         12    1    3    3    0    0 -0.13930940836E+01  0.87841172496E+01  0.21845278573E+02  0.23586386390E+02  0.00000000000E+00 0. -1.
</event>
<event>
 7    1  0.5317846E-010  0.4778727E+02  0.7816164E-02  0.1312668E+00
        -11   -1    0    0    0    0  0.00000000000E+00  0.00000000000E+00  0.45593999997E+02  0.45594000000E+02  0.51100000000E-03 0.  1.
         11   -1    0    0    0    0 -0.00000000000E+00 -0.00000000000E+00 -0.45593999997E+02  0.45594000000E+02  0.51100000000E-03 0. -1.
    9900012    2    1    2    0    0 -0.23461033380E+01 -0.31015051183E+02  0.30268555743E+02  0.47787273422E+02  0.20000010839E+02 0.  0.
         12    1    1    2    0    0  0.23461033380E+01  0.31015051183E+02 -0.30268555743E+02  0.43400726578E+02  0.00000000000E+00 0. -1.
         11    1    3    3    0    0 -0.28093655127E+01 -0.88586173973E+00  0.12262878857E+01  0.31907785642E+01  0.51100000000E-03 0. -1.
        -11    1    3    3    0    0  0.71108954295E+01 -0.84740598219E+01  0.11393629427E+02  0.15880469623E+02  0.51100000000E-03 0.  1.
        -12    1    3    3    0    0 -0.66476332548E+01 -0.21655129621E+02  0.17648638430E+02  0.28716025234E+02  0.00000000000E+00 0.  1.
</event>
<event>
 7    1  0.5317846E-010  0.4778726E+02  0.7816164E-02  0.1312668E+00
        -11   -1    0    0    0    0  0.00000000000E+00  0.00000000000E+00  0.45593999997E+02  0.45594000000E+02  0.51100000000E-03 0.  1.
         11   -1    0    0    0    0 -0.00000000000E+00 -0.00000000000E+00 -0.45593999997E+02  0.45594000000E+02  0.51100000000E-03 0. -1.
    9900012    2    1    2    0    0 -0.23413580287E+02  0.29615999830E+02  0.21408437553E+02  0.47787258230E+02  0.19999941573E+02 0.  0.
         12    1    1    2    0    0  0.23413580287E+02 -0.29615999830E+02 -0.21408437553E+02  0.43400741770E+02  0.00000000000E+00 0. -1.
         11    1    3    3    0    0 -0.65618231918E+01  0.14241943084E+02  0.66975130534E+00  0.15695191413E+02  0.51100000000E-03 0. -1.
        -11    1    3    3    0    0 -0.13209507745E+02  0.14581069103E+02  0.13230818615E+02  0.23709770824E+02  0.51100000000E-03 0.  1.
         12    1    3    3    0    0 -0.36422493502E+01  0.79298764256E+00  0.75078676320E+01  0.83822959927E+01  0.00000000000E+00 0. -1.
</event>
<event>
 7    1  0.5317846E-010  0.4778728E+02  0.7816164E-02  0.1312668E+00
        -11   -1    0    0    0    0  0.00000000000E+00  0.00000000000E+00  0.45593999997E+02  0.45594000000E+02  0.51100000000E-03 0. -1.
         11   -1    0    0    0    0 -0.00000000000E+00 -0.00000000000E+00 -0.45593999997E+02  0.45594000000E+02  0.51100000000E-03 0.  1.
    9900012    2    1    2    0    0 -0.22833098436E+02 -0.35187600514E+02 -0.11140254068E+02  0.47787275642E+02  0.20000020960E+02 0.  0.
         12    1    1    2    0    0  0.22833098436E+02  0.35187600514E+02  0.11140254068E+02  0.43400724358E+02  0.00000000000E+00 0. -1.
         11    1    3    3    0    0 -0.20555382391E+02 -0.20122422647E+02 -0.10876145949E+02  0.30752661501E+02  0.51100000000E-03 0. -1.
        -11    1    3    3    0    0  0.27479682382E+01 -0.69949009129E+01 -0.40715911614E+00  0.75263368930E+01  0.51100000000E-03 0.  1.
         12    1    3    3    0    0 -0.50256842825E+01 -0.80702769547E+01  0.14305099666E+00  0.95082772478E+01  0.00000000000E+00 0. -1.
</event>
<event>
 7    1  0.5317846E-010  0.4778727E+02  0.7816164E-02  0.1312668E+00
        -11   -1    0    0    0    0  0.00000000000E+00  0.00000000000E+00  0.45593999997E+02  0.45594000000E+02  0.51100000000E-03 0.  1.
         11   -1    0    0    0    0 -0.00000000000E+00 -0.00000000000E+00 -0.45593999997E+02  0.45594000000E+02  0.51100000000E-03 0. -1.
    9900012    2    1    2    0    0 -0.50203841500E+00 -0.36932756229E+02  0.22789093834E+02  0.47787270479E+02  0.19999997420E+02 0.  0.
         12    1    1    2    0    0  0.50203841500E+00  0.36932756229E+02 -0.22789093834E+02  0.43400729521E+02  0.00000000000E+00 0. -1.
         11    1    3    3    0    0 -0.54049088391E+01 -0.12036660668E+02  0.10641180670E+02  0.16950780688E+02  0.51100000000E-03 0. -1.
        -11    1    3    3    0    0  0.21816861750E+01 -0.23349018453E+02  0.64274525865E+01  0.24315603309E+02  0.51100000000E-03 0.  1.
        -12    1    3    3    0    0  0.27211842491E+01 -0.15470771078E+01  0.57204605773E+01  0.65208864821E+01  0.00000000000E+00 0.  1.
</event>
<event>
 7    1  0.5317846E-010  0.4778727E+02  0.7816164E-02  0.1312668E+00
        -11   -1    0    0    0    0  0.00000000000E+00  0.00000000000E+00  0.45593999997E+02  0.45594000000E+02  0.51100000000E-03 0.  1.
         11   -1    0    0    0    0 -0.00000000000E+00 -0.00000000000E+00 -0.45593999997E+02  0.45594000000E+02  0.51100000000E-03 0. -1.
    9900012    2    1    2    0    0  0.39221947513E+02  0.86417415374E+01  0.16449386942E+02  0.47787271961E+02  0.20000004179E+02 0.  0.
         12    1    1    2    0    0 -0.39221947513E+02 -0.86417415374E+01 -0.16449386942E+02  0.43400728039E+02  0.00000000000E+00 0. -1.
         11    1    3    3    0    0 -0.39152273888E+00  0.19528183591E+01 -0.63655892131E+00  0.20909321175E+01  0.51100000000E-03 0. -1.
        -11    1    3    3    0    0  0.39073615687E+02  0.63053743624E+01  0.13152049830E+02  0.41707092966E+02  0.51100000000E-03 0.  1.
        -12    1    3    3    0    0  0.53985456533E+00  0.38354881597E+00  0.39338960331E+01  0.39892468770E+01  0.00000000000E+00 0.  1.
</event>
<event>
 7    1  0.5317846E-010  0.4778727E+02  0.7816164E-02  0.1312668E+00
        -11   -1    0    0    0    0  0.00000000000E+00  0.00000000000E+00  0.45593999997E+02  0.45594000000E+02  0.51100000000E-03 0.  1.
         11   -1    0    0    0    0 -0.00000000000E+00 -0.00000000000E+00 -0.45593999997E+02  0.45594000000E+02  0.51100000000E-03 0. -1.
    9900012    2    1    2    0    0 -0.15241459565E+01 -0.37076017443E+02  0.22509317931E+02  0.47787268623E+02  0.19999988958E+02 0.  0.
         12    1    1    2    0    0  0.15241459565E+01  0.37076017443E+02 -0.22509317931E+02  0.43400731377E+02  0.00000000000E+00 0. -1.
         11    1    3    3    0    0 -0.27644152669E+01 -0.16383644568E+02 -0.26421357632E+00  0.16617328611E+02  0.51100000000E-03 0. -1.
        -11    1    3    3    0    0  0.22749606085E+00 -0.15840865205E+02  0.14240466991E+02  0.21302010827E+02  0.51100000000E-03 0.  1.
         12    1    3    3    0    0  0.10127732495E+01 -0.48515076699E+01  0.85330645172E+01  0.98679291840E+01  0.00000000000E+00 0. -1.
</event>
<event>
 7    1  0.5317846E-010  0.4778726E+02  0.7816164E-02  0.1312668E+00
        -11   -1    0    0    0    0  0.00000000000E+00  0.00000000000E+00  0.45593999997E+02  0.45594000000E+02  0.51100000000E-03 0.  1.
         11   -1    0    0    0    0 -0.00000000000E+00 -0.00000000000E+00 -0.45593999997E+02  0.45594000000E+02  0.51100000000E-03 0. -1.
    9900012    2    1    2    0    0 -0.38015709701E+01  0.27140080940E+02  0.33653950422E+02  0.47787259058E+02  0.19999945351E+02 0.  0.
         12    1    1    2    0    0  0.38015709701E+01 -0.27140080940E+02 -0.33653950422E+02  0.43400740942E+02  0.00000000000E+00 0. -1.
         11    1    3    3    0    0  0.16608847779E+01 -0.76029075142E+00  0.72991563788E+01  0.75242451033E+01  0.51100000000E-03 0. -1.
        -11    1    3    3    0    0 -0.24334791453E+01  0.25850062025E+02  0.25727335004E+02  0.36551925997E+02  0.51100000000E-03 0.  1.
        -12    1    3    3    0    0 -0.30289766026E+01  0.20503096661E+01  0.62745903985E+00  0.37110879581E+01  0.00000000000E+00 0.  1.
</event>
<event>
 7    1  0.5317846E-010  0.4778727E+02  0.7816164E-02  0.1312668E+00
        -11   -1    0    0    0    0  0.00000000000E+00  0.00000000000E+00  0.45593999997E+02  0.45594000000E+02  0.51100000000E-03 0. -1.
         11   -1    0    0    0    0 -0.00000000000E+00 -0.00000000000E+00 -0.45593999997E+02  0.45594000000E+02  0.51100000000E-03 0.  1.
    9900012    2    1    2    0    0  0.27501675217E+02  0.26549342039E+02 -0.20552709004E+02  0.47787267865E+02  0.19999985503E+02 0.  0.
         12    1    1    2    0    0 -0.27501675217E+02 -0.26549342039E+02  0.20552709004E+02  0.43400732135E+02  0.00000000000E+00 0. -1.
         11    1    3    3    0    0  0.97401549154E+01  0.13620778909E+02 -0.18620356145E+02  0.25042242294E+02  0.51100000000E-03 0. -1.
        -11    1    3    3    0    0  0.11692911359E+02  0.99640933508E+01 -0.36202647155E+01  0.15783334541E+02  0.51100000000E-03 0.  1.
         12    1    3    3    0    0  0.60686089426E+01  0.29644697791E+01  0.16879118563E+01  0.69616910304E+01  0.00000000000E+00 0. -1.
</event>
<event>
 7    1  0.5317846E-010  0.4778727E+02  0.7816164E-02  0.1312668E+00
        -11   -1    0    0    0    0  0.00000000000E+00  0.00000000000E+00  0.45593999997E+02  0.45594000000E+02  0.51100000000E-03 0. -1.
         11   -1    0    0    0    0 -0.00000000000E+00 -0.00000000000E+00 -0.45593999997E+02  0.45594000000E+02  0.51100000000E-03 0.  1.
    9900012    2    1    2    0    0 -0.24958769874E+02 -0.18827225555E+02 -0.30103467300E+02  0.47787270062E+02  0.19999995519E+02 0.  0.
         12    1    1    2    0    0  0.24958769874E+02  0.18827225555E+02  0.30103467300E+02  0.43400729938E+02  0.00000000000E+00 0. -1.
         11    1    3    3    0    0 -0.65969378306E+01 -0.67083334285E+00 -0.10311629154E+02  0.12259661585E+02  0.51100000000E-03 0. -1.
        -11    1    3    3    0    0 -0.10417489308E+02 -0.15733277254E+02 -0.67006518650E+01  0.20023956460E+02  0.51100000000E-03 0.  1.
        -12    1    3    3    0    0 -0.79443427353E+01 -0.24231149574E+01 -0.13091186281E+02  0.15503652016E+02  0.00000000000E+00 0.  1.
</event>
<event>
 7    1  0.5317846E-010  0.4778727E+02  0.7816164E-02  0.1312668E+00
        -11   -1    0    0    0    0  0.00000000000E+00  0.00000000000E+00  0.45593999997E+02  0.45594000000E+02  0.51100000000E-03 0.  1.
         11   -1    0    0    0    0 -0.00000000000E+00 -0.00000000000E+00 -0.45593999997E+02  0.45594000000E+02  0.51100000000E-03 0. -1.
    9900012    2    1    2    0    0 -0.20439870632E+02  0.35002466522E+01  0.38125883612E+02  0.47787273747E+02  0.20000012324E+02 0.  0.
         12    1    1    2    0    0  0.20439870632E+02 -0.35002466522E+01 -0.38125883612E+02  0.43400726253E+02  0.00000000000E+00 0. -1.
         11    1    3    3    0    0 -0.32303086110E+01  0.47034006371E+01  0.20659521305E+01  0.60683630199E+01  0.51100000000E-03 0. -1.
        -11    1    3    3    0    0 -0.16379792207E+02  0.20242370993E+01  0.34019055621E+02  0.37811258564E+02  0.51100000000E-03 0.  1.
        -12    1    3    3    0    0 -0.82976981363E+00 -0.32273910841E+01  0.20408758601E+01  0.39076521633E+01  0.00000000000E+00 0.  1.
</event>
<event>
 7    1  0.5317846E-010  0.4778727E+02  0.7816164E-02  0.1312668E+00
        -11   -1    0    0    0    0  0.00000000000E+00  0.00000000000E+00  0.45593999997E+02  0.45594000000E+02  0.51100000000E-03 0.  1.
         11   -1    0    0    0    0 -0.00000000000E+00 -0.00000000000E+00 -0.45593999997E+02  0.45594000000E+02  0.51100000000E-03 0. -1.
    9900012    2    1    2    0    0  0.23286242572E+02  0.34337790701E+02  0.12739331275E+02  0.47787268155E+02  0.19999986826E+02 0.  0.
         12    1    1    2    0    0 -0.23286242572E+02 -0.34337790701E+02 -0.12739331275E+02  0.43400731845E+02  0.00000000000E+00 0. -1.
         11    1    3    3    0    0  0.18799254472E+01 -0.22702924254E+01  0.20310858597E+01  0.35796169368E+01  0.51100000000E-03 0. -1.
        -11    1    3    3    0    0  0.15821317322E+01  0.71811399900E+01  0.27013211604E+01  0.78338399682E+01  0.51100000000E-03 0.  1.
         12    1    3    3    0    0  0.19824185393E+02  0.29426943136E+02  0.80069242545E+01  0.36373811250E+02  0.00000000000E+00 0. -1.
</event>
<event>
 7    1  0.5317846E-010  0.4778727E+02  0.7816164E-02  0.1312668E+00
        -11   -1    0    0    0    0  0.00000000000E+00  0.00000000000E+00  0.45593999997E+02  0.45594000000E+02  0.51100000000E-03 0.  1.
         11   -1    0    0    0    0 -0.00000000000E+00 -0.00000000000E+00 -0.45593999997E+02  0.45594000000E+02  0.51100000000E-03 0. -1.
    9900012    2    1    2    0    0  0.42669868290E+02 -0.57968149193E+01  0.54132071650E+01  0.47787268037E+02  0.19999986287E+02 0.  0.
         12    1    1    2    0    0 -0.42669868290E+02  0.57968149193E+01 -0.54132071650E+01  0.43400731963E+02  0.00000000000E+00 0. -1.
         11    1    3    3    0    0  0.62809057975E+01  0.50387970082E+01  0.47330782054E+01  0.93403041966E+01  0.51100000000E-03 0. -1.
        -11    1    3    3    0    0  0.32180159780E+02 -0.80181748154E+01  0.19634992752E+01  0.33222118242E+02  0.51100000000E-03 0.  1.
        -12    1    3    3    0    0  0.42088027130E+01 -0.28174371121E+01 -0.12833703155E+01  0.52248455981E+01  0.00000000000E+00 0.  1.
</event>
<event>
 7    1  0.5317846E-010  0.4778727E+02  0.7816164E-02  0.1312668E+00
        -11   -1    0    0    0    0  0.00000000000E+00  0.00000000000E+00  0.45593999997E+02  0.45594000000E+02  0.51100000000E-03 0.  1.
         11   -1    0    0    0    0 -0.00000000000E+00 -0.00000000000E+00 -0.45593999997E+02  0.45594000000E+02  0.51100000000E-03 0. -1.
    9900012    2    1    2    0    0  0.28899594474E+02  0.31321482276E+02  0.82098460340E+01  0.47787269769E+02  0.19999994184E+02 0.  0.
         12    1    1    2    0    0 -0.28899594474E+02 -0.31321482276E+02 -0.82098460340E+01  0.43400730231E+02  0.00000000000E+00 0. -1.
         11    1    3    3    0    0  0.46158395819E+01  0.12432194480E+01  0.27974753408E+01  0.55387217104E+01  0.51100000000E-03 0. -1.
        -11    1    3    3    0    0 -0.18405405656E+01  0.60955174660E+01  0.17066630142E+01  0.65920878071E+01  0.51100000000E-03 0.  1.
        -12    1    3    3    0    0  0.26124295457E+02  0.23982745362E+02  0.37057076790E+01  0.35656460251E+02  0.00000000000E+00 0.  1.
</event>
<event>
 7    1  0.5317846E-010  0.4778729E+02  0.7816164E-02  0.1312668E+00
        -11   -1    0    0    0    0  0.00000000000E+00  0.00000000000E+00  0.45593999997E+02  0.45594000000E+02  0.51100000000E-03 0.  1.
         11   -1    0    0    0    0 -0.00000000000E+00 -0.00000000000E+00 -0.45593999997E+02  0.45594000000E+02  0.51100000000E-03 0. -1.
    9900012    2    1    2    0    0  0.29282810214E+02 -0.30458599633E+02 -0.99203013069E+01  0.47787289826E+02  0.20000085632E+02 0.  0.
         12    1    1    2    0    0 -0.29282810214E+02  0.30458599633E+02  0.99203013069E+01  0.43400710174E+02  0.00000000000E+00 0. -1.
         11    1    3    3    0    0  0.18861219712E+02 -0.23292655438E+02 -0.31928232217E+01  0.30141126833E+02  0.51100000000E-03 0. -1.
        -11    1    3    3    0    0  0.10360238266E+02 -0.89270474063E+01 -0.37404304079E+01  0.14178065179E+02  0.51100000000E-03 0.  1.
         12    1    3    3    0    0  0.61352236090E-01  0.17611032118E+01 -0.29870476773E+01  0.34680978138E+01  0.00000000000E+00 0. -1.
</event>
<event>
 7    1  0.5317846E-010  0.4778727E+02  0.7816164E-02  0.1312668E+00
        -11   -1    0    0    0    0  0.00000000000E+00  0.00000000000E+00  0.45593999997E+02  0.45594000000E+02  0.51100000000E-03 0.  1.
         11   -1    0    0    0    0 -0.00000000000E+00 -0.00000000000E+00 -0.45593999997E+02  0.45594000000E+02  0.51100000000E-03 0. -1.
    9900012    2    1    2    0    0  0.17154137267E+02 -0.58192975346E+01  0.39439758492E+02  0.47787271906E+02  0.20000003928E+02 0.  0.
         12    1    1    2    0    0 -0.17154137267E+02  0.58192975346E+01 -0.39439758492E+02  0.43400728094E+02  0.00000000000E+00 0. -1.
         11    1    3    3    0    0  0.31142257466E+01  0.25616629733E+00  0.75265088838E+01  0.81493778543E+01  0.51100000000E-03 0.  1.
        -11    1    3    3    0    0  0.17208738577E+02 -0.68237995105E+01  0.31239863049E+02  0.36312999969E+02  0.51100000000E-03 0. -1.
        -12    1    3    3    0    0 -0.31688270568E+01  0.74833567856E+00  0.67338655966E+00  0.33248940829E+01  0.00000000000E+00 0.  1.
</event>
<event>
 7    1  0.5317846E-010  0.4778727E+02  0.7816164E-02  0.1312668E+00
        -11   -1    0    0    0    0  0.00000000000E+00  0.00000000000E+00  0.45593999997E+02  0.45594000000E+02  0.51100000000E-03 0. -1.
         11   -1    0    0    0    0 -0.00000000000E+00 -0.00000000000E+00 -0.45593999997E+02  0.45594000000E+02  0.51100000000E-03 0.  1.
    9900012    2    1    2    0    0  0.34968624954E+02  0.25426850138E+02 -0.37806958384E+01  0.47787273046E+02  0.20000009126E+02 0.  0.
         12    1    1    2    0    0 -0.34968624954E+02 -0.25426850138E+02  0.37806958384E+01  0.43400726954E+02  0.00000000000E+00 0. -1.
         11    1    3    3    0    0  0.16591591738E+02  0.16199145410E+02  0.58078307120E+01  0.23904479209E+02  0.51100000000E-03 0. -1.
        -11    1    3    3    0    0  0.83716674897E+01  0.16677389962E+01 -0.70885885613E+01  0.11095686458E+02  0.51100000000E-03 0.  1.
        -12    1    3    3    0    0  0.10005365726E+02  0.75599657322E+01 -0.24999379890E+01  0.12787107379E+02  0.00000000000E+00 0.  1.
</event>
<event>
 7    1  0.5317846E-010  0.4778727E+02  0.7816164E-02  0.1312668E+00
        -11   -1    0    0    0    0  0.00000000000E+00  0.00000000000E+00  0.45593999997E+02  0.45594000000E+02  0.51100000000E-03 0.  1.
         11   -1    0    0    0    0 -0.00000000000E+00 -0.00000000000E+00 -0.45593999997E+02  0.45594000000E+02  0.51100000000E-03 0. -1.
    9900012    2    1    2    0    0  0.33234254327E+02  0.20812529695E+02  0.18599627131E+02  0.47787272099E+02  0.20000004806E+02 0.  0.
         12    1    1    2    0    0 -0.33234254327E+02 -0.20812529695E+02 -0.18599627131E+02  0.43400727901E+02  0.00000000000E+00 0. -1.
         11    1    3    3    0    0  0.13732390985E+02 -0.16506704277E+01  0.49347901059E+01  0.14685211223E+02  0.51100000000E-03 0. -1.
        -11    1    3    3    0    0  0.13291969146E+01  0.21179498602E+01  0.27583884640E+01  0.37230610024E+01  0.51100000000E-03 0.  1.
         12    1    3    3    0    0  0.18172666427E+02  0.20345250262E+02  0.10906448561E+02  0.29378999873E+02  0.00000000000E+00 0. -1.
</event>
<event>
 7    1  0.5317846E-010  0.4778727E+02  0.7816164E-02  0.1312668E+00
        -11   -1    0    0    0    0  0.00000000000E+00  0.00000000000E+00  0.45593999997E+02  0.45594000000E+02  0.51100000000E-03 0.  1.
         11   -1    0    0    0    0 -0.00000000000E+00 -0.00000000000E+00 -0.45593999997E+02  0.45594000000E+02  0.51100000000E-03 0. -1.
    9900012    2    1    2    0    0  0.11328375045E+02  0.22079540801E+00  0.41895613826E+02  0.47787270863E+02  0.19999999175E+02 0.  0.
         12    1    1    2    0    0 -0.11328375045E+02 -0.22079540801E+00 -0.41895613826E+02  0.43400729137E+02  0.00000000000E+00 0. -1.
         11    1    3    3    0    0  0.38922160092E+01  0.67036030622E+01  0.12020879687E+02  0.14303467698E+02  0.51100000000E-03 0. -1.
        -11    1    3    3    0    0  0.49484951471E+01 -0.12255389144E+01  0.26000212040E+02  0.26495293473E+02  0.51100000000E-03 0.  1.
         12    1    3    3    0    0  0.24876638882E+01 -0.52572687399E+01  0.38745220987E+01  0.69885096921E+01  0.00000000000E+00 0. -1.
</event>
<event>
 7    1  0.5317846E-010  0.4778727E+02  0.7816164E-02  0.1312668E+00
        -11   -1    0    0    0    0  0.00000000000E+00  0.00000000000E+00  0.45593999997E+02  0.45594000000E+02  0.51100000000E-03 0.  1.
         11   -1    0    0    0    0 -0.00000000000E+00 -0.00000000000E+00 -0.45593999997E+02  0.45594000000E+02  0.51100000000E-03 0. -1.
    9900012    2    1    2    0    0  0.35798886508E+02  0.17246677795E+02  0.17453227939E+02  0.47787270332E+02  0.19999996753E+02 0.  0.
         12    1    1    2    0    0 -0.35798886508E+02 -0.17246677795E+02 -0.17453227939E+02  0.43400729668E+02  0.00000000000E+00 0. -1.
         11    1    3    3    0    0 -0.57337270049E+00 -0.30609556346E+00  0.47171724533E+01  0.47617399092E+01  0.51100000000E-03 0. -1.
        -11    1    3    3    0    0  0.91921860017E+01  0.31265089228E+01 -0.34643014029E-01  0.97094048187E+01  0.51100000000E-03 0.  1.
         12    1    3    3    0    0  0.27180073207E+02  0.14426264436E+02  0.12770698500E+02  0.33316125604E+02  0.00000000000E+00 0. -1.
</event>
<event>
 7    1  0.5317846E-010  0.4778727E+02  0.7816164E-02  0.1312668E+00
        -11   -1    0    0    0    0  0.00000000000E+00  0.00000000000E+00  0.45593999997E+02  0.45594000000E+02  0.51100000000E-03 0.  1.
         11   -1    0    0    0    0 -0.00000000000E+00 -0.00000000000E+00 -0.45593999997E+02  0.45594000000E+02  0.51100000000E-03 0. -1.
    9900012    2    1    2    0    0 -0.25522767163E+02 -0.12758522768E+02  0.32702163488E+02  0.47787273697E+02  0.20000012093E+02 0.  0.
         12    1    1    2    0    0  0.25522767163E+02  0.12758522768E+02 -0.32702163488E+02  0.43400726303E+02  0.00000000000E+00 0. -1.
         11    1    3    3    0    0 -0.22129598922E+01 -0.20361478452E+01 -0.22551837291E+01  0.37588486861E+01  0.51100000000E-03 0. -1.
        -11    1    3    3    0    0 -0.17472379187E+02 -0.98260010518E+01  0.31009572303E+02  0.36924624653E+02  0.51100000000E-03 0.  1.
         12    1    3    3    0    0 -0.58374280834E+01 -0.89637387148E+00  0.39477749140E+01  0.71038003574E+01  0.00000000000E+00 0. -1.
</event>
<event>
 7    1  0.5317846E-010  0.4778728E+02  0.7816164E-02  0.1312668E+00
        -11   -1    0    0    0    0  0.00000000000E+00  0.00000000000E+00  0.45593999997E+02  0.45594000000E+02  0.51100000000E-03 0. -1.
         11   -1    0    0    0    0 -0.00000000000E+00 -0.00000000000E+00 -0.45593999997E+02  0.45594000000E+02  0.51100000000E-03 0.  1.
    9900012    2    1    2    0    0 -0.24298984923E+02 -0.35469068006E+02 -0.59268412792E+01  0.47787275339E+02  0.20000019583E+02 0.  0.
         12    1    1    2    0    0  0.24298984923E+02  0.35469068006E+02  0.59268412792E+01  0.43400724661E+02  0.00000000000E+00 0. -1.
         11    1    3    3    0    0 -0.96452829805E+01 -0.21983759831E+02 -0.12090528145E+02  0.26879323859E+02  0.51100000000E-03 0. -1.
        -11    1    3    3    0    0 -0.14544692941E+02 -0.13473011072E+02  0.60057874052E+01  0.20715684945E+02  0.51100000000E-03 0.  1.
         12    1    3    3    0    0 -0.10900900144E+00 -0.12297103253E-01  0.15789946026E+00  0.19226653556E+00  0.00000000000E+00 0. -1.
</event>
<event>
 7    1  0.5317846E-010  0.4778727E+02  0.7816164E-02  0.1312668E+00
        -11   -1    0    0    0    0  0.00000000000E+00  0.00000000000E+00  0.45593999997E+02  0.45594000000E+02  0.51100000000E-03 0. -1.
         11   -1    0    0    0    0 -0.00000000000E+00 -0.00000000000E+00 -0.45593999997E+02  0.45594000000E+02  0.51100000000E-03 0.  1.
    9900012    2    1    2    0    0  0.38349377419E+02  0.19046400326E+02  0.70840182884E+01  0.47787269258E+02  0.19999991857E+02 0.  0.
         12    1    1    2    0    0 -0.38349377419E+02 -0.19046400326E+02 -0.70840182884E+01  0.43400730742E+02  0.00000000000E+00 0. -1.
         11    1    3    3    0    0  0.21342548724E+02  0.67062007800E+01  0.11025283042E+02  0.24940617100E+02  0.51100000000E-03 0. -1.
        -11    1    3    3    0    0  0.11190180282E+02  0.12163800814E+02 -0.40854553770E+01  0.17025543483E+02  0.51100000000E-03 0.  1.
        -12    1    3    3    0    0  0.58166484128E+01  0.17639873209E+00  0.14419062350E+00  0.58211086750E+01  0.00000000000E+00 0.  1.
</event>
<event>
 7    1  0.5317846E-010  0.4778727E+02  0.7816164E-02  0.1312668E+00
        -11   -1    0    0    0    0  0.00000000000E+00  0.00000000000E+00  0.45593999997E+02  0.45594000000E+02  0.51100000000E-03 0.  1.
         11   -1    0    0    0    0 -0.00000000000E+00 -0.00000000000E+00 -0.45593999997E+02  0.45594000000E+02  0.51100000000E-03 0. -1.
    9900012    2    1    2    0    0 -0.19153233899E+02 -0.17845121026E+02  0.34616884821E+02  0.47787269269E+02  0.19999991907E+02 0.  0.
         12    1    1    2    0    0  0.19153233899E+02  0.17845121026E+02 -0.34616884821E+02  0.43400730731E+02  0.00000000000E+00 0. -1.
         11    1    3    3    0    0  0.53358358657E+00  0.52998855716E+00  0.10687253183E+02  0.10713681915E+02  0.51100000000E-03 0. -1.
        -11    1    3    3    0    0 -0.18730240907E+01 -0.47281311267E+01  0.82731900345E+01  0.97112881125E+01  0.51100000000E-03 0.  1.
         12    1    3    3    0    0 -0.17813793395E+02 -0.13646978457E+02  0.15656441604E+02  0.27362299242E+02  0.00000000000E+00 0. -1.
</event>
<event>
 7    1  0.5317846E-010  0.4778727E+02  0.7816164E-02  0.1312668E+00
        -11   -1    0    0    0    0  0.00000000000E+00  0.00000000000E+00  0.45593999997E+02  0.45594000000E+02  0.51100000000E-03 0. -1.
         11   -1    0    0    0    0 -0.00000000000E+00 -0.00000000000E+00 -0.45593999997E+02  0.45594000000E+02  0.51100000000E-03 0.  1.
    9900012    2    1    2    0    0 -0.27864871047E+02 -0.16062573117E+02  0.29140451201E+02  0.47787272013E+02  0.20000004415E+02 0.  0.
         12    1    1    2    0    0  0.27864871047E+02  0.16062573117E+02 -0.29140451201E+02  0.43400727987E+02  0.00000000000E+00 0. -1.
         11    1    3    3    0    0 -0.18582403001E+01 -0.44459545076E+01  0.16712427938E+01  0.51002569772E+01  0.51100000000E-03 0. -1.
        -11    1    3    3    0    0 -0.21221782081E+02 -0.35733688158E+01  0.25041619630E+02  0.33018414761E+02  0.51100000000E-03 0.  1.
        -12    1    3    3    0    0 -0.47848486657E+01 -0.80432497935E+01  0.24275887777E+01  0.96686002745E+01  0.00000000000E+00 0.  1.
</event>
<event>
 7    1  0.5317846E-010  0.4778727E+02  0.7816164E-02  0.1312668E+00
        -11   -1    0    0    0    0  0.00000000000E+00  0.00000000000E+00  0.45593999997E+02  0.45594000000E+02  0.51100000000E-03 0. -1.
         11   -1    0    0    0    0 -0.00000000000E+00 -0.00000000000E+00 -0.45593999997E+02  0.45594000000E+02  0.51100000000E-03 0.  1.
    9900012    2    1    2    0    0 -0.13676727764E+01 -0.24113866795E+02 -0.36059318157E+02  0.47787268133E+02  0.19999986727E+02 0.  0.
         12    1    1    2    0    0  0.13676727764E+01  0.24113866795E+02  0.36059318157E+02  0.43400731867E+02  0.00000000000E+00 0. -1.
         11    1    3    3    0    0 -0.36216745148E+01  0.18615068409E+01 -0.47257149648E+01  0.62381180014E+01  0.51100000000E-03 0. -1.
        -11    1    3    3    0    0  0.38937312994E+01 -0.14620119783E+02 -0.13134964720E+02  0.20035876430E+02  0.51100000000E-03 0.  1.
        -12    1    3    3    0    0 -0.16397295610E+01 -0.11355253853E+02 -0.18198638472E+02  0.21513273702E+02  0.00000000000E+00 0.  1.
</event>
<event>
 7    1  0.5317846E-010  0.4778727E+02  0.7816164E-02  0.1312668E+00
        -11   -1    0    0    0    0  0.00000000000E+00  0.00000000000E+00  0.45593999997E+02  0.45594000000E+02  0.51100000000E-03 0.  1.
         11   -1    0    0    0    0 -0.00000000000E+00 -0.00000000000E+00 -0.45593999997E+02  0.45594000000E+02  0.51100000000E-03 0. -1.
    9900012    2    1    2    0    0 -0.67419910260E+01 -0.69431436123E+01  0.42307937534E+02  0.47787271152E+02  0.20000000489E+02 0.  0.
         12    1    1    2    0    0  0.67419910260E+01  0.69431436123E+01 -0.42307937534E+02  0.43400728848E+02  0.00000000000E+00 0. -1.
         11    1    3    3    0    0 -0.10176421535E-01 -0.61523060840E+01  0.13514905595E+02  0.14849365212E+02  0.51100000000E-03 0.  1.
        -11    1    3    3    0    0  0.29633525952E+01  0.34886504972E+01  0.44312381627E+01  0.63708722174E+01  0.51100000000E-03 0. -1.
        -12    1    3    3    0    0 -0.96951671996E+01 -0.42794880255E+01  0.24361793776E+02  0.26567033722E+02  0.00000000000E+00 0.  1.
</event>
<event>
 7    1  0.5317846E-010  0.4778727E+02  0.7816164E-02  0.1312668E+00
        -11   -1    0    0    0    0  0.00000000000E+00  0.00000000000E+00  0.45593999997E+02  0.45594000000E+02  0.51100000000E-03 0.  1.
         11   -1    0    0    0    0 -0.00000000000E+00 -0.00000000000E+00 -0.45593999997E+02  0.45594000000E+02  0.51100000000E-03 0. -1.
    9900012    2    1    2    0    0  0.30522101870E+02  0.20259478502E+02  0.23271837108E+02  0.47787267586E+02  0.19999984230E+02 0.  0.
         12    1    1    2    0    0 -0.30522101870E+02 -0.20259478502E+02 -0.23271837108E+02  0.43400732414E+02  0.00000000000E+00 0. -1.
         11    1    3    3    0    0  0.23325720160E+01  0.39068425908E+01  0.74770144473E+01  0.87527170950E+01  0.51100000000E-03 0. -1.
        -11    1    3    3    0    0  0.25212820762E+02  0.77224068255E+01  0.98924049583E+01  0.28163479439E+02  0.51100000000E-03 0.  1.
        -12    1    3    3    0    0  0.29767090919E+01  0.86302290857E+01  0.59024177019E+01  0.10871071052E+02  0.00000000000E+00 0.  1.
</event>
<event>
 7    1  0.5317846E-010  0.4778726E+02  0.7816164E-02  0.1312668E+00
        -11   -1    0    0    0    0  0.00000000000E+00  0.00000000000E+00  0.45593999997E+02  0.45594000000E+02  0.51100000000E-03 0.  1.
         11   -1    0    0    0    0 -0.00000000000E+00 -0.00000000000E+00 -0.45593999997E+02  0.45594000000E+02  0.51100000000E-03 0. -1.
    9900012    2    1    2    0    0  0.51821819118E+01  0.42726573627E+02  0.55864801928E+01  0.47787264244E+02  0.19999968992E+02 0.  0.
         12    1    1    2    0    0 -0.51821819118E+01 -0.42726573627E+02 -0.55864801928E+01  0.43400735756E+02  0.00000000000E+00 0. -1.
         11    1    3    3    0    0 -0.64846732486E+01  0.16749685211E+02 -0.15595404653E+01  0.18028730087E+02  0.51100000000E-03 0. -1.
        -11    1    3    3    0    0  0.81704055248E+01  0.12768932092E+02  0.47591463930E+01  0.15888694970E+02  0.51100000000E-03 0.  1.
         12    1    3    3    0    0  0.34964496356E+01  0.13207956324E+02  0.23868742651E+01  0.13869839187E+02  0.00000000000E+00 0. -1.
</event>
<event>
 7    1  0.5317846E-010  0.4778727E+02  0.7816164E-02  0.1312668E+00
        -11   -1    0    0    0    0  0.00000000000E+00  0.00000000000E+00  0.45593999997E+02  0.45594000000E+02  0.51100000000E-03 0.  1.
         11   -1    0    0    0    0 -0.00000000000E+00 -0.00000000000E+00 -0.45593999997E+02  0.45594000000E+02  0.51100000000E-03 0. -1.
    9900012    2    1    2    0    0 -0.12735604243E+02  0.36410976682E+02  0.19891411313E+02  0.47787273250E+02  0.20000010058E+02 0.  0.
         12    1    1    2    0    0  0.12735604243E+02 -0.36410976682E+02 -0.19891411313E+02  0.43400726750E+02  0.00000000000E+00 0. -1.
         11    1    3    3    0    0 -0.97805810265E+01  0.11974195079E+02  0.12944226847E+02  0.20164179178E+02  0.51100000000E-03 0. -1.
        -11    1    3    3    0    0  0.37334172506E+01  0.70015696722E+01  0.85656977849E+00  0.79808579920E+01  0.51100000000E-03 0.  1.
        -12    1    3    3    0    0 -0.66884404673E+01  0.17435211931E+02  0.60906146875E+01  0.19642236080E+02  0.00000000000E+00 0.  1.
</event>
<event>
 7    1  0.5317846E-010  0.4778727E+02  0.7816164E-02  0.1312668E+00
        -11   -1    0    0    0    0  0.00000000000E+00  0.00000000000E+00  0.45593999997E+02  0.45594000000E+02  0.51100000000E-03 0. -1.
         11   -1    0    0    0    0 -0.00000000000E+00 -0.00000000000E+00 -0.45593999997E+02  0.45594000000E+02  0.51100000000E-03 0.  1.
    9900012    2    1    2    0    0 -0.10804160277E+02 -0.41898369781E+02 -0.33793582521E+01  0.47787270377E+02  0.19999996957E+02 0.  0.
         12    1    1    2    0    0  0.10804160277E+02  0.41898369781E+02  0.33793582521E+01  0.43400729623E+02  0.00000000000E+00 0. -1.
         11    1    3    3    0    0 -0.37076949298E+01 -0.10761431380E+02  0.68930250651E+01  0.13306735206E+02  0.51100000000E-03 0. -1.
        -11    1    3    3    0    0 -0.84234721265E+01 -0.24693028056E+02 -0.98506105372E+01  0.27887901417E+02  0.51100000000E-03 0.  1.
         12    1    3    3    0    0  0.13270067793E+01 -0.64439103456E+01 -0.42177277999E+00  0.65926337539E+01  0.00000000000E+00 0. -1.
</event>
<event>
 7    1  0.5317846E-010  0.4778727E+02  0.7816164E-02  0.1312668E+00
        -11   -1    0    0    0    0  0.00000000000E+00  0.00000000000E+00  0.45593999997E+02  0.45594000000E+02  0.51100000000E-03 0.  1.
         11   -1    0    0    0    0 -0.00000000000E+00 -0.00000000000E+00 -0.45593999997E+02  0.45594000000E+02  0.51100000000E-03 0. -1.
    9900012    2    1    2    0    0 -0.83245001347E+01  0.26971393641E+01  0.42509427933E+02  0.47787270439E+02  0.19999997239E+02 0.  0.
         12    1    1    2    0    0  0.83245001347E+01 -0.26971393641E+01 -0.42509427933E+02  0.43400729561E+02  0.00000000000E+00 0. -1.
         11    1    3    3    0    0 -0.73622729712E+01  0.57379716468E+01  0.33415801310E+02  0.34695001937E+02  0.51100000000E-03 0.  1.
        -11    1    3    3    0    0  0.64322110671E+00 -0.13085225942E+01 -0.15861222303E+01  0.21544718059E+01  0.51100000000E-03 0. -1.
         12    1    3    3    0    0 -0.16054482703E+01 -0.17323096886E+01  0.10679748853E+02  0.10937796696E+02  0.00000000000E+00 0. -1.
</event>
<event>
 7    1  0.5317846E-010  0.4778727E+02  0.7816164E-02  0.1312668E+00
        -11   -1    0    0    0    0  0.00000000000E+00  0.00000000000E+00  0.45593999997E+02  0.45594000000E+02  0.51100000000E-03 0.  1.
         11   -1    0    0    0    0 -0.00000000000E+00 -0.00000000000E+00 -0.45593999997E+02  0.45594000000E+02  0.51100000000E-03 0. -1.
    9900012    2    1    2    0    0 -0.37664760817E+02  0.17184800072E+01  0.21495024106E+02  0.47787269105E+02  0.19999991156E+02 0.  0.
         12    1    1    2    0    0  0.37664760817E+02 -0.17184800072E+01 -0.21495024106E+02  0.43400730895E+02  0.00000000000E+00 0. -1.
         11    1    3    3    0    0 -0.17141097084E+02 -0.55005080565E+01  0.78162921248E+01  0.19625677592E+02  0.51100000000E-03 0.  1.
        -11    1    3    3    0    0 -0.34001601520E+01  0.58128899050E+01  0.70404578273E+01  0.97426292542E+01  0.51100000000E-03 0. -1.
         12    1    3    3    0    0 -0.17123503581E+02  0.14060981587E+01  0.66382741535E+01  0.18418962258E+02  0.00000000000E+00 0. -1.
</event>
<event>
 7    1  0.5317846E-010  0.4778727E+02  0.7816164E-02  0.1312668E+00
        -11   -1    0    0    0    0  0.00000000000E+00  0.00000000000E+00  0.45593999997E+02  0.45594000000E+02  0.51100000000E-03 0.  1.
         11   -1    0    0    0    0 -0.00000000000E+00 -0.00000000000E+00 -0.45593999997E+02  0.45594000000E+02  0.51100000000E-03 0. -1.
    9900012    2    1    2    0    0 -0.16357116921E+02 -0.18505169373E+02  0.35687905698E+02  0.47787272119E+02  0.20000004900E+02 0.  0.
         12    1    1    2    0    0  0.16357116921E+02  0.18505169373E+02 -0.35687905698E+02  0.43400727881E+02  0.00000000000E+00 0. -1.
         11    1    3    3    0    0 -0.58566372462E+01 -0.16906841642E+02  0.24575425706E+02  0.30398898715E+02  0.51100000000E-03 0. -1.
        -11    1    3    3    0    0 -0.10298475216E+02 -0.30976486952E+01  0.65740965387E+01  0.12604473998E+02  0.51100000000E-03 0.  1.
         12    1    3    3    0    0 -0.20200445823E+00  0.14993209651E+01  0.45383834531E+01  0.47838994058E+01  0.00000000000E+00 0. -1.
</event>
<event>
 7    1  0.6209064E-010  0.4778727E+02  0.7816164E-02  0.1312668E+00
        -11   -1    0    0    0    0  0.00000000000E+00  0.00000000000E+00  0.45593999997E+02  0.45594000000E+02  0.51100000000E-03 0.  1.
         11   -1    0    0    0    0 -0.00000000000E+00 -0.00000000000E+00 -0.45593999997E+02  0.45594000000E+02  0.51100000000E-03 0. -1.
    9900012    2    1    2    0    0 -0.38842298069E+02  0.12150531160E+02  0.15075281031E+02  0.47787267001E+02  0.19999981564E+02 0.  0.
         12    1    1    2    0    0  0.38842298069E+02 -0.12150531160E+02 -0.15075281031E+02  0.43400732999E+02  0.00000000000E+00 0. -1.
         11    1    3    3    0    0 -0.48813636143E+00 -0.30482519935E+01  0.48080527805E+00  0.31243065310E+01  0.51100000000E-03 0. -1.
        -11    1    3    3    0    0 -0.13595899721E+02  0.11036946533E+01  0.34393912503E+01  0.14067552863E+02  0.51100000000E-03 0.  1.
         12    1    3    3    0    0 -0.24758261986E+02  0.14095088500E+02  0.11155084502E+02  0.30595407607E+02  0.00000000000E+00 0. -1.
</event>
<event>
 7    1  0.5317846E-010  0.4778727E+02  0.7816164E-02  0.1312668E+00
        -11   -1    0    0    0    0  0.00000000000E+00  0.00000000000E+00  0.45593999997E+02  0.45594000000E+02  0.51100000000E-03 0.  1.
         11   -1    0    0    0    0 -0.00000000000E+00 -0.00000000000E+00 -0.45593999997E+02  0.45594000000E+02  0.51100000000E-03 0. -1.
    9900012    2    1    2    0    0 -0.25464198629E+02 -0.27678250459E+02  0.21658998227E+02  0.47787272304E+02  0.20000005745E+02 0.  0.
         12    1    1    2    0    0  0.25464198629E+02  0.27678250459E+02 -0.21658998227E+02  0.43400727696E+02  0.00000000000E+00 0. -1.
         11    1    3    3    0    0 -0.21988979686E+02 -0.24276219894E+02  0.16773049678E+02  0.36799256457E+02  0.51100000000E-03 0.  1.
        -11    1    3    3    0    0 -0.28520043442E+01 -0.57986953607E+01  0.12390649231E+01  0.65798236155E+01  0.51100000000E-03 0. -1.
         12    1    3    3    0    0 -0.62321459842E+00  0.23966647954E+01  0.36468836258E+01  0.44081922323E+01  0.00000000000E+00 0. -1.
</event>
<event>
 7    1  0.5317846E-010  0.4778727E+02  0.7816164E-02  0.1312668E+00
        -11   -1    0    0    0    0  0.00000000000E+00  0.00000000000E+00  0.45593999997E+02  0.45594000000E+02  0.51100000000E-03 0.  1.
         11   -1    0    0    0    0 -0.00000000000E+00 -0.00000000000E+00 -0.45593999997E+02  0.45594000000E+02  0.51100000000E-03 0. -1.
    9900012    2    1    2    0    0  0.37178050898E+02  0.93929894772E+00  0.22372600620E+02  0.47787274089E+02  0.20000013881E+02 0.  0.
         12    1    1    2    0    0 -0.37178050898E+02 -0.93929894772E+00 -0.22372600620E+02  0.43400725911E+02  0.00000000000E+00 0. -1.
         11    1    3    3    0    0  0.11747298742E+02 -0.53752322044E+01  0.91889519866E-01  0.12919001236E+02  0.51100000000E-03 0. -1.
        -11    1    3    3    0    0  0.11691924380E+02  0.35015732546E+01  0.14036414575E+02  0.18600619488E+02  0.51100000000E-03 0.  1.
        -12    1    3    3    0    0  0.13738827777E+02  0.28129578976E+01  0.82442965249E+01  0.16267653365E+02  0.00000000000E+00 0.  1.
</event>
<event>
 7    1  0.5317846E-010  0.4778726E+02  0.7816164E-02  0.1312668E+00
        -11   -1    0    0    0    0  0.00000000000E+00  0.00000000000E+00  0.45593999997E+02  0.45594000000E+02  0.51100000000E-03 0.  1.
         11   -1    0    0    0    0 -0.00000000000E+00 -0.00000000000E+00 -0.45593999997E+02  0.45594000000E+02  0.51100000000E-03 0. -1.
    9900012    2    1    2    0    0 -0.98900576817E+01  0.70602355698E+01  0.41664900762E+02  0.47787261265E+02  0.19999955410E+02 0.  0.
         12    1    1    2    0    0  0.98900576817E+01 -0.70602355698E+01 -0.41664900762E+02  0.43400738735E+02  0.00000000000E+00 0. -1.
         11    1    3    3    0    0  0.17897663249E+01 -0.31968454384E+01  0.12924514008E+02  0.13433768900E+02  0.51100000000E-03 0.  1.
        -11    1    3    3    0    0 -0.11966092747E+02  0.86798917719E+01  0.29163056473E+02  0.32695745287E+02  0.51100000000E-03 0. -1.
         12    1    3    3    0    0  0.28626874060E+00  0.15771892364E+01 -0.42266971909E+00  0.16577470768E+01  0.00000000000E+00 0. -1.
</event>
<event>
 7    1  0.5317846E-010  0.4778727E+02  0.7816164E-02  0.1312668E+00
        -11   -1    0    0    0    0  0.00000000000E+00  0.00000000000E+00  0.45593999997E+02  0.45594000000E+02  0.51100000000E-03 0. -1.
         11   -1    0    0    0    0 -0.00000000000E+00 -0.00000000000E+00 -0.45593999997E+02  0.45594000000E+02  0.51100000000E-03 0.  1.
    9900012    2    1    2    0    0 -0.41585151036E+02 -0.52456850464E+01 -0.11259712210E+02  0.47787272848E+02  0.20000008224E+02 0.  0.
         12    1    1    2    0    0  0.41585151036E+02  0.52456850464E+01  0.11259712210E+02  0.43400727152E+02  0.00000000000E+00 0. -1.
         11    1    3    3    0    0 -0.14795290486E+02 -0.19660564797E+01  0.17447108077E+01  0.15026976233E+02  0.51100000000E-03 0. -1.
        -11    1    3    3    0    0 -0.25171898394E+02 -0.45128687238E+01 -0.15214157339E+02  0.29756697342E+02  0.51100000000E-03 0.  1.
        -12    1    3    3    0    0 -0.16179621548E+01  0.12332401572E+01  0.22097343214E+01  0.30035992726E+01  0.00000000000E+00 0.  1.
</event>
<event>
 7    1  0.5317846E-010  0.4778726E+02  0.7816164E-02  0.1312668E+00
        -11   -1    0    0    0    0  0.00000000000E+00  0.00000000000E+00  0.45593999997E+02  0.45594000000E+02  0.51100000000E-03 0.  1.
         11   -1    0    0    0    0 -0.00000000000E+00 -0.00000000000E+00 -0.45593999997E+02  0.45594000000E+02  0.51100000000E-03 0. -1.
    9900012    2    1    2    0    0 -0.19202020006E+02  0.94152910462E+01  0.37765844256E+02  0.47787259566E+02  0.19999947667E+02 0.  0.
         12    1    1    2    0    0  0.19202020006E+02 -0.94152910462E+01 -0.37765844256E+02  0.43400740434E+02  0.00000000000E+00 0. -1.
         11    1    3    3    0    0 -0.12292757214E+01  0.30539981921E+01  0.77830682827E+01  0.84506908540E+01  0.51100000000E-03 0. -1.
        -11    1    3    3    0    0 -0.10712039197E+02  0.25374463330E+01  0.29064302055E+02  0.31079254686E+02  0.51100000000E-03 0.  1.
        -12    1    3    3    0    0 -0.72607050876E+01  0.38238465211E+01  0.91847391838E+00  0.82573140261E+01  0.00000000000E+00 0.  1.
</event>
<event>
 7    1  0.5317846E-010  0.4778727E+02  0.7816164E-02  0.1312668E+00
        -11   -1    0    0    0    0  0.00000000000E+00  0.00000000000E+00  0.45593999997E+02  0.45594000000E+02  0.51100000000E-03 0. -1.
         11   -1    0    0    0    0 -0.00000000000E+00 -0.00000000000E+00 -0.45593999997E+02  0.45594000000E+02  0.51100000000E-03 0.  1.
    9900012    2    1    2    0    0  0.86699425132E+01  0.29195879924E+02 -0.30920150923E+02  0.47787273729E+02  0.20000012242E+02 0.  0.
         12    1    1    2    0    0 -0.86699425132E+01 -0.29195879924E+02  0.30920150923E+02  0.43400726271E+02  0.00000000000E+00 0. -1.
         11    1    3    3    0    0  0.13679361714E+02  0.14894550487E+02 -0.15627978645E+02  0.25557900695E+02  0.51100000000E-03 0. -1.
        -11    1    3    3    0    0  0.66235780074E+00  0.25651525209E+01 -0.48551027521E+01  0.55308903719E+01  0.51100000000E-03 0.  1.
         12    1    3    3    0    0 -0.56717770017E+01  0.11736176916E+02 -0.10437069526E+02  0.16698482663E+02  0.00000000000E+00 0. -1.
</event>
<event>
 7    1  0.5317846E-010  0.4778727E+02  0.7816164E-02  0.1312668E+00
        -11   -1    0    0    0    0  0.00000000000E+00  0.00000000000E+00  0.45593999997E+02  0.45594000000E+02  0.51100000000E-03 0. -1.
         11   -1    0    0    0    0 -0.00000000000E+00 -0.00000000000E+00 -0.45593999997E+02  0.45594000000E+02  0.51100000000E-03 0.  1.
    9900012    2    1    2    0    0 -0.32241940798E+02 -0.17537293253E+02 -0.23162982615E+02  0.47787272302E+02  0.20000005735E+02 0.  0.
         12    1    1    2    0    0  0.32241940798E+02  0.17537293253E+02  0.23162982615E+02  0.43400727698E+02  0.00000000000E+00 0. -1.
         11    1    3    3    0    0 -0.84970881073E+01 -0.11107964212E+02 -0.29082869958E+01  0.14284449893E+02  0.51100000000E-03 0. -1.
        -11    1    3    3    0    0 -0.22723324877E+02 -0.85702908624E+01 -0.17989849435E+02  0.30223071682E+02  0.51100000000E-03 0.  1.
         12    1    3    3    0    0 -0.10215278139E+01  0.21409618215E+01 -0.22648461843E+01  0.32797507274E+01  0.00000000000E+00 0. -1.
</event>
<event>
 7    1  0.5317846E-010  0.4778726E+02  0.7816164E-02  0.1312668E+00
        -11   -1    0    0    0    0  0.00000000000E+00  0.00000000000E+00  0.45593999997E+02  0.45594000000E+02  0.51100000000E-03 0.  1.
         11   -1    0    0    0    0 -0.00000000000E+00 -0.00000000000E+00 -0.45593999997E+02  0.45594000000E+02  0.51100000000E-03 0. -1.
    9900012    2    1    2    0    0  0.16826914786E+02  0.35747189889E+01  0.39845956793E+02  0.47787263258E+02  0.19999964497E+02 0.  0.
         12    1    1    2    0    0 -0.16826914786E+02 -0.35747189889E+01 -0.39845956793E+02  0.43400736742E+02  0.00000000000E+00 0. -1.
         11    1    3    3    0    0  0.10295359270E+02  0.24179841789E+01  0.68909876277E+01  0.12622471261E+02  0.51100000000E-03 0. -1.
        -11    1    3    3    0    0  0.67725027772E+01 -0.26558684545E+01  0.27875445423E+02  0.28809041791E+02  0.51100000000E-03 0.  1.
        -12    1    3    3    0    0 -0.24094726169E+00  0.38126032645E+01  0.50795237419E+01  0.63557502060E+01  0.00000000000E+00 0.  1.
</event>
<event>
 7    1  0.5317846E-010  0.4778725E+02  0.7816164E-02  0.1312668E+00
        -11   -1    0    0    0    0  0.00000000000E+00  0.00000000000E+00  0.45593999997E+02  0.45594000000E+02  0.51100000000E-03 0. -1.
         11   -1    0    0    0    0 -0.00000000000E+00 -0.00000000000E+00 -0.45593999997E+02  0.45594000000E+02  0.51100000000E-03 0.  1.
    9900012    2    1    2    0    0  0.10874752517E+02  0.30087548803E+01 -0.41908379819E+02  0.47787249462E+02  0.19999901596E+02 0.  0.
         12    1    1    2    0    0 -0.10874752517E+02 -0.30087548803E+01  0.41908379819E+02  0.43400750538E+02  0.00000000000E+00 0. -1.
         11    1    3    3    0    0  0.34441296251E+01 -0.77131474623E+00 -0.85812267402E+00  0.36322623938E+01  0.51100000000E-03 0.  1.
        -11    1    3    3    0    0 -0.40769448772E+00 -0.26301021685E+01 -0.25241522924E+02  0.25381452519E+02  0.51100000000E-03 0. -1.
        -12    1    3    3    0    0  0.78383173794E+01  0.64101717951E+01 -0.15808734221E+02  0.18773534549E+02  0.00000000000E+00 0.  1.
</event>
<event>
 7    1  0.5317846E-010  0.4778727E+02  0.7816164E-02  0.1312668E+00
        -11   -1    0    0    0    0  0.00000000000E+00  0.00000000000E+00  0.45593999997E+02  0.45594000000E+02  0.51100000000E-03 0.  1.
         11   -1    0    0    0    0 -0.00000000000E+00 -0.00000000000E+00 -0.45593999997E+02  0.45594000000E+02  0.51100000000E-03 0. -1.
    9900012    2    1    2    0    0 -0.37912369122E+02  0.20747134433E+02 -0.39789148389E+01  0.47787273244E+02  0.20000010028E+02 0.  0.
         12    1    1    2    0    0  0.37912369122E+02 -0.20747134433E+02  0.39789148389E+01  0.43400726756E+02  0.00000000000E+00 0. -1.
         11    1    3    3    0    0 -0.18522974927E+02  0.18282141788E+02 -0.26845861067E+00  0.26027089327E+02  0.51100000000E-03 0. -1.
        -11    1    3    3    0    0 -0.59160244460E+01  0.37532946200E+01  0.16577855112E+01  0.71996401863E+01  0.51100000000E-03 0.  1.
         12    1    3    3    0    0 -0.13473369749E+02 -0.12883019749E+01 -0.53682417394E+01  0.14560543731E+02  0.00000000000E+00 0. -1.
</event>
<event>
 7    1  0.5317846E-010  0.4778727E+02  0.7816164E-02  0.1312668E+00
        -11   -1    0    0    0    0  0.00000000000E+00  0.00000000000E+00  0.45593999997E+02  0.45594000000E+02  0.51100000000E-03 0. -1.
         11   -1    0    0    0    0 -0.00000000000E+00 -0.00000000000E+00 -0.45593999997E+02  0.45594000000E+02  0.51100000000E-03 0.  1.
    9900012    2    1    2    0    0  0.20687361162E+02 -0.29552297509E+02 -0.24131264246E+02  0.47787272886E+02  0.20000008399E+02 0.  0.
         12    1    1    2    0    0 -0.20687361162E+02  0.29552297509E+02  0.24131264246E+02  0.43400727114E+02  0.00000000000E+00 0. -1.
         11    1    3    3    0    0 -0.30592038874E+01 -0.33381764340E+01 -0.28782196840E+01  0.53652864918E+01  0.51100000000E-03 0. -1.
        -11    1    3    3    0    0  0.24127019954E+02 -0.26767427985E+02 -0.20753317572E+02  0.41584955012E+02  0.51100000000E-03 0.  1.
        -12    1    3    3    0    0 -0.38045490499E+00  0.55330691044E+00 -0.49972698967E+00  0.83703138297E+00  0.00000000000E+00 0.  1.
</event>
<event>
 7    1  0.5317846E-010  0.4778727E+02  0.7816164E-02  0.1312668E+00
        -11   -1    0    0    0    0  0.00000000000E+00  0.00000000000E+00  0.45593999997E+02  0.45594000000E+02  0.51100000000E-03 0.  1.
         11   -1    0    0    0    0 -0.00000000000E+00 -0.00000000000E+00 -0.45593999997E+02  0.45594000000E+02  0.51100000000E-03 0. -1.
    9900012    2    1    2    0    0  0.19990824097E+02  0.37774055800E+02 -0.75572113972E+01  0.47787265170E+02  0.19999973217E+02 0.  0.
         12    1    1    2    0    0 -0.19990824097E+02 -0.37774055800E+02  0.75572113972E+01  0.43400734830E+02  0.00000000000E+00 0. -1.
         11    1    3    3    0    0  0.19970695476E+02  0.22370195895E+02 -0.49788353361E+01  0.30398077961E+02  0.51100000000E-03 0. -1.
        -11    1    3    3    0    0  0.94522207646E+00  0.83976476375E+01  0.23524564250E+01  0.87719998923E+01  0.51100000000E-03 0.  1.
         12    1    3    3    0    0 -0.92509345556E+00  0.70062122678E+01 -0.49308324861E+01  0.86171873166E+01  0.00000000000E+00 0. -1.
</event>
<event>
 7    1  0.5317846E-010  0.4778727E+02  0.7816164E-02  0.1312668E+00
        -11   -1    0    0    0    0  0.00000000000E+00  0.00000000000E+00  0.45593999997E+02  0.45594000000E+02  0.51100000000E-03 0.  1.
         11   -1    0    0    0    0 -0.00000000000E+00 -0.00000000000E+00 -0.45593999997E+02  0.45594000000E+02  0.51100000000E-03 0. -1.
    9900012    2    1    2    0    0  0.29725251585E+02  0.30740325240E+01  0.31473530101E+02  0.47787270113E+02  0.19999995751E+02 0.  0.
         12    1    1    2    0    0 -0.29725251585E+02 -0.30740325240E+01 -0.31473530101E+02  0.43400729887E+02  0.00000000000E+00 0. -1.
         11    1    3    3    0    0 -0.24170299223E+01 -0.76656339969E+00  0.67198109370E+00  0.26232064239E+01  0.51100000000E-03 0. -1.
        -11    1    3    3    0    0  0.26605018397E+02  0.75797987521E+00  0.23610133287E+02  0.35578644318E+02  0.51100000000E-03 0.  1.
        -12    1    3    3    0    0  0.55372631104E+01  0.30826160485E+01  0.71914157204E+01  0.95854193711E+01  0.00000000000E+00 0.  1.
</event>
<event>
 7    1  0.5317846E-010  0.4778727E+02  0.7816164E-02  0.1312668E+00
        -11   -1    0    0    0    0  0.00000000000E+00  0.00000000000E+00  0.45593999997E+02  0.45594000000E+02  0.51100000000E-03 0.  1.
         11   -1    0    0    0    0 -0.00000000000E+00 -0.00000000000E+00 -0.45593999997E+02  0.45594000000E+02  0.51100000000E-03 0. -1.
    9900012    2    1    2    0    0 -0.37016036555E+02 -0.17868738238E+02  0.13933578382E+02  0.47787269879E+02  0.19999994688E+02 0.  0.
         12    1    1    2    0    0  0.37016036555E+02  0.17868738238E+02 -0.13933578382E+02  0.43400730121E+02  0.00000000000E+00 0. -1.
         11    1    3    3    0    0 -0.67254317514E+01  0.79548895984E+00  0.78311040662E+01  0.10353280933E+02  0.51100000000E-03 0. -1.
        -11    1    3    3    0    0 -0.45576912721E+01 -0.57123779699E+01  0.44972533659E+01  0.85807400556E+01  0.51100000000E-03 0.  1.
         12    1    3    3    0    0 -0.25732913532E+02 -0.12951849228E+02  0.16052209503E+01  0.28853248891E+02  0.00000000000E+00 0. -1.
</event>
<event>
 7    1  0.5317846E-010  0.4778727E+02  0.7816164E-02  0.1312668E+00
        -11   -1    0    0    0    0  0.00000000000E+00  0.00000000000E+00  0.45593999997E+02  0.45594000000E+02  0.51100000000E-03 0. -1.
         11   -1    0    0    0    0 -0.00000000000E+00 -0.00000000000E+00 -0.45593999997E+02  0.45594000000E+02  0.51100000000E-03 0.  1.
    9900012    2    1    2    0    0  0.39224511366E+02 -0.44907187892E+01  0.18024828718E+02  0.47787270773E+02  0.19999998762E+02 0.  0.
         12    1    1    2    0    0 -0.39224511366E+02  0.44907187892E+01 -0.18024828718E+02  0.43400729227E+02  0.00000000000E+00 0. -1.
         11    1    3    3    0    0  0.21206363182E+01  0.37462066827E+01 -0.20105215622E+01  0.47511430327E+01  0.51100000000E-03 0. -1.
        -11    1    3    3    0    0  0.29366191603E+02 -0.55543745450E+01  0.16159309161E+02  0.33975690701E+02  0.51100000000E-03 0.  1.
         12    1    3    3    0    0  0.77376834450E+01 -0.26825509269E+01  0.38760411198E+01  0.90604370387E+01  0.00000000000E+00 0. -1.
</event>
<event>
 7    1  0.5317846E-010  0.4778728E+02  0.7816164E-02  0.1312668E+00
        -11   -1    0    0    0    0  0.00000000000E+00  0.00000000000E+00  0.45593999997E+02  0.45594000000E+02  0.51100000000E-03 0. -1.
         11   -1    0    0    0    0 -0.00000000000E+00 -0.00000000000E+00 -0.45593999997E+02  0.45594000000E+02  0.51100000000E-03 0.  1.
    9900012    2    1    2    0    0  0.30922150149E+02 -0.29838283631E+02 -0.60926459153E+01  0.47787275650E+02  0.20000020998E+02 0.  0.
         12    1    1    2    0    0 -0.30922150149E+02  0.29838283631E+02  0.60926459153E+01  0.43400724350E+02  0.00000000000E+00 0. -1.
         11    1    3    3    0    0  0.19505819740E+02 -0.23062129329E+02 -0.19084704464E+01  0.30265179210E+02  0.51100000000E-03 0. -1.
        -11    1    3    3    0    0  0.46378483219E+01  0.79292181283E+00 -0.55433163669E+01  0.72709503274E+01  0.51100000000E-03 0.  1.
        -12    1    3    3    0    0  0.67784820868E+01 -0.75690761148E+01  0.13591408979E+01  0.10251146112E+02  0.00000000000E+00 0.  1.
</event>
<event>
 7    1  0.5317846E-010  0.4778727E+02  0.7816164E-02  0.1312668E+00
        -11   -1    0    0    0    0  0.00000000000E+00  0.00000000000E+00  0.45593999997E+02  0.45594000000E+02  0.51100000000E-03 0. -1.
         11   -1    0    0    0    0 -0.00000000000E+00 -0.00000000000E+00 -0.45593999997E+02  0.45594000000E+02  0.51100000000E-03 0.  1.
    9900012    2    1    2    0    0  0.29333343211E+02 -0.31970115346E+02 -0.10439386849E+01  0.47787272965E+02  0.20000008759E+02 0.  0.
         12    1    1    2    0    0 -0.29333343211E+02  0.31970115346E+02  0.10439386849E+01  0.43400727035E+02  0.00000000000E+00 0. -1.
         11    1    3    3    0    0 -0.21839941409E+01 -0.54084237026E+01 -0.62627514027E+00  0.58662678226E+01  0.51100000000E-03 0. -1.
        -11    1    3    3    0    0  0.54251912962E+01 -0.25530059481E+01 -0.22803179749E+01  0.64148569976E+01  0.51100000000E-03 0.  1.
         12    1    3    3    0    0  0.26092146056E+02 -0.24008685695E+02  0.18626544303E+01  0.35506148145E+02  0.00000000000E+00 0. -1.
</event>
<event>
 7    1  0.5317846E-010  0.4778727E+02  0.7816164E-02  0.1312668E+00
        -11   -1    0    0    0    0  0.00000000000E+00  0.00000000000E+00  0.45593999997E+02  0.45594000000E+02  0.51100000000E-03 0. -1.
         11   -1    0    0    0    0 -0.00000000000E+00 -0.00000000000E+00 -0.45593999997E+02  0.45594000000E+02  0.51100000000E-03 0.  1.
    9900012    2    1    2    0    0  0.20890955514E+01  0.40090284309E+02 -0.16493264768E+02  0.47787274212E+02  0.20000014444E+02 0.  0.
         12    1    1    2    0    0 -0.20890955514E+01 -0.40090284309E+02  0.16493264768E+02  0.43400725788E+02  0.00000000000E+00 0. -1.
         11    1    3    3    0    0 -0.16679501600E+01  0.37134914520E+02 -0.83051894561E+01  0.38088844907E+02  0.51100000000E-03 0.  1.
        -11    1    3    3    0    0  0.36922510689E+01  0.31184844162E+01 -0.70538186105E+01  0.85506736730E+01  0.51100000000E-03 0. -1.
        -12    1    3    3    0    0  0.64794642468E-01 -0.16311462780E+00 -0.11342567015E+01  0.11477556327E+01  0.00000000000E+00 0.  1.
</event>
<event>
 7    1  0.5317846E-010  0.4778727E+02  0.7816164E-02  0.1312668E+00
        -11   -1    0    0    0    0  0.00000000000E+00  0.00000000000E+00  0.45593999997E+02  0.45594000000E+02  0.51100000000E-03 0.  1.
         11   -1    0    0    0    0 -0.00000000000E+00 -0.00000000000E+00 -0.45593999997E+02  0.45594000000E+02  0.51100000000E-03 0. -1.
    9900012    2    1    2    0    0  0.38703172881E+01  0.22103546211E+02  0.37149390212E+02  0.47787270696E+02  0.19999998411E+02 0.  0.
         12    1    1    2    0    0 -0.38703172881E+01 -0.22103546211E+02 -0.37149390212E+02  0.43400729304E+02  0.00000000000E+00 0. -1.
         11    1    3    3    0    0  0.13384212698E+01  0.77742256496E+01  0.12432985389E+01  0.79859719173E+01  0.51100000000E-03 0. -1.
        -11    1    3    3    0    0 -0.27367353377E+01  0.98598791899E+01  0.22591981422E+02  0.24801301635E+02  0.51100000000E-03 0.  1.
         12    1    3    3    0    0  0.52686313560E+01  0.44694413714E+01  0.13314110251E+02  0.14999997144E+02  0.00000000000E+00 0. -1.
</event>
<event>
 7    1  0.5317846E-010  0.4778727E+02  0.7816164E-02  0.1312668E+00
        -11   -1    0    0    0    0  0.00000000000E+00  0.00000000000E+00  0.45593999997E+02  0.45594000000E+02  0.51100000000E-03 0.  1.
         11   -1    0    0    0    0 -0.00000000000E+00 -0.00000000000E+00 -0.45593999997E+02  0.45594000000E+02  0.51100000000E-03 0. -1.
    9900012    2    1    2    0    0  0.15545491614E+02 -0.31746061113E+02  0.25182307634E+02  0.47787270473E+02  0.19999997394E+02 0.  0.
         12    1    1    2    0    0 -0.15545491614E+02  0.31746061113E+02 -0.25182307634E+02  0.43400729527E+02  0.00000000000E+00 0. -1.
         11    1    3    3    0    0  0.55274757672E+01 -0.12617267120E+02  0.55470748993E+00  0.13786084237E+02  0.51100000000E-03 0. -1.
        -11    1    3    3    0    0  0.19414978737E+01 -0.11398426756E+02  0.16632614490E+02  0.20256786802E+02  0.51100000000E-03 0.  1.
         12    1    3    3    0    0  0.80765179726E+01 -0.77303672375E+01  0.79949856547E+01  0.13744399434E+02  0.00000000000E+00 0. -1.
</event>
<event>
 7    1  0.5317846E-010  0.4778728E+02  0.7816164E-02  0.1312668E+00
        -11   -1    0    0    0    0  0.00000000000E+00  0.00000000000E+00  0.45593999997E+02  0.45594000000E+02  0.51100000000E-03 0.  1.
         11   -1    0    0    0    0 -0.00000000000E+00 -0.00000000000E+00 -0.45593999997E+02  0.45594000000E+02  0.51100000000E-03 0. -1.
    9900012    2    1    2    0    0  0.27998952149E+02 -0.12656485415E+02  0.30651178595E+02  0.47787277727E+02  0.20000030470E+02 0.  0.
         12    1    1    2    0    0 -0.27998952149E+02  0.12656485415E+02 -0.30651178595E+02  0.43400722273E+02  0.00000000000E+00 0. -1.
         11    1    3    3    0    0  0.84755352522E+00 -0.72901087961E+01  0.53420099422E+01  0.90775053688E+01  0.51100000000E-03 0. -1.
        -11    1    3    3    0    0  0.67675192689E+00 -0.25516698171E+01  0.18330386624E+01  0.32138828580E+01  0.51100000000E-03 0.  1.
         12    1    3    3    0    0  0.26474646697E+02 -0.28147068022E+01  0.23476129991E+02  0.35495889501E+02  0.00000000000E+00 0. -1.
</event>
<event>
 7    1  0.5317846E-010  0.4778727E+02  0.7816164E-02  0.1312668E+00
        -11   -1    0    0    0    0  0.00000000000E+00  0.00000000000E+00  0.45593999997E+02  0.45594000000E+02  0.51100000000E-03 0. -1.
         11   -1    0    0    0    0 -0.00000000000E+00 -0.00000000000E+00 -0.45593999997E+02  0.45594000000E+02  0.51100000000E-03 0.  1.
    9900012    2    1    2    0    0 -0.23928759109E+02 -0.12302059589E+02  0.34054326599E+02  0.47787270251E+02  0.19999996385E+02 0.  0.
         12    1    1    2    0    0  0.23928759109E+02  0.12302059589E+02 -0.34054326599E+02  0.43400729749E+02  0.00000000000E+00 0. -1.
         11    1    3    3    0    0 -0.15082166304E+02 -0.11463831520E+02  0.32057118046E+02  0.37236406798E+02  0.51100000000E-03 0.  1.
        -11    1    3    3    0    0 -0.53981369482E+01 -0.23021620308E+01 -0.73453655851E+00  0.59143365430E+01  0.51100000000E-03 0. -1.
        -12    1    3    3    0    0 -0.34484558570E+01  0.14639339619E+01  0.27317451113E+01  0.46365269109E+01  0.00000000000E+00 0.  1.
</event>
<event>
 7    1  0.5317846E-010  0.4778727E+02  0.7816164E-02  0.1312668E+00
        -11   -1    0    0    0    0  0.00000000000E+00  0.00000000000E+00  0.45593999997E+02  0.45594000000E+02  0.51100000000E-03 0. -1.
         11   -1    0    0    0    0 -0.00000000000E+00 -0.00000000000E+00 -0.45593999997E+02  0.45594000000E+02  0.51100000000E-03 0.  1.
    9900012    2    1    2    0    0  0.40459982092E+02 -0.15382961050E+02 -0.31587529475E+01  0.47787270032E+02  0.19999995384E+02 0.  0.
         12    1    1    2    0    0 -0.40459982092E+02  0.15382961050E+02  0.31587529475E+01  0.43400729968E+02  0.00000000000E+00 0. -1.
         11    1    3    3    0    0  0.46571346847E+01 -0.84823057591E+01 -0.32925218252E+01  0.10221502565E+02  0.51100000000E-03 0.  1.
        -11    1    3    3    0    0  0.13233382807E+02  0.10389336332E+01  0.25569019634E+01  0.13518119378E+02  0.51100000000E-03 0. -1.
        -12    1    3    3    0    0  0.22569464600E+02 -0.79395889243E+01 -0.24231330858E+01  0.24047648088E+02  0.00000000000E+00 0.  1.
</event>
<event>
 7    1  0.5317846E-010  0.4778727E+02  0.7816164E-02  0.1312668E+00
        -11   -1    0    0    0    0  0.00000000000E+00  0.00000000000E+00  0.45593999997E+02  0.45594000000E+02  0.51100000000E-03 0.  1.
         11   -1    0    0    0    0 -0.00000000000E+00 -0.00000000000E+00 -0.45593999997E+02  0.45594000000E+02  0.51100000000E-03 0. -1.
    9900012    2    1    2    0    0  0.72758407802E+01 -0.59129415409E+00  0.42782425893E+02  0.47787268979E+02  0.19999990583E+02 0.  0.
         12    1    1    2    0    0 -0.72758407802E+01  0.59129415409E+00 -0.42782425893E+02  0.43400731021E+02  0.00000000000E+00 0. -1.
         11    1    3    3    0    0  0.13524779405E+01 -0.37994128718E+01  0.24705239360E+01  0.47295056327E+01  0.51100000000E-03 0. -1.
        -11    1    3    3    0    0 -0.23518985918E+01  0.57995437495E+01  0.20430799980E+02  0.21367819795E+02  0.51100000000E-03 0.  1.
        -12    1    3    3    0    0  0.82752614315E+01 -0.25914250318E+01  0.19881101977E+02  0.21689943552E+02  0.00000000000E+00 0.  1.
</event>
<event>
 7    1  0.5317846E-010  0.4778727E+02  0.7816164E-02  0.1312668E+00
        -11   -1    0    0    0    0  0.00000000000E+00  0.00000000000E+00  0.45593999997E+02  0.45594000000E+02  0.51100000000E-03 0. -1.
         11   -1    0    0    0    0 -0.00000000000E+00 -0.00000000000E+00 -0.45593999997E+02  0.45594000000E+02  0.51100000000E-03 0.  1.
    9900012    2    1    2    0    0 -0.27313898035E+02 -0.28085961783E+02  0.18674928687E+02  0.47787271474E+02  0.20000001958E+02 0.  0.
         12    1    1    2    0    0  0.27313898035E+02  0.28085961783E+02 -0.18674928687E+02  0.43400728526E+02  0.00000000000E+00 0. -1.
         11    1    3    3    0    0 -0.27454537537E+02 -0.22445451010E+02  0.15550888099E+02  0.38721828771E+02  0.51100000000E-03 0. -1.
        -11    1    3    3    0    0 -0.20669314187E+01  0.30357984966E+00  0.25102080281E+00  0.21041335317E+01  0.51100000000E-03 0.  1.
         12    1    3    3    0    0  0.22075709208E+01 -0.59440906222E+01  0.28730197847E+01  0.69613091713E+01  0.00000000000E+00 0. -1.
</event>
<event>
 7    1  0.5317846E-010  0.4778728E+02  0.7816164E-02  0.1312668E+00
        -11   -1    0    0    0    0  0.00000000000E+00  0.00000000000E+00  0.45593999997E+02  0.45594000000E+02  0.51100000000E-03 0.  1.
         11   -1    0    0    0    0 -0.00000000000E+00 -0.00000000000E+00 -0.45593999997E+02  0.45594000000E+02  0.51100000000E-03 0. -1.
    9900012    2    1    2    0    0 -0.28699170433E+02 -0.31377419106E+02  0.86855105125E+01  0.47787275280E+02  0.20000019312E+02 0.  0.
         12    1    1    2    0    0  0.28699170433E+02  0.31377419106E+02 -0.86855105125E+01  0.43400724720E+02  0.00000000000E+00 0. -1.
         11    1    3    3    0    0  0.10421409070E+00 -0.43345290915E+01  0.30379868281E+01  0.52941823968E+01  0.51100000000E-03 0. -1.
        -11    1    3    3    0    0 -0.24826048256E+02 -0.16630433909E+02 -0.25055657730E+00  0.29882549805E+02  0.51100000000E-03 0.  1.
        -12    1    3    3    0    0 -0.39773362681E+01 -0.10412456106E+02  0.58980802617E+01  0.12610543078E+02  0.00000000000E+00 0.  1.
</event>
<event>
 7    1  0.5317846E-010  0.4778727E+02  0.7816164E-02  0.1312668E+00
        -11   -1    0    0    0    0  0.00000000000E+00  0.00000000000E+00  0.45593999997E+02  0.45594000000E+02  0.51100000000E-03 0.  1.
         11   -1    0    0    0    0 -0.00000000000E+00 -0.00000000000E+00 -0.45593999997E+02  0.45594000000E+02  0.51100000000E-03 0. -1.
    9900012    2    1    2    0    0 -0.65947359879E+01  0.16797666456E+02  0.39471145738E+02  0.47787268589E+02  0.19999988805E+02 0.  0.
         12    1    1    2    0    0  0.65947359879E+01 -0.16797666456E+02 -0.39471145738E+02  0.43400731411E+02  0.00000000000E+00 0. -1.
         11    1    3    3    0    0 -0.11171579408E+02  0.25602664406E+01  0.15978698427E+02  0.19664128620E+02  0.51100000000E-03 0. -1.
        -11    1    3    3    0    0  0.46712670402E+01  0.10980506764E+02  0.20384287645E+02  0.23620149187E+02  0.51100000000E-03 0.  1.
         12    1    3    3    0    0 -0.94423620380E-01  0.32568932515E+01  0.31081596660E+01  0.45029907818E+01  0.00000000000E+00 0. -1.
</event>
<event>
 7    1  0.5317846E-010  0.4778727E+02  0.7816164E-02  0.1312668E+00
        -11   -1    0    0    0    0  0.00000000000E+00  0.00000000000E+00  0.45593999997E+02  0.45594000000E+02  0.51100000000E-03 0.  1.
         11   -1    0    0    0    0 -0.00000000000E+00 -0.00000000000E+00 -0.45593999997E+02  0.45594000000E+02  0.51100000000E-03 0. -1.
    9900012    2    1    2    0    0  0.19301504981E+02 -0.28939091210E+02  0.25953888187E+02  0.47787269515E+02  0.19999993029E+02 0.  0.
         12    1    1    2    0    0 -0.19301504981E+02  0.28939091210E+02 -0.25953888187E+02  0.43400730485E+02  0.00000000000E+00 0. -1.
         11    1    3    3    0    0  0.15720843604E+01  0.10385173042E+01 -0.61543506314E+00  0.19821019160E+01  0.51100000000E-03 0. -1.
        -11    1    3    3    0    0  0.81111171757E+01 -0.11216040164E+02  0.18778142258E+02  0.23328274812E+02  0.51100000000E-03 0.  1.
        -12    1    3    3    0    0  0.96183034454E+01 -0.18761568350E+02  0.77911809919E+01  0.22476892787E+02  0.00000000000E+00 0.  1.
</event>
<event>
 7    1  0.5317846E-010  0.4778727E+02  0.7816164E-02  0.1312668E+00
        -11   -1    0    0    0    0  0.00000000000E+00  0.00000000000E+00  0.45593999997E+02  0.45594000000E+02  0.51100000000E-03 0.  1.
         11   -1    0    0    0    0 -0.00000000000E+00 -0.00000000000E+00 -0.45593999997E+02  0.45594000000E+02  0.51100000000E-03 0. -1.
    9900012    2    1    2    0    0  0.65901184105E+01  0.27019032316E+02  0.33319144814E+02  0.47787272136E+02  0.20000004978E+02 0.  0.
         12    1    1    2    0    0 -0.65901184105E+01 -0.27019032316E+02 -0.33319144814E+02  0.43400727864E+02  0.00000000000E+00 0. -1.
         11    1    3    3    0    0  0.71583992133E+01  0.87416160547E+01  0.22433538956E+01  0.11519165226E+02  0.51100000000E-03 0. -1.
        -11    1    3    3    0    0 -0.90295075520E+00  0.13592114892E+02  0.25999942675E+02  0.29352307007E+02  0.51100000000E-03 0.  1.
         12    1    3    3    0    0  0.33466995243E+00  0.46853013697E+01  0.50758482438E+01  0.69157999029E+01  0.00000000000E+00 0. -1.
</event>
<event>
 7    1  0.5317846E-010  0.4778727E+02  0.7816164E-02  0.1312668E+00
        -11   -1    0    0    0    0  0.00000000000E+00  0.00000000000E+00  0.45593999997E+02  0.45594000000E+02  0.51100000000E-03 0.  1.
         11   -1    0    0    0    0 -0.00000000000E+00 -0.00000000000E+00 -0.45593999997E+02  0.45594000000E+02  0.51100000000E-03 0. -1.
    9900012    2    1    2    0    0  0.17053336997E+02 -0.13233107707E+02  0.37652249013E+02  0.47787270766E+02  0.19999998730E+02 0.  0.
         12    1    1    2    0    0 -0.17053336997E+02  0.13233107707E+02 -0.37652249013E+02  0.43400729234E+02  0.00000000000E+00 0. -1.
         11    1    3    3    0    0  0.12118586887E+02 -0.59381807453E+01  0.32700018006E+02  0.35375320728E+02  0.51100000000E-03 0. -1.
        -11    1    3    3    0    0 -0.12736615427E+01 -0.40783610521E+01  0.27501785278E+01  0.50812129253E+01  0.51100000000E-03 0.  1.
         12    1    3    3    0    0  0.62084116529E+01 -0.32165659093E+01  0.22020524789E+01  0.73307371130E+01  0.00000000000E+00 0. -1.
</event>
<event>
 7    1  0.5317846E-010  0.4778727E+02  0.7816164E-02  0.1312668E+00
        -11   -1    0    0    0    0  0.00000000000E+00  0.00000000000E+00  0.45593999997E+02  0.45594000000E+02  0.51100000000E-03 0.  1.
         11   -1    0    0    0    0 -0.00000000000E+00 -0.00000000000E+00 -0.45593999997E+02  0.45594000000E+02  0.51100000000E-03 0. -1.
    9900012    2    1    2    0    0  0.56003942924E+01  0.72032941970E+01  0.42430785768E+02  0.47787269080E+02  0.19999991043E+02 0.  0.
         12    1    1    2    0    0 -0.56003942924E+01 -0.72032941970E+01 -0.42430785768E+02  0.43400730920E+02  0.00000000000E+00 0. -1.
         11    1    3    3    0    0  0.86257618510E+01  0.10584540769E+01  0.59904505209E+01  0.10555074147E+02  0.51100000000E-03 0. -1.
        -11    1    3    3    0    0 -0.10881079707E+01  0.52137145301E+01  0.22163254503E+02  0.22794224018E+02  0.51100000000E-03 0.  1.
         12    1    3    3    0    0 -0.19372595879E+01  0.93112558999E+00  0.14277080744E+02  0.14437970915E+02  0.00000000000E+00 0. -1.
</event>
<event>
 7    1  0.5317846E-010  0.4778727E+02  0.7816164E-02  0.1312668E+00
        -11   -1    0    0    0    0  0.00000000000E+00  0.00000000000E+00  0.45593999997E+02  0.45594000000E+02  0.51100000000E-03 0.  1.
         11   -1    0    0    0    0 -0.00000000000E+00 -0.00000000000E+00 -0.45593999997E+02  0.45594000000E+02  0.51100000000E-03 0. -1.
    9900012    2    1    2    0    0 -0.47204408383E-01 -0.14195576809E+02  0.41013495780E+02  0.47787268840E+02  0.19999989947E+02 0.  0.
         12    1    1    2    0    0  0.47204408383E-01  0.14195576809E+02 -0.41013495780E+02  0.43400731160E+02  0.00000000000E+00 0. -1.
         11    1    3    3    0    0  0.37681268946E+01 -0.12339600438E+02  0.18689167113E+02  0.22710118602E+02  0.51100000000E-03 0. -1.
        -11    1    3    3    0    0  0.15281814808E+00 -0.57159949250E+01  0.13487405723E+02  0.14649439060E+02  0.51100000000E-03 0.  1.
         12    1    3    3    0    0 -0.39681494510E+01  0.38600185541E+01  0.88369229427E+01  0.10427711177E+02  0.00000000000E+00 0. -1.
</event>
<event>
 7    1  0.5317846E-010  0.4778727E+02  0.7816164E-02  0.1312668E+00
        -11   -1    0    0    0    0  0.00000000000E+00  0.00000000000E+00  0.45593999997E+02  0.45594000000E+02  0.51100000000E-03 0. -1.
         11   -1    0    0    0    0 -0.00000000000E+00 -0.00000000000E+00 -0.45593999997E+02  0.45594000000E+02  0.51100000000E-03 0.  1.
    9900012    2    1    2    0    0  0.17528380027E+02 -0.25432098538E+02 -0.30489136464E+02  0.47787272071E+02  0.20000004681E+02 0.  0.
         12    1    1    2    0    0 -0.17528380027E+02  0.25432098538E+02  0.30489136464E+02  0.43400727929E+02  0.00000000000E+00 0. -1.
         11    1    3    3    0    0 -0.24420541574E+01 -0.10943968396E+02 -0.98110447879E+01  0.14899351424E+02  0.51100000000E-03 0. -1.
        -11    1    3    3    0    0  0.13696688272E+02 -0.10770071663E+02 -0.10420818473E+02  0.20302393237E+02  0.51100000000E-03 0.  1.
         12    1    3    3    0    0  0.62737459125E+01 -0.37180584792E+01 -0.10257273203E+02  0.12585527410E+02  0.00000000000E+00 0. -1.
</event>
<event>
 7    1  0.5317846E-010  0.4778727E+02  0.7816164E-02  0.1312668E+00
        -11   -1    0    0    0    0  0.00000000000E+00  0.00000000000E+00  0.45593999997E+02  0.45594000000E+02  0.51100000000E-03 0.  1.
         11   -1    0    0    0    0 -0.00000000000E+00 -0.00000000000E+00 -0.45593999997E+02  0.45594000000E+02  0.51100000000E-03 0. -1.
    9900012    2    1    2    0    0  0.26601800931E+02  0.23892270765E+02  0.24599328472E+02  0.47787269864E+02  0.19999994618E+02 0.  0.
         12    1    1    2    0    0 -0.26601800931E+02 -0.23892270765E+02 -0.24599328472E+02  0.43400730136E+02  0.00000000000E+00 0. -1.
         11    1    3    3    0    0  0.18913973713E+02  0.21699675152E+02  0.13539562503E+02  0.31810910964E+02  0.51100000000E-03 0. -1.
        -11    1    3    3    0    0  0.12608634051E+01 -0.29962245950E+01  0.35384121340E+01  0.48049452693E+01  0.51100000000E-03 0.  1.
        -12    1    3    3    0    0  0.64269638126E+01  0.51888202081E+01  0.75213538351E+01  0.11171413631E+02  0.00000000000E+00 0.  1.
</event>
<event>
 7    1  0.5317846E-010  0.4778727E+02  0.7816164E-02  0.1312668E+00
        -11   -1    0    0    0    0  0.00000000000E+00  0.00000000000E+00  0.45593999997E+02  0.45594000000E+02  0.51100000000E-03 0.  1.
         11   -1    0    0    0    0 -0.00000000000E+00 -0.00000000000E+00 -0.45593999997E+02  0.45594000000E+02  0.51100000000E-03 0. -1.
    9900012    2    1    2    0    0  0.58903117500E+01  0.24505107655E+02  0.35333087733E+02  0.47787272328E+02  0.20000005852E+02 0.  0.
         12    1    1    2    0    0 -0.58903117500E+01 -0.24505107655E+02 -0.35333087733E+02  0.43400727672E+02  0.00000000000E+00 0. -1.
         11    1    3    3    0    0  0.33492521842E+01  0.78625819049E+01  0.14967892845E+01  0.86762931502E+01  0.51100000000E-03 0. -1.
        -11    1    3    3    0    0  0.64300272187E+01  0.93250509150E+01  0.19271200642E+02  0.22353545559E+02  0.51100000000E-03 0.  1.
         12    1    3    3    0    0 -0.38889676530E+01  0.73174748354E+01  0.14565097806E+02  0.16757433619E+02  0.00000000000E+00 0. -1.
</event>
<event>
 7    1  0.5317846E-010  0.4778728E+02  0.7816164E-02  0.1312668E+00
        -11   -1    0    0    0    0  0.00000000000E+00  0.00000000000E+00  0.45593999997E+02  0.45594000000E+02  0.51100000000E-03 0.  1.
         11   -1    0    0    0    0 -0.00000000000E+00 -0.00000000000E+00 -0.45593999997E+02  0.45594000000E+02  0.51100000000E-03 0. -1.
    9900012    2    1    2    0    0  0.51740100300E+01  0.39052278297E+02  0.18214603627E+02  0.47787278748E+02  0.20000035122E+02 0.  0.
         12    1    1    2    0    0 -0.51740100300E+01 -0.39052278297E+02 -0.18214603627E+02  0.43400721252E+02  0.00000000000E+00 0. -1.
         11    1    3    3    0    0  0.52086945474E+01  0.37653813736E+02  0.14997083982E+02  0.40863831391E+02  0.51100000000E-03 0.  1.
        -11    1    3    3    0    0  0.11951156634E+01 -0.19160212409E+01  0.18506404605E+00  0.22657642875E+01  0.51100000000E-03 0. -1.
        -12    1    3    3    0    0 -0.12298001809E+01  0.33144858014E+01  0.30324555984E+01  0.46576830687E+01  0.00000000000E+00 0.  1.
</event>
<event>
 7    1  0.5317846E-010  0.4778727E+02  0.7816164E-02  0.1312668E+00
        -11   -1    0    0    0    0  0.00000000000E+00  0.00000000000E+00  0.45593999997E+02  0.45594000000E+02  0.51100000000E-03 0.  1.
         11   -1    0    0    0    0 -0.00000000000E+00 -0.00000000000E+00 -0.45593999997E+02  0.45594000000E+02  0.51100000000E-03 0. -1.
    9900012    2    1    2    0    0 -0.33806096543E+02  0.41739818957E+01  0.26895146413E+02  0.47787272023E+02  0.20000004461E+02 0.  0.
         12    1    1    2    0    0  0.33806096543E+02 -0.41739818957E+01 -0.26895146413E+02  0.43400727977E+02  0.00000000000E+00 0. -1.
         11    1    3    3    0    0  0.13554830008E+01  0.17161335601E+01  0.25508190476E+00  0.22017074285E+01  0.51100000000E-03 0. -1.
        -11    1    3    3    0    0 -0.23908304841E+02 -0.13484376715E+01  0.12162658525E+02  0.26858063728E+02  0.51100000000E-03 0.  1.
        -12    1    3    3    0    0 -0.11253274703E+02  0.38062860071E+01  0.14477405983E+02  0.18727500867E+02  0.00000000000E+00 0.  1.
</event>
<event>
 7    1  0.5317846E-010  0.4778727E+02  0.7816164E-02  0.1312668E+00
        -11   -1    0    0    0    0  0.00000000000E+00  0.00000000000E+00  0.45593999997E+02  0.45594000000E+02  0.51100000000E-03 0. -1.
         11   -1    0    0    0    0 -0.00000000000E+00 -0.00000000000E+00 -0.45593999997E+02  0.45594000000E+02  0.51100000000E-03 0.  1.
    9900012    2    1    2    0    0  0.42839055153E+02  0.48713822728E+01 -0.49707186615E+01  0.47787273558E+02  0.20000011460E+02 0.  0.
         12    1    1    2    0    0 -0.42839055153E+02 -0.48713822728E+01  0.49707186615E+01  0.43400726442E+02  0.00000000000E+00 0. -1.
         11    1    3    3    0    0  0.64795280028E+01  0.13580582392E+01 -0.76864492299E+01  0.10144461905E+02  0.51100000000E-03 0.  1.
        -11    1    3    3    0    0  0.10746183984E+02  0.17527036698E+01  0.47695469018E+01  0.11887010486E+02  0.51100000000E-03 0. -1.
         12    1    3    3    0    0  0.25613343167E+02  0.17606203639E+01 -0.20538163334E+01  0.25755801167E+02  0.00000000000E+00 0. -1.
</event>
<event>
 7    1  0.5317846E-010  0.4778727E+02  0.7816164E-02  0.1312668E+00
        -11   -1    0    0    0    0  0.00000000000E+00  0.00000000000E+00  0.45593999997E+02  0.45594000000E+02  0.51100000000E-03 0.  1.
         11   -1    0    0    0    0 -0.00000000000E+00 -0.00000000000E+00 -0.45593999997E+02  0.45594000000E+02  0.51100000000E-03 0. -1.
    9900012    2    1    2    0    0  0.39848984036E+02  0.12205301213E+02  0.12112504445E+02  0.47787266477E+02  0.19999979175E+02 0.  0.
         12    1    1    2    0    0 -0.39848984036E+02 -0.12205301213E+02 -0.12112504445E+02  0.43400733523E+02  0.00000000000E+00 0. -1.
         11    1    3    3    0    0  0.17090426160E+02  0.44453290691E+00  0.11877568246E+02  0.20817226125E+02  0.51100000000E-03 0.  1.
        -11    1    3    3    0    0  0.16785447104E+02  0.70615433452E+01 -0.34330941839E+01  0.18531129616E+02  0.51100000000E-03 0. -1.
         12    1    3    3    0    0  0.59731107717E+01  0.46992249605E+01  0.36680303827E+01  0.84389107359E+01  0.00000000000E+00 0. -1.
</event>
<event>
 7    1  0.5317846E-010  0.4778727E+02  0.7816164E-02  0.1312668E+00
        -11   -1    0    0    0    0  0.00000000000E+00  0.00000000000E+00  0.45593999997E+02  0.45594000000E+02  0.51100000000E-03 0.  1.
         11   -1    0    0    0    0 -0.00000000000E+00 -0.00000000000E+00 -0.45593999997E+02  0.45594000000E+02  0.51100000000E-03 0. -1.
    9900012    2    1    2    0    0  0.49593801128E+01 -0.39494635562E+02  0.17297441141E+02  0.47787272364E+02  0.20000006018E+02 0.  0.
         12    1    1    2    0    0 -0.49593801128E+01  0.39494635562E+02 -0.17297441141E+02  0.43400727636E+02  0.00000000000E+00 0. -1.
         11    1    3    3    0    0 -0.69762783283E+00 -0.88296246230E+00 -0.78628274870E+00  0.13727884487E+01  0.51100000000E-03 0. -1.
        -11    1    3    3    0    0 -0.44651192936E+00 -0.18236792740E+01 -0.30275431890E+01  0.35624706343E+01  0.51100000000E-03 0.  1.
        -12    1    3    3    0    0  0.61035198750E+01 -0.36787993826E+02  0.21111267078E+02  0.42852013281E+02  0.00000000000E+00 0.  1.
</event>
<event>
 7    1  0.5317846E-010  0.4778727E+02  0.7816164E-02  0.1312668E+00
        -11   -1    0    0    0    0  0.00000000000E+00  0.00000000000E+00  0.45593999997E+02  0.45594000000E+02  0.51100000000E-03 0. -1.
         11   -1    0    0    0    0 -0.00000000000E+00 -0.00000000000E+00 -0.45593999997E+02  0.45594000000E+02  0.51100000000E-03 0.  1.
    9900012    2    1    2    0    0  0.27444093748E+02 -0.64643834631E+01 -0.32994794433E+02  0.47787274259E+02  0.20000014655E+02 0.  0.
         12    1    1    2    0    0 -0.27444093748E+02  0.64643834631E+01  0.32994794433E+02  0.43400725741E+02  0.00000000000E+00 0. -1.
         11    1    3    3    0    0  0.64191986708E+01  0.48268058601E+01 -0.12178684416E+02  0.14588506461E+02  0.51100000000E-03 0. -1.
        -11    1    3    3    0    0  0.20109512685E+02 -0.84337550660E+01 -0.20889284998E+02  0.30197399771E+02  0.51100000000E-03 0.  1.
        -12    1    3    3    0    0  0.91538239274E+00 -0.28574342572E+01  0.73174980952E-01  0.30013680276E+01  0.00000000000E+00 0.  1.
</event>
<event>
 7    1  0.5317846E-010  0.4778728E+02  0.7816164E-02  0.1312668E+00
        -11   -1    0    0    0    0  0.00000000000E+00  0.00000000000E+00  0.45593999997E+02  0.45594000000E+02  0.51100000000E-03 0.  1.
         11   -1    0    0    0    0 -0.00000000000E+00 -0.00000000000E+00 -0.45593999997E+02  0.45594000000E+02  0.51100000000E-03 0. -1.
    9900012    2    1    2    0    0  0.26939529759E+02  0.76039803539E+00  0.34019198336E+02  0.47787281985E+02  0.20000049881E+02 0.  0.
         12    1    1    2    0    0 -0.26939529759E+02 -0.76039803539E+00 -0.34019198336E+02  0.43400718015E+02  0.00000000000E+00 0. -1.
         11    1    3    3    0    0  0.12183187104E+02  0.67988377890E+01  0.79195085350E+01  0.16042844479E+02  0.51100000000E-03 0. -1.
        -11    1    3    3    0    0  0.58205881595E+01 -0.34309356616E+01  0.18604909590E+02  0.19793767381E+02  0.51100000000E-03 0.  1.
        -12    1    3    3    0    0  0.89357544957E+01 -0.26075040920E+01  0.74947802112E+01  0.11950670124E+02  0.00000000000E+00 0.  1.
</event>
<event>
 7    1  0.5317846E-010  0.4778727E+02  0.7816164E-02  0.1312668E+00
        -11   -1    0    0    0    0  0.00000000000E+00  0.00000000000E+00  0.45593999997E+02  0.45594000000E+02  0.51100000000E-03 0. -1.
         11   -1    0    0    0    0 -0.00000000000E+00 -0.00000000000E+00 -0.45593999997E+02  0.45594000000E+02  0.51100000000E-03 0.  1.
    9900012    2    1    2    0    0 -0.62562674197E+01 -0.36711608857E+01 -0.42790241464E+02  0.47787273406E+02  0.20000010769E+02 0.  0.
         12    1    1    2    0    0  0.62562674197E+01  0.36711608857E+01  0.42790241464E+02  0.43400726594E+02  0.00000000000E+00 0. -1.
         11    1    3    3    0    0 -0.80614907038E+01 -0.39106557904E+01 -0.39870353364E+02  0.40864727317E+02  0.51100000000E-03 0. -1.
        -11    1    3    3    0    0  0.23598063283E+01 -0.24789370216E+01 -0.21554947528E+01  0.40447462905E+01  0.51100000000E-03 0.  1.
         12    1    3    3    0    0 -0.55458304417E+00  0.27184319263E+01 -0.76439334758E+00  0.28777997986E+01  0.00000000000E+00 0. -1.
</event>
<event>
 7    1  0.5317846E-010  0.4778728E+02  0.7816164E-02  0.1312668E+00
        -11   -1    0    0    0    0  0.00000000000E+00  0.00000000000E+00  0.45593999997E+02  0.45594000000E+02  0.51100000000E-03 0.  1.
         11   -1    0    0    0    0 -0.00000000000E+00 -0.00000000000E+00 -0.45593999997E+02  0.45594000000E+02  0.51100000000E-03 0. -1.
    9900012    2    1    2    0    0 -0.15749669099E+02  0.15911834341E+02  0.37180422538E+02  0.47787281470E+02  0.20000047532E+02 0.  0.
         12    1    1    2    0    0  0.15749669099E+02 -0.15911834341E+02 -0.37180422538E+02  0.43400718530E+02  0.00000000000E+00 0. -1.
         11    1    3    3    0    0 -0.14208336960E+02  0.35626354391E+01  0.14442252909E+02  0.20570558568E+02  0.51100000000E-03 0. -1.
        -11    1    3    3    0    0  0.16145245885E+01  0.49047933662E+01  0.15595096424E+02  0.16427742399E+02  0.51100000000E-03 0.  1.
        -12    1    3    3    0    0 -0.31558567280E+01  0.74444055352E+01  0.71430732055E+01  0.10788980502E+02  0.00000000000E+00 0.  1.
</event>
<event>
 7    1  0.5317846E-010  0.4778727E+02  0.7816164E-02  0.1312668E+00
        -11   -1    0    0    0    0  0.00000000000E+00  0.00000000000E+00  0.45593999997E+02  0.45594000000E+02  0.51100000000E-03 0. -1.
         11   -1    0    0    0    0 -0.00000000000E+00 -0.00000000000E+00 -0.45593999997E+02  0.45594000000E+02  0.51100000000E-03 0.  1.
    9900012    2    1    2    0    0  0.39047960189E+02 -0.16702537030E+02  0.89389601139E+01  0.47787274821E+02  0.20000017219E+02 0.  0.
         12    1    1    2    0    0 -0.39047960189E+02  0.16702537030E+02 -0.89389601139E+01  0.43400725179E+02  0.00000000000E+00 0. -1.
         11    1    3    3    0    0  0.25488017276E+02 -0.50035028265E+01  0.67169092961E+01  0.26828919769E+02  0.51100000000E-03 0. -1.
        -11    1    3    3    0    0  0.50217109753E+01  0.72246550595E+00  0.29482971523E+01  0.58678781418E+01  0.51100000000E-03 0.  1.
         12    1    3    3    0    0  0.85382319369E+01 -0.12421499710E+02 -0.72624633457E+00  0.15090476910E+02  0.00000000000E+00 0. -1.
</event>
<event>
 7    1  0.5317846E-010  0.4778727E+02  0.7816164E-02  0.1312668E+00
        -11   -1    0    0    0    0  0.00000000000E+00  0.00000000000E+00  0.45593999997E+02  0.45594000000E+02  0.51100000000E-03 0.  1.
         11   -1    0    0    0    0 -0.00000000000E+00 -0.00000000000E+00 -0.45593999997E+02  0.45594000000E+02  0.51100000000E-03 0. -1.
    9900012    2    1    2    0    0  0.20244989421E+02 -0.36210762275E+02 -0.12749295261E+02  0.47787269237E+02  0.19999991757E+02 0.  0.
         12    1    1    2    0    0 -0.20244989421E+02  0.36210762275E+02  0.12749295261E+02  0.43400730763E+02  0.00000000000E+00 0. -1.
         11    1    3    3    0    0  0.17982736552E+01  0.14681749657E+01 -0.42947517462E+01  0.48820301813E+01  0.51100000000E-03 0. -1.
        -11    1    3    3    0    0  0.13042178412E+02 -0.26421039687E+02 -0.45018609496E+01  0.29806652079E+02  0.51100000000E-03 0.  1.
         12    1    3    3    0    0  0.54045373531E+01 -0.11257897553E+02 -0.39526825648E+01  0.13098586976E+02  0.00000000000E+00 0. -1.
</event>
<event>
 7    1  0.5317846E-010  0.4778727E+02  0.7816164E-02  0.1312668E+00
        -11   -1    0    0    0    0  0.00000000000E+00  0.00000000000E+00  0.45593999997E+02  0.45594000000E+02  0.51100000000E-03 0.  1.
         11   -1    0    0    0    0 -0.00000000000E+00 -0.00000000000E+00 -0.45593999997E+02  0.45594000000E+02  0.51100000000E-03 0. -1.
    9900012    2    1    2    0    0  0.22563399683E+02 -0.19738299969E+01  0.37021885484E+02  0.47787274028E+02  0.20000013603E+02 0.  0.
         12    1    1    2    0    0 -0.22563399683E+02  0.19738299969E+01 -0.37021885484E+02  0.43400725972E+02  0.00000000000E+00 0. -1.
         11    1    3    3    0    0 -0.16453592700E+01 -0.15290253500E+01  0.81780850143E+01  0.84809315768E+01  0.51100000000E-03 0. -1.
        -11    1    3    3    0    0  0.12091859923E+02  0.39742193905E+01  0.88096223362E+01  0.15479565308E+02  0.51100000000E-03 0.  1.
        -12    1    3    3    0    0  0.12116899030E+02 -0.44190240373E+01  0.20034178134E+02  0.23826777143E+02  0.00000000000E+00 0.  1.
</event>
<event>
 7    1  0.5317846E-010  0.4778727E+02  0.7816164E-02  0.1312668E+00
        -11   -1    0    0    0    0  0.00000000000E+00  0.00000000000E+00  0.45593999997E+02  0.45594000000E+02  0.51100000000E-03 0. -1.
         11   -1    0    0    0    0 -0.00000000000E+00 -0.00000000000E+00 -0.45593999997E+02  0.45594000000E+02  0.51100000000E-03 0.  1.
    9900012    2    1    2    0    0 -0.11278148901E+01 -0.41650740529E+02 -0.12147733327E+02  0.47787267540E+02  0.19999984022E+02 0.  0.
         12    1    1    2    0    0  0.11278148901E+01  0.41650740529E+02  0.12147733327E+02  0.43400732460E+02  0.00000000000E+00 0. -1.
         11    1    3    3    0    0  0.65383780428E+00 -0.80762315080E-01 -0.20486382464E+00  0.68992454196E+00  0.51100000000E-03 0. -1.
        -11    1    3    3    0    0 -0.55933885671E+01 -0.19406100205E+02 -0.13909008739E+02  0.24522300977E+02  0.51100000000E-03 0.  1.
        -12    1    3    3    0    0  0.38117358727E+01 -0.22163878009E+02  0.19661392362E+01  0.22575042022E+02  0.00000000000E+00 0.  1.
</event>
<event>
 7    1  0.5317846E-010  0.4778727E+02  0.7816164E-02  0.1312668E+00
        -11   -1    0    0    0    0  0.00000000000E+00  0.00000000000E+00  0.45593999997E+02  0.45594000000E+02  0.51100000000E-03 0.  1.
         11   -1    0    0    0    0 -0.00000000000E+00 -0.00000000000E+00 -0.45593999997E+02  0.45594000000E+02  0.51100000000E-03 0. -1.
    9900012    2    1    2    0    0  0.13780086858E+02  0.32365923843E+02  0.25420058858E+02  0.47787271753E+02  0.20000003229E+02 0.  0.
         12    1    1    2    0    0 -0.13780086858E+02 -0.32365923843E+02 -0.25420058858E+02  0.43400728247E+02  0.00000000000E+00 0. -1.
         11    1    3    3    0    0 -0.15724900099E+00  0.16463929513E+02  0.56361472779E+01  0.17402639417E+02  0.51100000000E-03 0.  1.
        -11    1    3    3    0    0  0.12763468570E+00 -0.17898030737E+00  0.38764808594E+01  0.38827089355E+01  0.51100000000E-03 0. -1.
         12    1    3    3    0    0  0.13809701173E+02  0.16080974637E+02  0.15907430721E+02  0.26501923401E+02  0.00000000000E+00 0. -1.
</event>
<event>
 7    1  0.5317846E-010  0.4778727E+02  0.7816164E-02  0.1312668E+00
        -11   -1    0    0    0    0  0.00000000000E+00  0.00000000000E+00  0.45593999997E+02  0.45594000000E+02  0.51100000000E-03 0.  1.
         11   -1    0    0    0    0 -0.00000000000E+00 -0.00000000000E+00 -0.45593999997E+02  0.45594000000E+02  0.51100000000E-03 0. -1.
    9900012    2    1    2    0    0 -0.10770545119E+02 -0.23453185495E+02  0.34893647716E+02  0.47787271861E+02  0.20000003724E+02 0.  0.
         12    1    1    2    0    0  0.10770545119E+02  0.23453185495E+02 -0.34893647716E+02  0.43400728139E+02  0.00000000000E+00 0. -1.
         11    1    3    3    0    0 -0.48934268727E+01 -0.93245342903E+00  0.12971006873E+02  0.13894679396E+02  0.51100000000E-03 0. -1.
        -11    1    3    3    0    0 -0.84519932445E+01 -0.15290682873E+02  0.11373594531E+02  0.20847057954E+02  0.51100000000E-03 0.  1.
        -12    1    3    3    0    0  0.25748749980E+01 -0.72300491939E+01  0.10549046312E+02  0.13045534512E+02  0.00000000000E+00 0.  1.
</event>
<event>
 7    1  0.5317846E-010  0.4778727E+02  0.7816164E-02  0.1312668E+00
        -11   -1    0    0    0    0  0.00000000000E+00  0.00000000000E+00  0.45593999997E+02  0.45594000000E+02  0.51100000000E-03 0.  1.
         11   -1    0    0    0    0 -0.00000000000E+00 -0.00000000000E+00 -0.45593999997E+02  0.45594000000E+02  0.51100000000E-03 0. -1.
    9900012    2    1    2    0    0  0.33567164985E+02 -0.24624662543E+02  0.12267634829E+02  0.47787269190E+02  0.19999991547E+02 0.  0.
         12    1    1    2    0    0 -0.33567164985E+02  0.24624662543E+02 -0.12267634829E+02  0.43400730810E+02  0.00000000000E+00 0. -1.
         11    1    3    3    0    0  0.43051170356E+01 -0.99564230739E+01  0.75224331528E+01  0.13200431581E+02  0.51100000000E-03 0. -1.
        -11    1    3    3    0    0  0.22104670851E+02 -0.14432802903E+02  0.80140432638E+00  0.26411446803E+02  0.51100000000E-03 0.  1.
        -12    1    3    3    0    0  0.71573770981E+01 -0.23543656620E+00  0.39437973501E+01  0.81753908066E+01  0.00000000000E+00 0.  1.
</event>
<event>
 7    1  0.5317846E-010  0.4778727E+02  0.7816164E-02  0.1312668E+00
        -11   -1    0    0    0    0  0.00000000000E+00  0.00000000000E+00  0.45593999997E+02  0.45594000000E+02  0.51100000000E-03 0.  1.
         11   -1    0    0    0    0 -0.00000000000E+00 -0.00000000000E+00 -0.45593999997E+02  0.45594000000E+02  0.51100000000E-03 0. -1.
    9900012    2    1    2    0    0 -0.14130529257E+02  0.31073697268E+02  0.26802555850E+02  0.47787268220E+02  0.19999987121E+02 0.  0.
         12    1    1    2    0    0  0.14130529257E+02 -0.31073697268E+02 -0.26802555850E+02  0.43400731780E+02  0.00000000000E+00 0. -1.
         11    1    3    3    0    0 -0.12591192471E+02  0.11480919247E+02  0.77009931058E+01  0.18699062267E+02  0.51100000000E-03 0.  1.
        -11    1    3    3    0    0  0.36039068285E+01  0.12940397506E+02  0.13050733014E+02  0.18728685605E+02  0.51100000000E-03 0. -1.
         12    1    3    3    0    0 -0.51432436145E+01  0.66523805152E+01  0.60508297303E+01  0.10359520347E+02  0.00000000000E+00 0. -1.
</event>
<event>
 7    1  0.5317846E-010  0.4778727E+02  0.7816164E-02  0.1312668E+00
        -11   -1    0    0    0    0  0.00000000000E+00  0.00000000000E+00  0.45593999997E+02  0.45594000000E+02  0.51100000000E-03 0.  1.
         11   -1    0    0    0    0 -0.00000000000E+00 -0.00000000000E+00 -0.45593999997E+02  0.45594000000E+02  0.51100000000E-03 0. -1.
    9900012    2    1    2    0    0 -0.27657701886E+02  0.24580274722E+02  0.22682258618E+02  0.47787271492E+02  0.20000002040E+02 0.  0.
         12    1    1    2    0    0  0.27657701886E+02 -0.24580274722E+02 -0.22682258618E+02  0.43400728508E+02  0.00000000000E+00 0. -1.
         11    1    3    3    0    0 -0.14610383522E+02  0.31669567572E+01  0.77613621758E+01  0.16844336284E+02  0.51100000000E-03 0. -1.
        -11    1    3    3    0    0 -0.27501109844E+01  0.11881121288E+01  0.57124743120E+01  0.64503553300E+01  0.51100000000E-03 0.  1.
         12    1    3    3    0    0 -0.10297207379E+02  0.20225205836E+02  0.92084221298E+01  0.24492579878E+02  0.00000000000E+00 0. -1.
</event>
<event>
 7    1  0.5317846E-010  0.4778728E+02  0.7816164E-02  0.1312668E+00
        -11   -1    0    0    0    0  0.00000000000E+00  0.00000000000E+00  0.45593999997E+02  0.45594000000E+02  0.51100000000E-03 0.  1.
         11   -1    0    0    0    0 -0.00000000000E+00 -0.00000000000E+00 -0.45593999997E+02  0.45594000000E+02  0.51100000000E-03 0. -1.
    9900012    2    1    2    0    0  0.32047140257E+02  0.15610837330E+02  0.24756927888E+02  0.47787275130E+02  0.20000018627E+02 0.  0.
         12    1    1    2    0    0 -0.32047140257E+02 -0.15610837330E+02 -0.24756927888E+02  0.43400724870E+02  0.00000000000E+00 0. -1.
         11    1    3    3    0    0  0.77243847836E+01 -0.32312002869E+00  0.13857375008E+02  0.15868124313E+02  0.51100000000E-03 0. -1.
        -11    1    3    3    0    0  0.16998919526E+02  0.14307565140E+02  0.99925273895E+01  0.24362271840E+02  0.51100000000E-03 0.  1.
         12    1    3    3    0    0  0.73238359472E+01  0.16263922187E+01  0.90702549031E+00  0.75568789768E+01  0.00000000000E+00 0. -1.
</event>
<event>
 7    1  0.5317846E-010  0.4778727E+02  0.7816164E-02  0.1312668E+00
        -11   -1    0    0    0    0  0.00000000000E+00  0.00000000000E+00  0.45593999997E+02  0.45594000000E+02  0.51100000000E-03 0. -1.
         11   -1    0    0    0    0 -0.00000000000E+00 -0.00000000000E+00 -0.45593999997E+02  0.45594000000E+02  0.51100000000E-03 0.  1.
    9900012    2    1    2    0    0  0.42308973962E+01  0.39192431962E+02 -0.18156978515E+02  0.47787273224E+02  0.20000009939E+02 0.  0.
         12    1    1    2    0    0 -0.42308973962E+01 -0.39192431962E+02  0.18156978515E+02  0.43400726776E+02  0.00000000000E+00 0. -1.
         11    1    3    3    0    0 -0.18041128232E+01  0.10127539227E+02  0.35477252721E+01  0.10881554518E+02  0.51100000000E-03 0. -1.
        -11    1    3    3    0    0  0.40308027293E+01  0.24893964865E+02 -0.18525076267E+02  0.31291137856E+02  0.51100000000E-03 0.  1.
         12    1    3    3    0    0  0.20042074902E+01  0.41709278701E+01 -0.31796275193E+01  0.56145808502E+01  0.00000000000E+00 0. -1.
</event>
<event>
 7    1  0.5317846E-010  0.4778727E+02  0.7816164E-02  0.1312668E+00
        -11   -1    0    0    0    0  0.00000000000E+00  0.00000000000E+00  0.45593999997E+02  0.45594000000E+02  0.51100000000E-03 0.  1.
         11   -1    0    0    0    0 -0.00000000000E+00 -0.00000000000E+00 -0.45593999997E+02  0.45594000000E+02  0.51100000000E-03 0. -1.
    9900012    2    1    2    0    0  0.30480693021E+02 -0.30563651701E+02  0.45181562350E+01  0.47787272033E+02  0.20000004507E+02 0.  0.
         12    1    1    2    0    0 -0.30480693021E+02  0.30563651701E+02 -0.45181562350E+01  0.43400727967E+02  0.00000000000E+00 0. -1.
         11    1    3    3    0    0  0.12984258581E+02 -0.19959736020E+01 -0.18128986721E+01  0.13261277592E+02  0.51100000000E-03 0. -1.
        -11    1    3    3    0    0  0.13096614874E+02 -0.19369834626E+02  0.67014103249E+01  0.24323254617E+02  0.51100000000E-03 0.  1.
         12    1    3    3    0    0  0.43998195658E+01 -0.91978434732E+01 -0.37035541775E+00  0.10202739823E+02  0.00000000000E+00 0. -1.
</event>
<event>
 7    1  0.5317846E-010  0.4778727E+02  0.7816164E-02  0.1312668E+00
        -11   -1    0    0    0    0  0.00000000000E+00  0.00000000000E+00  0.45593999997E+02  0.45594000000E+02  0.51100000000E-03 0.  1.
         11   -1    0    0    0    0 -0.00000000000E+00 -0.00000000000E+00 -0.45593999997E+02  0.45594000000E+02  0.51100000000E-03 0. -1.
    9900012    2    1    2    0    0 -0.35364435492E+02 -0.14527925956E+02  0.20540669858E+02  0.47787273641E+02  0.20000011838E+02 0.  0.
         12    1    1    2    0    0  0.35364435492E+02  0.14527925956E+02 -0.20540669858E+02  0.43400726359E+02  0.00000000000E+00 0. -1.
         11    1    3    3    0    0 -0.51146165889E+01  0.34444079960E+00 -0.20933678885E+01  0.55371591718E+01  0.51100000000E-03 0. -1.
        -11    1    3    3    0    0 -0.13202087855E+02 -0.11844125255E+02  0.15385024529E+02  0.23479297409E+02  0.51100000000E-03 0.  1.
        -12    1    3    3    0    0 -0.17047731048E+02 -0.30282415010E+01  0.72490132178E+01  0.18770817060E+02  0.00000000000E+00 0.  1.
</event>
<event>
 7    1  0.5317846E-010  0.4778728E+02  0.7816164E-02  0.1312668E+00
        -11   -1    0    0    0    0  0.00000000000E+00  0.00000000000E+00  0.45593999997E+02  0.45594000000E+02  0.51100000000E-03 0.  1.
         11   -1    0    0    0    0 -0.00000000000E+00 -0.00000000000E+00 -0.45593999997E+02  0.45594000000E+02  0.51100000000E-03 0. -1.
    9900012    2    1    2    0    0 -0.17202007284E+02  0.32256536791E+02  0.23392940915E+02  0.47787275294E+02  0.20000019376E+02 0.  0.
         12    1    1    2    0    0  0.17202007284E+02 -0.32256536791E+02 -0.23392940915E+02  0.43400724706E+02  0.00000000000E+00 0. -1.
         11    1    3    3    0    0 -0.38652565770E+00  0.84422499912E+01  0.92843294395E+01  0.12554670860E+02  0.51100000000E-03 0.  1.
        -11    1    3    3    0    0 -0.14682031694E+02  0.89055043586E+01  0.65177635382E+01  0.18367125642E+02  0.51100000000E-03 0. -1.
        -12    1    3    3    0    0 -0.21334499323E+01  0.14908782441E+02  0.75908479379E+01  0.16865478792E+02  0.00000000000E+00 0.  1.
</event>
<event>
 7    1  0.5317846E-010  0.4778727E+02  0.7816164E-02  0.1312668E+00
        -11   -1    0    0    0    0  0.00000000000E+00  0.00000000000E+00  0.45593999997E+02  0.45594000000E+02  0.51100000000E-03 0. -1.
         11   -1    0    0    0    0 -0.00000000000E+00 -0.00000000000E+00 -0.45593999997E+02  0.45594000000E+02  0.51100000000E-03 0.  1.
    9900012    2    1    2    0    0  0.46344698220E+01  0.30472836709E+02 -0.30554069632E+02  0.47787271219E+02  0.20000000794E+02 0.  0.
         12    1    1    2    0    0 -0.46344698220E+01 -0.30472836709E+02  0.30554069632E+02  0.43400728781E+02  0.00000000000E+00 0. -1.
         11    1    3    3    0    0  0.20502390658E+01 -0.22197655084E+01 -0.11365471501E+01  0.32284018995E+01  0.51100000000E-03 0. -1.
        -11    1    3    3    0    0  0.10287427425E+01  0.16924105121E+02 -0.10761805105E+02  0.20082332911E+02  0.51100000000E-03 0.  1.
         12    1    3    3    0    0  0.15554880137E+01  0.15768497097E+02 -0.18655717378E+02  0.24476536408E+02  0.00000000000E+00 0. -1.
</event>
<event>
 7    1  0.5317846E-010  0.4778727E+02  0.7816164E-02  0.1312668E+00
        -11   -1    0    0    0    0  0.00000000000E+00  0.00000000000E+00  0.45593999997E+02  0.45594000000E+02  0.51100000000E-03 0. -1.
         11   -1    0    0    0    0 -0.00000000000E+00 -0.00000000000E+00 -0.45593999997E+02  0.45594000000E+02  0.51100000000E-03 0.  1.
    9900012    2    1    2    0    0 -0.41144437372E+02 -0.13773486128E+02  0.10245075297E+01  0.47787271175E+02  0.20000000597E+02 0.  0.
         12    1    1    2    0    0  0.41144437372E+02  0.13773486128E+02 -0.10245075297E+01  0.43400728825E+02  0.00000000000E+00 0. -1.
         11    1    3    3    0    0 -0.22278082625E+00 -0.42791828666E+01 -0.30472719755E+01  0.52580323369E+01  0.51100000000E-03 0. -1.
        -11    1    3    3    0    0 -0.28895769975E+02 -0.87503683236E+01  0.16311420968E+01  0.30235659296E+02  0.51100000000E-03 0.  1.
         12    1    3    3    0    0 -0.12025886571E+02 -0.74393493801E+00  0.24406374085E+01  0.12293579543E+02  0.00000000000E+00 0. -1.
</event>
<event>
 7    1  0.5317846E-010  0.4778727E+02  0.7816164E-02  0.1312668E+00
        -11   -1    0    0    0    0  0.00000000000E+00  0.00000000000E+00  0.45593999997E+02  0.45594000000E+02  0.51100000000E-03 0.  1.
         11   -1    0    0    0    0 -0.00000000000E+00 -0.00000000000E+00 -0.45593999997E+02  0.45594000000E+02  0.51100000000E-03 0. -1.
    9900012    2    1    2    0    0  0.24804306141E+02 -0.70899917504E+01  0.34901315272E+02  0.47787269662E+02  0.19999993697E+02 0.  0.
         12    1    1    2    0    0 -0.24804306141E+02  0.70899917504E+01 -0.34901315272E+02  0.43400730338E+02  0.00000000000E+00 0. -1.
         11    1    3    3    0    0  0.39738064816E+01  0.42154828103E+01  0.84111760250E+00  0.58539655243E+01  0.51100000000E-03 0. -1.
        -11    1    3    3    0    0  0.16853302037E+02 -0.62474885857E+01  0.23843931485E+02  0.29859637843E+02  0.51100000000E-03 0.  1.
         12    1    3    3    0    0  0.39771976224E+01 -0.50579859751E+01  0.10216266185E+02  0.12073666295E+02  0.00000000000E+00 0. -1.
</event>
<event>
 7    1  0.5317846E-010  0.4778727E+02  0.7816164E-02  0.1312668E+00
        -11   -1    0    0    0    0  0.00000000000E+00  0.00000000000E+00  0.45593999997E+02  0.45594000000E+02  0.51100000000E-03 0.  1.
         11   -1    0    0    0    0 -0.00000000000E+00 -0.00000000000E+00 -0.45593999997E+02  0.45594000000E+02  0.51100000000E-03 0. -1.
    9900012    2    1    2    0    0 -0.32254340448E+02  0.28300808400E+02 -0.65073393394E+01  0.47787266145E+02  0.19999977664E+02 0.  0.
         12    1    1    2    0    0  0.32254340448E+02 -0.28300808400E+02  0.65073393394E+01  0.43400733855E+02  0.00000000000E+00 0. -1.
         11    1    3    3    0    0 -0.11291994264E+01 -0.12120484121E+01 -0.25766056386E+01  0.30631763867E+01  0.51100000000E-03 0. -1.
        -11    1    3    3    0    0 -0.30260306299E+02  0.23700165027E+02 -0.49683003584E+01  0.38756521623E+02  0.51100000000E-03 0.  1.
        -12    1    3    3    0    0 -0.86483472280E+00  0.58126917849E+01  0.10375666576E+01  0.59675681356E+01  0.00000000000E+00 0.  1.
</event>
<event>
 7    1  0.5317846E-010  0.4778727E+02  0.7816164E-02  0.1312668E+00
        -11   -1    0    0    0    0  0.00000000000E+00  0.00000000000E+00  0.45593999997E+02  0.45594000000E+02  0.51100000000E-03 0.  1.
         11   -1    0    0    0    0 -0.00000000000E+00 -0.00000000000E+00 -0.45593999997E+02  0.45594000000E+02  0.51100000000E-03 0. -1.
    9900012    2    1    2    0    0 -0.30615239514E+02  0.25230520028E+02  0.17599749461E+02  0.47787271752E+02  0.20000003226E+02 0.  0.
         12    1    1    2    0    0  0.30615239514E+02 -0.25230520028E+02 -0.17599749461E+02  0.43400728248E+02  0.00000000000E+00 0. -1.
         11    1    3    3    0    0 -0.29971264770E+02  0.19983293363E+02  0.13964105026E+02  0.38634245884E+02  0.51100000000E-03 0. -1.
        -11    1    3    3    0    0 -0.32858330051E+01  0.36484533040E+01  0.35588692252E+01  0.60641125049E+01  0.51100000000E-03 0.  1.
         12    1    3    3    0    0  0.26418582614E+01  0.15987733607E+01  0.76775209065E-01  0.30889133631E+01  0.00000000000E+00 0. -1.
</event>
<event>
 7    1  0.5317846E-010  0.4778727E+02  0.7816164E-02  0.1312668E+00
        -11   -1    0    0    0    0  0.00000000000E+00  0.00000000000E+00  0.45593999997E+02  0.45594000000E+02  0.51100000000E-03 0.  1.
         11   -1    0    0    0    0 -0.00000000000E+00 -0.00000000000E+00 -0.45593999997E+02  0.45594000000E+02  0.51100000000E-03 0. -1.
    9900012    2    1    2    0    0 -0.32517105002E+02 -0.87964403856E+01  0.27365743353E+02  0.47787269702E+02  0.19999993879E+02 0.  0.
         12    1    1    2    0    0  0.32517105002E+02  0.87964403856E+01 -0.27365743353E+02  0.43400730298E+02  0.00000000000E+00 0. -1.
         11    1    3    3    0    0 -0.74810110239E+01  0.58169742017E+00  0.11251270763E+02  0.13523867490E+02  0.51100000000E-03 0. -1.
        -11    1    3    3    0    0 -0.55751069758E+01 -0.51460549705E+01 -0.14315152006E+01  0.77209413663E+01  0.51100000000E-03 0.  1.
        -12    1    3    3    0    0 -0.19460987002E+02 -0.42320828353E+01  0.17545987790E+02  0.26542460846E+02  0.00000000000E+00 0.  1.
</event>
<event>
 7    1  0.5317846E-010  0.4778727E+02  0.7816164E-02  0.1312668E+00
        -11   -1    0    0    0    0  0.00000000000E+00  0.00000000000E+00  0.45593999997E+02  0.45594000000E+02  0.51100000000E-03 0.  1.
         11   -1    0    0    0    0 -0.00000000000E+00 -0.00000000000E+00 -0.45593999997E+02  0.45594000000E+02  0.51100000000E-03 0. -1.
    9900012    2    1    2    0    0  0.14738002061E+02 -0.26742743574E+02  0.30842185793E+02  0.47787268865E+02  0.19999990062E+02 0.  0.
         12    1    1    2    0    0 -0.14738002061E+02  0.26742743574E+02 -0.30842185793E+02  0.43400731135E+02  0.00000000000E+00 0. -1.
         11    1    3    3    0    0  0.64952807204E+01 -0.23736833347E+02  0.28903638841E+02  0.37961115204E+02  0.51100000000E-03 0. -1.
        -11    1    3    3    0    0  0.80971097555E+01 -0.28979082597E+01  0.27231340458E+01  0.90208934128E+01  0.51100000000E-03 0.  1.
         12    1    3    3    0    0  0.14561158484E+00 -0.10800196699E+00 -0.78458709426E+00  0.80526024799E+00  0.00000000000E+00 0. -1.
</event>
<event>
 7    1  0.5317846E-010  0.4778727E+02  0.7816164E-02  0.1312668E+00
        -11   -1    0    0    0    0  0.00000000000E+00  0.00000000000E+00  0.45593999997E+02  0.45594000000E+02  0.51100000000E-03 0. -1.
         11   -1    0    0    0    0 -0.00000000000E+00 -0.00000000000E+00 -0.45593999997E+02  0.45594000000E+02  0.51100000000E-03 0.  1.
    9900012    2    1    2    0    0  0.39442729596E+02 -0.76010660835E+01 -0.16435278442E+02  0.47787268427E+02  0.19999988064E+02 0.  0.
         12    1    1    2    0    0 -0.39442729596E+02  0.76010660835E+01  0.16435278442E+02  0.43400731573E+02  0.00000000000E+00 0. -1.
         11    1    3    3    0    0  0.13351129831E+02  0.14403247540E+01 -0.95565854754E-01  0.13428936527E+02  0.51100000000E-03 0. -1.
        -11    1    3    3    0    0  0.18064170671E+02 -0.11593366939E+02 -0.93492363298E+01  0.23412147258E+02  0.51100000000E-03 0.  1.
         12    1    3    3    0    0  0.80274290950E+01  0.25519761018E+01 -0.69904762580E+01  0.10946184642E+02  0.00000000000E+00 0. -1.
</event>
<event>
 7    1  0.5317846E-010  0.4778727E+02  0.7816164E-02  0.1312668E+00
        -11   -1    0    0    0    0  0.00000000000E+00  0.00000000000E+00  0.45593999997E+02  0.45594000000E+02  0.51100000000E-03 0. -1.
         11   -1    0    0    0    0 -0.00000000000E+00 -0.00000000000E+00 -0.45593999997E+02  0.45594000000E+02  0.51100000000E-03 0.  1.
    9900012    2    1    2    0    0  0.15191725944E+01 -0.43235854130E+02 -0.34606942060E+01  0.47787269913E+02  0.19999994842E+02 0.  0.
         12    1    1    2    0    0 -0.15191725944E+01  0.43235854130E+02  0.34606942060E+01  0.43400730087E+02  0.00000000000E+00 0. -1.
         11    1    3    3    0    0  0.24751290581E+01  0.37765509114E+00 -0.28244969518E+01  0.37744761906E+01  0.51100000000E-03 0. -1.
        -11    1    3    3    0    0 -0.24214023954E+01 -0.13512221015E+02  0.14494297988E+01  0.13803773155E+02  0.51100000000E-03 0.  1.
         12    1    3    3    0    0  0.14654459317E+01 -0.30101288206E+02 -0.20856270530E+01  0.30209020568E+02  0.00000000000E+00 0. -1.
</event>
<event>
 7    1  0.5317846E-010  0.4778727E+02  0.7816164E-02  0.1312668E+00
        -11   -1    0    0    0    0  0.00000000000E+00  0.00000000000E+00  0.45593999997E+02  0.45594000000E+02  0.51100000000E-03 0.  1.
         11   -1    0    0    0    0 -0.00000000000E+00 -0.00000000000E+00 -0.45593999997E+02  0.45594000000E+02  0.51100000000E-03 0. -1.
    9900012    2    1    2    0    0 -0.17979529189E+02 -0.98379855717E+01  0.38256680574E+02  0.47787273756E+02  0.20000012362E+02 0.  0.
         12    1    1    2    0    0  0.17979529189E+02  0.98379855717E+01 -0.38256680574E+02  0.43400726244E+02  0.00000000000E+00 0. -1.
         11    1    3    3    0    0  0.56123108274E-01 -0.33899927344E+01  0.10785134806E+02  0.11305500147E+02  0.51100000000E-03 0. -1.
        -11    1    3    3    0    0 -0.12203198777E+02  0.86726603759E+00  0.73005930533E+01  0.14246714357E+02  0.51100000000E-03 0.  1.
        -12    1    3    3    0    0 -0.58324535195E+01 -0.73152588749E+01  0.20170952715E+02  0.22235059251E+02  0.00000000000E+00 0.  1.
</event>
<event>
 7    1  0.5317846E-010  0.4778727E+02  0.7816164E-02  0.1312668E+00
        -11   -1    0    0    0    0  0.00000000000E+00  0.00000000000E+00  0.45593999997E+02  0.45594000000E+02  0.51100000000E-03 0.  1.
         11   -1    0    0    0    0 -0.00000000000E+00 -0.00000000000E+00 -0.45593999997E+02  0.45594000000E+02  0.51100000000E-03 0. -1.
    9900012    2    1    2    0    0  0.17235121710E+02 -0.15469413234E+02  0.36705196989E+02  0.47787266686E+02  0.19999980130E+02 0.  0.
         12    1    1    2    0    0 -0.17235121710E+02  0.15469413234E+02 -0.36705196989E+02  0.43400733314E+02  0.00000000000E+00 0. -1.
         11    1    3    3    0    0 -0.38141559254E+01 -0.12570465602E+01  0.63471280439E+01  0.75109244534E+01  0.51100000000E-03 0. -1.
        -11    1    3    3    0    0  0.11355706395E+02 -0.33081994403E+01  0.12360185662E+02  0.17107613543E+02  0.51100000000E-03 0.  1.
         12    1    3    3    0    0  0.96935712398E+01 -0.10904167233E+02  0.17997883283E+02  0.23168728690E+02  0.00000000000E+00 0. -1.
</event>
<event>
 7    1  0.5317846E-010  0.4778727E+02  0.7816164E-02  0.1312668E+00
        -11   -1    0    0    0    0  0.00000000000E+00  0.00000000000E+00  0.45593999997E+02  0.45594000000E+02  0.51100000000E-03 0. -1.
         11   -1    0    0    0    0 -0.00000000000E+00 -0.00000000000E+00 -0.45593999997E+02  0.45594000000E+02  0.51100000000E-03 0.  1.
    9900012    2    1    2    0    0 -0.40444392449E+02  0.26410817027E+01 -0.15520922746E+02  0.47787271481E+02  0.20000001988E+02 0.  0.
         12    1    1    2    0    0  0.40444392449E+02 -0.26410817027E+01  0.15520922746E+02  0.43400728519E+02  0.00000000000E+00 0. -1.
         11    1    3    3    0    0 -0.90912087238E+01 -0.24132647080E+01  0.21708178606E+01  0.96533089175E+01  0.51100000000E-03 0. -1.
        -11    1    3    3    0    0 -0.27445652636E+02  0.68078563127E+01 -0.11325438437E+02  0.30461062231E+02  0.51100000000E-03 0.  1.
        -12    1    3    3    0    0 -0.39075310893E+01 -0.17535099020E+01 -0.63663021697E+01  0.76729003321E+01  0.00000000000E+00 0.  1.
</event>
<event>
 7    1  0.5317846E-010  0.4778727E+02  0.7816164E-02  0.1312668E+00
        -11   -1    0    0    0    0  0.00000000000E+00  0.00000000000E+00  0.45593999997E+02  0.45594000000E+02  0.51100000000E-03 0. -1.
         11   -1    0    0    0    0 -0.00000000000E+00 -0.00000000000E+00 -0.45593999997E+02  0.45594000000E+02  0.51100000000E-03 0.  1.
    9900012    2    1    2    0    0 -0.37599384422E+02  0.21570002429E+02 -0.21551141601E+01  0.47787271541E+02  0.20000002266E+02 0.  0.
         12    1    1    2    0    0  0.37599384422E+02 -0.21570002429E+02  0.21551141601E+01  0.43400728459E+02  0.00000000000E+00 0. -1.
         11    1    3    3    0    0 -0.21895833762E+02  0.15993734303E+02  0.49531296063E+01  0.27563754575E+02  0.51100000000E-03 0. -1.
        -11    1    3    3    0    0 -0.54601157843E+01  0.63242106961E+01 -0.13953021225E+01  0.84708543596E+01  0.51100000000E-03 0.  1.
         12    1    3    3    0    0 -0.10243434875E+02 -0.74794256999E+00 -0.57129416439E+01  0.11752662607E+02  0.00000000000E+00 0. -1.
</event>
<event>
 7    1  0.5317846E-010  0.4778727E+02  0.7816164E-02  0.1312668E+00
        -11   -1    0    0    0    0  0.00000000000E+00  0.00000000000E+00  0.45593999997E+02  0.45594000000E+02  0.51100000000E-03 0. -1.
         11   -1    0    0    0    0 -0.00000000000E+00 -0.00000000000E+00 -0.45593999997E+02  0.45594000000E+02  0.51100000000E-03 0.  1.
    9900012    2    1    2    0    0 -0.69088931961E+01 -0.37614285131E+02  0.20519646387E+02  0.47787272599E+02  0.20000007088E+02 0.  0.
         12    1    1    2    0    0  0.69088931961E+01  0.37614285131E+02 -0.20519646387E+02  0.43400727401E+02  0.00000000000E+00 0. -1.
         11    1    3    3    0    0  0.38855300496E+01 -0.21547850873E+02  0.12247204349E+02  0.25087870289E+02  0.51100000000E-03 0.  1.
        -11    1    3    3    0    0 -0.38035660360E+01 -0.12507203081E+02  0.35631185795E+01  0.13549651574E+02  0.51100000000E-03 0. -1.
         12    1    3    3    0    0 -0.69908572097E+01 -0.35592311764E+01  0.47093234587E+01  0.91497507361E+01  0.00000000000E+00 0. -1.
</event>
<event>
 7    1  0.5317846E-010  0.4778725E+02  0.7816164E-02  0.1312668E+00
        -11   -1    0    0    0    0  0.00000000000E+00  0.00000000000E+00  0.45593999997E+02  0.45594000000E+02  0.51100000000E-03 0.  1.
         11   -1    0    0    0    0 -0.00000000000E+00 -0.00000000000E+00 -0.45593999997E+02  0.45594000000E+02  0.51100000000E-03 0. -1.
    9900012    2    1    2    0    0 -0.77416197731E+01  0.15085474671E+02  0.39951479317E+02  0.47787252053E+02  0.19999913409E+02 0.  0.
         12    1    1    2    0    0  0.77416197731E+01 -0.15085474671E+02 -0.39951479317E+02  0.43400747947E+02  0.00000000000E+00 0. -1.
         11    1    3    3    0    0  0.20095059090E+01  0.73232818913E+01  0.23758944521E+01  0.79569746994E+01  0.51100000000E-03 0. -1.
        -11    1    3    3    0    0 -0.68610047734E+01  0.36794354200E+01  0.17730214348E+02  0.19364197185E+02  0.51100000000E-03 0.  1.
         12    1    3    3    0    0 -0.28901209087E+01  0.40827573597E+01  0.19845370517E+02  0.20466080169E+02  0.00000000000E+00 0. -1.
</event>
<event>
 7    1  0.5317846E-010  0.4778727E+02  0.7816164E-02  0.1312668E+00
        -11   -1    0    0    0    0  0.00000000000E+00  0.00000000000E+00  0.45593999997E+02  0.45594000000E+02  0.51100000000E-03 0.  1.
         11   -1    0    0    0    0 -0.00000000000E+00 -0.00000000000E+00 -0.45593999997E+02  0.45594000000E+02  0.51100000000E-03 0. -1.
    9900012    2    1    2    0    0  0.61089751547E+01 -0.39828641517E+02  0.16123998616E+02  0.47787267358E+02  0.19999983190E+02 0.  0.
         12    1    1    2    0    0 -0.61089751547E+01  0.39828641517E+02 -0.16123998616E+02  0.43400732642E+02  0.00000000000E+00 0. -1.
         11    1    3    3    0    0 -0.86618349551E+00  0.16218873893E+01  0.13016367182E+00  0.18432947116E+01  0.51100000000E-03 0. -1.
        -11    1    3    3    0    0  0.86699725927E+01 -0.39020270819E+02  0.15778230477E+02  0.42973276776E+02  0.51100000000E-03 0.  1.
        -12    1    3    3    0    0 -0.16948139425E+01 -0.24302580867E+01  0.21560446727E+00  0.29706958703E+01  0.00000000000E+00 0.  1.
</event>
<event>
 7    1 -0.5317846E-010  0.4778728E+02  0.7816164E-02  0.1312668E+00
        -11   -1    0    0    0    0  0.00000000000E+00  0.00000000000E+00  0.45593999997E+02  0.45594000000E+02  0.51100000000E-03 0. -1.
         11   -1    0    0    0    0 -0.00000000000E+00 -0.00000000000E+00 -0.45593999997E+02  0.45594000000E+02  0.51100000000E-03 0.  1.
    9900012    2    1    2    0    0  0.26254511450E+02 -0.33657892972E+02  0.78402675479E+01  0.47787275052E+02  0.20000018271E+02 0.  0.
         12    1    1    2    0    0 -0.26254511450E+02  0.33657892972E+02 -0.78402675479E+01  0.43400724948E+02  0.00000000000E+00 0. -1.
         11    1    3    3    0    0  0.67050081169E+01 -0.99669071395E+01  0.64542246510E+01  0.13636472707E+02  0.51100000000E-03 0. -1.
        -11    1    3    3    0    0  0.21054615690E+02 -0.24558396776E+02  0.16662698681E+01  0.32391173945E+02  0.51100000000E-03 0.  1.
        -12    1    3    3    0    0 -0.15051123564E+01  0.86741094290E+00 -0.28022697110E+00  0.17596283996E+01  0.00000000000E+00 0.  1.
</event>
<event>
 7    1  0.5317846E-010  0.4778727E+02  0.7816164E-02  0.1312668E+00
        -11   -1    0    0    0    0  0.00000000000E+00  0.00000000000E+00  0.45593999997E+02  0.45594000000E+02  0.51100000000E-03 0. -1.
         11   -1    0    0    0    0 -0.00000000000E+00 -0.00000000000E+00 -0.45593999997E+02  0.45594000000E+02  0.51100000000E-03 0.  1.
    9900012    2    1    2    0    0 -0.75446977376E+01  0.36035961468E+02 -0.22980655685E+02  0.47787268226E+02  0.19999987148E+02 0.  0.
         12    1    1    2    0    0  0.75446977376E+01 -0.36035961468E+02  0.22980655685E+02  0.43400731774E+02  0.00000000000E+00 0. -1.
         11    1    3    3    0    0  0.28790926021E+01  0.23822829487E+02 -0.16218792272E+02  0.28963176656E+02  0.51100000000E-03 0. -1.
        -11    1    3    3    0    0 -0.37837399283E+01  0.93751917975E+01 -0.24106851055E+01  0.10393378278E+02  0.51100000000E-03 0.  1.
         12    1    3    3    0    0 -0.66400504113E+01  0.28379401831E+01 -0.43511783075E+01  0.84307132920E+01  0.00000000000E+00 0. -1.
</event>
<event>
 7    1  0.5317846E-010  0.4778727E+02  0.7816164E-02  0.1312668E+00
        -11   -1    0    0    0    0  0.00000000000E+00  0.00000000000E+00  0.45593999997E+02  0.45594000000E+02  0.51100000000E-03 0. -1.
         11   -1    0    0    0    0 -0.00000000000E+00 -0.00000000000E+00 -0.45593999997E+02  0.45594000000E+02  0.51100000000E-03 0.  1.
    9900012    2    1    2    0    0  0.11401712306E+02  0.12250313372E+02 -0.40044401699E+02  0.47787270413E+02  0.19999997123E+02 0.  0.
         12    1    1    2    0    0 -0.11401712306E+02 -0.12250313372E+02  0.40044401699E+02  0.43400729587E+02  0.00000000000E+00 0. -1.
         11    1    3    3    0    0  0.13112003889E+01  0.59590456364E+01 -0.33674686674E+01  0.69691690210E+01  0.51100000000E-03 0. -1.
        -11    1    3    3    0    0  0.13400374557E+02  0.56210881133E+01 -0.30154089099E+02  0.33472910831E+02  0.51100000000E-03 0.  1.
        -12    1    3    3    0    0 -0.33098626397E+01  0.67017962249E+00 -0.65228439326E+01  0.73451905618E+01  0.00000000000E+00 0.  1.
</event>
<event>
 7    1  0.5317846E-010  0.4778728E+02  0.7816164E-02  0.1312668E+00
        -11   -1    0    0    0    0  0.00000000000E+00  0.00000000000E+00  0.45593999997E+02  0.45594000000E+02  0.51100000000E-03 0.  1.
         11   -1    0    0    0    0 -0.00000000000E+00 -0.00000000000E+00 -0.45593999997E+02  0.45594000000E+02  0.51100000000E-03 0. -1.
    9900012    2    1    2    0    0 -0.54749720400E+01 -0.35561641680E+02  0.24269670148E+02  0.47787279189E+02  0.20000037135E+02 0.  0.
         12    1    1    2    0    0  0.54749720400E+01  0.35561641680E+02 -0.24269670148E+02  0.43400720811E+02  0.00000000000E+00 0. -1.
         11    1    3    3    0    0 -0.28364330956E+00 -0.80603823737E+01  0.49606304648E+01  0.94687946649E+01  0.51100000000E-03 0. -1.
        -11    1    3    3    0    0 -0.54717330060E+01 -0.28139184833E+02  0.12165200217E+02  0.31140739903E+02  0.51100000000E-03 0.  1.
         12    1    3    3    0    0  0.28040427560E+00  0.63792552623E+00  0.71438394655E+01  0.71777446210E+01  0.00000000000E+00 0. -1.
</event>
<event>
 7    1  0.5317846E-010  0.4778727E+02  0.7816164E-02  0.1312668E+00
        -11   -1    0    0    0    0  0.00000000000E+00  0.00000000000E+00  0.45593999997E+02  0.45594000000E+02  0.51100000000E-03 0.  1.
         11   -1    0    0    0    0 -0.00000000000E+00 -0.00000000000E+00 -0.45593999997E+02  0.45594000000E+02  0.51100000000E-03 0. -1.
    9900012    2    1    2    0    0  0.16473272742E+01 -0.39487970974E+02  0.17933479914E+02  0.47787271427E+02  0.20000001746E+02 0.  0.
         12    1    1    2    0    0 -0.16473272742E+01  0.39487970974E+02 -0.17933479914E+02  0.43400728573E+02  0.00000000000E+00 0. -1.
         11    1    3    3    0    0 -0.51042294182E+01 -0.15147789055E+01  0.25961395716E+01  0.59234832677E+01  0.51100000000E-03 0. -1.
        -11    1    3    3    0    0  0.69298259716E+01 -0.30180397608E+02  0.13878408412E+02  0.33933598514E+02  0.51100000000E-03 0.  1.
         12    1    3    3    0    0 -0.17826927919E+00 -0.77927944604E+01  0.14589319304E+01  0.79301896456E+01  0.00000000000E+00 0. -1.
</event>
<event>
 7    1  0.5317846E-010  0.4778727E+02  0.7816164E-02  0.1312668E+00
        -11   -1    0    0    0    0  0.00000000000E+00  0.00000000000E+00  0.45593999997E+02  0.45594000000E+02  0.51100000000E-03 0. -1.
         11   -1    0    0    0    0 -0.00000000000E+00 -0.00000000000E+00 -0.45593999997E+02  0.45594000000E+02  0.51100000000E-03 0.  1.
    9900012    2    1    2    0    0 -0.36944579210E+02 -0.92637106050E+01 -0.20806373858E+02  0.47787268897E+02  0.19999990209E+02 0.  0.
         12    1    1    2    0    0  0.36944579210E+02  0.92637106050E+01  0.20806373858E+02  0.43400731103E+02  0.00000000000E+00 0. -1.
         11    1    3    3    0    0 -0.60689148073E+01 -0.28692629088E+01 -0.66395477841E+01  0.94418214142E+01  0.51100000000E-03 0. -1.
        -11    1    3    3    0    0 -0.20769761248E+02 -0.74513611907E+01 -0.16933444090E+02  0.27814515903E+02  0.51100000000E-03 0.  1.
         12    1    3    3    0    0 -0.10105903154E+02  0.10569134945E+01  0.27666180161E+01  0.10530931580E+02  0.00000000000E+00 0. -1.
</event>
<event>
 7    1  0.5317846E-010  0.4778728E+02  0.7816164E-02  0.1312668E+00
        -11   -1    0    0    0    0  0.00000000000E+00  0.00000000000E+00  0.45593999997E+02  0.45594000000E+02  0.51100000000E-03 0. -1.
         11   -1    0    0    0    0 -0.00000000000E+00 -0.00000000000E+00 -0.45593999997E+02  0.45594000000E+02  0.51100000000E-03 0.  1.
    9900012    2    1    2    0    0  0.48500103424E+01  0.36269265049E+02 -0.23337539021E+02  0.47787275178E+02  0.20000018846E+02 0.  0.
         12    1    1    2    0    0 -0.48500103424E+01 -0.36269265049E+02  0.23337539021E+02  0.43400724822E+02  0.00000000000E+00 0. -1.
         11    1    3    3    0    0  0.26258524387E+01 -0.57422016042E+00 -0.65081781467E+01  0.70413928219E+01  0.51100000000E-03 0. -1.
        -11    1    3    3    0    0  0.27225005608E+01  0.20232480026E+02 -0.79891022175E+01  0.21922386089E+02  0.51100000000E-03 0.  1.
         12    1    3    3    0    0 -0.49834265706E+00  0.16611005183E+02 -0.88402586568E+01  0.18823496267E+02  0.00000000000E+00 0. -1.
</event>
<event>
 7    1  0.5317846E-010  0.4778727E+02  0.7816164E-02  0.1312668E+00
        -11   -1    0    0    0    0  0.00000000000E+00  0.00000000000E+00  0.45593999997E+02  0.45594000000E+02  0.51100000000E-03 0.  1.
         11   -1    0    0    0    0 -0.00000000000E+00 -0.00000000000E+00 -0.45593999997E+02  0.45594000000E+02  0.51100000000E-03 0. -1.
    9900012    2    1    2    0    0  0.38703895449E+02  0.35677062915E+01  0.19310697547E+02  0.47787273153E+02  0.20000009613E+02 0.  0.
         12    1    1    2    0    0 -0.38703895449E+02 -0.35677062915E+01 -0.19310697547E+02  0.43400726847E+02  0.00000000000E+00 0. -1.
         11    1    3    3    0    0 -0.12133654777E+01 -0.11259664611E+01  0.12425426294E+01  0.20697750363E+01  0.51100000000E-03 0. -1.
        -11    1    3    3    0    0  0.62828667650E+01 -0.18286178791E+01  0.73015851950E+01  0.98046623988E+01  0.51100000000E-03 0.  1.
         12    1    3    3    0    0  0.33634394161E+02  0.65222906317E+01  0.10766569723E+02  0.35912835718E+02  0.00000000000E+00 0. -1.
</event>
<event>
 7    1  0.5317846E-010  0.4778728E+02  0.7816164E-02  0.1312668E+00
        -11   -1    0    0    0    0  0.00000000000E+00  0.00000000000E+00  0.45593999997E+02  0.45594000000E+02  0.51100000000E-03 0.  1.
         11   -1    0    0    0    0 -0.00000000000E+00 -0.00000000000E+00 -0.45593999997E+02  0.45594000000E+02  0.51100000000E-03 0. -1.
    9900012    2    1    2    0    0  0.31480915644E+02 -0.27167936504E+02 -0.12428903541E+02  0.47787280341E+02  0.20000042387E+02 0.  0.
         12    1    1    2    0    0 -0.31480915644E+02  0.27167936504E+02  0.12428903541E+02  0.43400719659E+02  0.00000000000E+00 0. -1.
         11    1    3    3    0    0  0.61690921195E+01  0.84650571332E+00 -0.23145331331E+01  0.66431418310E+01  0.51100000000E-03 0. -1.
        -11    1    3    3    0    0  0.21559572762E+02 -0.21725309014E+02 -0.13025119892E+02  0.33263463108E+02  0.51100000000E-03 0.  1.
        -12    1    3    3    0    0  0.37522507623E+01 -0.62891332032E+01  0.29107494845E+01  0.78806754020E+01  0.00000000000E+00 0.  1.
</event>
<event>
 7    1  0.5317846E-010  0.4778727E+02  0.7816164E-02  0.1312668E+00
        -11   -1    0    0    0    0  0.00000000000E+00  0.00000000000E+00  0.45593999997E+02  0.45594000000E+02  0.51100000000E-03 0.  1.
         11   -1    0    0    0    0 -0.00000000000E+00 -0.00000000000E+00 -0.45593999997E+02  0.45594000000E+02  0.51100000000E-03 0. -1.
    9900012    2    1    2    0    0  0.40344309394E+02  0.28091805452E+01  0.15750185009E+02  0.47787272775E+02  0.20000007890E+02 0.  0.
         12    1    1    2    0    0 -0.40344309394E+02 -0.28091805452E+01 -0.15750185009E+02  0.43400727225E+02  0.00000000000E+00 0. -1.
         11    1    3    3    0    0 -0.50294133979E+00  0.37087400075E-01  0.45851615528E+00  0.68158843321E+00  0.51100000000E-03 0. -1.
        -11    1    3    3    0    0  0.41598039596E+02  0.14631563234E+01  0.11741491000E+02  0.43248125229E+02  0.51100000000E-03 0.  1.
        -12    1    3    3    0    0 -0.75078886131E+00  0.13089368218E+01  0.35501778537E+01  0.38575591131E+01  0.00000000000E+00 0.  1.
</event>
<event>
 7    1  0.5317846E-010  0.4778728E+02  0.7816164E-02  0.1312668E+00
        -11   -1    0    0    0    0  0.00000000000E+00  0.00000000000E+00  0.45593999997E+02  0.45594000000E+02  0.51100000000E-03 0.  1.
         11   -1    0    0    0    0 -0.00000000000E+00 -0.00000000000E+00 -0.45593999997E+02  0.45594000000E+02  0.51100000000E-03 0. -1.
    9900012    2    1    2    0    0 -0.19124411094E+02  0.75859570105E+01  0.38214304611E+02  0.47787275117E+02  0.20000018570E+02 0.  0.
         12    1    1    2    0    0  0.19124411094E+02 -0.75859570105E+01 -0.38214304611E+02  0.43400724883E+02  0.00000000000E+00 0. -1.
         11    1    3    3    0    0 -0.15188069910E+02  0.50790378425E+01  0.26780023008E+02  0.31203264662E+02  0.51100000000E-03 0.  1.
        -11    1    3    3    0    0 -0.26040875203E+01  0.52413187468E+01  0.12893709635E+01  0.59929268110E+01  0.51100000000E-03 0. -1.
        -12    1    3    3    0    0 -0.13322536635E+01 -0.27343995788E+01  0.10144910640E+02  0.10591083645E+02  0.00000000000E+00 0.  1.
</event>
<event>
 7    1  0.5317846E-010  0.4778727E+02  0.7816164E-02  0.1312668E+00
        -11   -1    0    0    0    0  0.00000000000E+00  0.00000000000E+00  0.45593999997E+02  0.45594000000E+02  0.51100000000E-03 0.  1.
         11   -1    0    0    0    0 -0.00000000000E+00 -0.00000000000E+00 -0.45593999997E+02  0.45594000000E+02  0.51100000000E-03 0. -1.
    9900012    2    1    2    0    0 -0.30480606149E+02 -0.72024894613E+01  0.30044635823E+02  0.47787270197E+02  0.19999996136E+02 0.  0.
         12    1    1    2    0    0  0.30480606149E+02  0.72024894613E+01 -0.30044635823E+02  0.43400729803E+02  0.00000000000E+00 0. -1.
         11    1    3    3    0    0 -0.59875262350E+01 -0.38119489656E+00 -0.10648635986E+01  0.60934156849E+01  0.51100000000E-03 0. -1.
        -11    1    3    3    0    0 -0.70949281968E+01 -0.64651709710E+01  0.15947280903E+02  0.18613226756E+02  0.51100000000E-03 0.  1.
        -12    1    3    3    0    0 -0.17398151718E+02 -0.35612359374E+00  0.15162218519E+02  0.23080627756E+02  0.00000000000E+00 0.  1.
</event>
<event>
 7    1  0.5317846E-010  0.4778730E+02  0.7816164E-02  0.1312668E+00
        -11   -1    0    0    0    0  0.00000000000E+00  0.00000000000E+00  0.45593999997E+02  0.45594000000E+02  0.51100000000E-03 0. -1.
         11   -1    0    0    0    0 -0.00000000000E+00 -0.00000000000E+00 -0.45593999997E+02  0.45594000000E+02  0.51100000000E-03 0.  1.
    9900012    2    1    2    0    0  0.13428707084E+02  0.29141441942E+02 -0.29224418127E+02  0.47787303839E+02  0.20000149522E+02 0.  0.
         12    1    1    2    0    0 -0.13428707084E+02 -0.29141441942E+02  0.29224418127E+02  0.43400696161E+02  0.00000000000E+00 0. -1.
         11    1    3    3    0    0 -0.16310062651E+01 -0.40418643005E+00 -0.66671387593E+01  0.68756299787E+01  0.51100000000E-03 0. -1.
        -11    1    3    3    0    0  0.44532434633E+01  0.85542169194E+01 -0.11243930969E+02  0.14813236930E+02  0.51100000000E-03 0.  1.
         12    1    3    3    0    0  0.10606469886E+02  0.20991411452E+02 -0.11313348399E+02  0.26098436930E+02  0.00000000000E+00 0. -1.
</event>
<event>
 7    1  0.5317846E-010  0.4778727E+02  0.7816164E-02  0.1312668E+00
        -11   -1    0    0    0    0  0.00000000000E+00  0.00000000000E+00  0.45593999997E+02  0.45594000000E+02  0.51100000000E-03 0.  1.
         11   -1    0    0    0    0 -0.00000000000E+00 -0.00000000000E+00 -0.45593999997E+02  0.45594000000E+02  0.51100000000E-03 0. -1.
    9900012    2    1    2    0    0 -0.16020872139E+02 -0.38681167264E+02  0.11433388221E+02  0.47787269463E+02  0.19999992788E+02 0.  0.
         12    1    1    2    0    0  0.16020872139E+02  0.38681167264E+02 -0.11433388221E+02  0.43400730537E+02  0.00000000000E+00 0. -1.
         11    1    3    3    0    0  0.34730497070E+01 -0.79343015584E+01  0.53505538638E+01  0.10180552166E+02  0.51100000000E-03 0. -1.
        -11    1    3    3    0    0 -0.18627056101E+02 -0.29225649917E+02  0.40020139948E+01  0.34887274877E+02  0.51100000000E-03 0.  1.
        -12    1    3    3    0    0 -0.86686574478E+00 -0.15212157883E+01  0.20808203628E+01  0.27194424201E+01  0.00000000000E+00 0.  1.
</event>
<event>
 7    1  0.5317846E-010  0.4778727E+02  0.7816164E-02  0.1312668E+00
        -11   -1    0    0    0    0  0.00000000000E+00  0.00000000000E+00  0.45593999997E+02  0.45594000000E+02  0.51100000000E-03 0.  1.
         11   -1    0    0    0    0 -0.00000000000E+00 -0.00000000000E+00 -0.45593999997E+02  0.45594000000E+02  0.51100000000E-03 0. -1.
    9900012    2    1    2    0    0  0.37465502719E+01  0.22965756113E+02  0.36635507958E+02  0.47787273783E+02  0.20000012488E+02 0.  0.
         12    1    1    2    0    0 -0.37465502719E+01 -0.22965756113E+02 -0.36635507958E+02  0.43400726217E+02  0.00000000000E+00 0. -1.
         11    1    3    3    0    0  0.33156600286E+01  0.58287917280E+01  0.17126221367E+02  0.18392277538E+02  0.51100000000E-03 0. -1.
        -11    1    3    3    0    0 -0.19166357604E+01  0.16639995977E+02  0.98272347117E+01  0.19420028350E+02  0.51100000000E-03 0.  1.
        -12    1    3    3    0    0  0.23475260037E+01  0.49696840743E+00  0.96820518790E+01  0.99749678959E+01  0.00000000000E+00 0.  1.
</event>
<event>
 7    1  0.5317846E-010  0.4778727E+02  0.7816164E-02  0.1312668E+00
        -11   -1    0    0    0    0  0.00000000000E+00  0.00000000000E+00  0.45593999997E+02  0.45594000000E+02  0.51100000000E-03 0. -1.
         11   -1    0    0    0    0 -0.00000000000E+00 -0.00000000000E+00 -0.45593999997E+02  0.45594000000E+02  0.51100000000E-03 0.  1.
    9900012    2    1    2    0    0 -0.45101580328E+01 -0.21417486810E+02 -0.37477635677E+02  0.47787269100E+02  0.19999991135E+02 0.  0.
         12    1    1    2    0    0  0.45101580328E+01  0.21417486810E+02  0.37477635677E+02  0.43400730900E+02  0.00000000000E+00 0. -1.
         11    1    3    3    0    0 -0.46529965114E+00  0.20173554925E+01 -0.37591867600E+01  0.42915862226E+01  0.51100000000E-03 0. -1.
        -11    1    3    3    0    0 -0.25813119125E+01 -0.23652429446E+02 -0.34432084126E+02  0.41852945027E+02  0.51100000000E-03 0.  1.
        -12    1    3    3    0    0 -0.14635464691E+01  0.21758714414E+00  0.71363520969E+00  0.16427378504E+01  0.00000000000E+00 0.  1.
</event>
<event>
 7    1  0.5317846E-010  0.4778727E+02  0.7816164E-02  0.1312668E+00
        -11   -1    0    0    0    0  0.00000000000E+00  0.00000000000E+00  0.45593999997E+02  0.45594000000E+02  0.51100000000E-03 0.  1.
         11   -1    0    0    0    0 -0.00000000000E+00 -0.00000000000E+00 -0.45593999997E+02  0.45594000000E+02  0.51100000000E-03 0. -1.
    9900012    2    1    2    0    0  0.57771624364E+01  0.40198629453E+01  0.42826257308E+02  0.47787271677E+02  0.20000002885E+02 0.  0.
         12    1    1    2    0    0 -0.57771624364E+01 -0.40198629453E+01 -0.42826257308E+02  0.43400728323E+02  0.00000000000E+00 0. -1.
         11    1    3    3    0    0  0.59325478808E+01 -0.46297593731E+01  0.21935375896E+02  0.23190310739E+02  0.51100000000E-03 0. -1.
        -11    1    3    3    0    0  0.15536241114E+01 -0.85507892314E+00  0.94966508993E+01  0.96608118918E+01  0.51100000000E-03 0.  1.
         12    1    3    3    0    0 -0.17090095557E+01  0.95047012415E+01  0.11394230513E+02  0.14936149046E+02  0.00000000000E+00 0. -1.
</event>
<event>
 7    1  0.5317846E-010  0.4778729E+02  0.7816164E-02  0.1312668E+00
        -11   -1    0    0    0    0  0.00000000000E+00  0.00000000000E+00  0.45593999997E+02  0.45594000000E+02  0.51100000000E-03 0.  1.
         11   -1    0    0    0    0 -0.00000000000E+00 -0.00000000000E+00 -0.45593999997E+02  0.45594000000E+02  0.51100000000E-03 0. -1.
    9900012    2    1    2    0    0  0.28166196884E+02 -0.24884656900E+02  0.21703475369E+02  0.47787289879E+02  0.20000085873E+02 0.  0.
         12    1    1    2    0    0 -0.28166196884E+02  0.24884656900E+02 -0.21703475369E+02  0.43400710121E+02  0.00000000000E+00 0. -1.
         11    1    3    3    0    0  0.63878428045E+01 -0.49248918348E+01 -0.11129328311E+01  0.81423408813E+01  0.51100000000E-03 0. -1.
        -11    1    3    3    0    0  0.10069682279E+02 -0.12918958817E+02  0.19720801687E+02  0.25636068684E+02  0.51100000000E-03 0.  1.
        -12    1    3    3    0    0  0.11708671801E+02 -0.70408062482E+01  0.30956065123E+01  0.14008880314E+02  0.00000000000E+00 0.  1.
</event>
<event>
 7    1  0.5317846E-010  0.4778727E+02  0.7816164E-02  0.1312668E+00
        -11   -1    0    0    0    0  0.00000000000E+00  0.00000000000E+00  0.45593999997E+02  0.45594000000E+02  0.51100000000E-03 0.  1.
         11   -1    0    0    0    0 -0.00000000000E+00 -0.00000000000E+00 -0.45593999997E+02  0.45594000000E+02  0.51100000000E-03 0. -1.
    9900012    2    1    2    0    0 -0.21035912770E+02 -0.14987639097E+02  0.34878140867E+02  0.47787266572E+02  0.19999979607E+02 0.  0.
         12    1    1    2    0    0  0.21035912770E+02  0.14987639097E+02 -0.34878140867E+02  0.43400733428E+02  0.00000000000E+00 0. -1.
         11    1    3    3    0    0 -0.27723582983E+01 -0.10645391963E+02  0.19704493434E+02  0.22567175329E+02  0.51100000000E-03 0. -1.
        -11    1    3    3    0    0 -0.18432507163E+02 -0.30835656165E+01  0.14945556764E+02  0.23929800762E+02  0.51100000000E-03 0.  1.
        -12    1    3    3    0    0  0.16895269117E+00 -0.12586815168E+01  0.22809066915E+00  0.12902904812E+01  0.00000000000E+00 0.  1.
</event>
<event>
 7    1  0.5317846E-010  0.4778728E+02  0.7816164E-02  0.1312668E+00
        -11   -1    0    0    0    0  0.00000000000E+00  0.00000000000E+00  0.45593999997E+02  0.45594000000E+02  0.51100000000E-03 0. -1.
         11   -1    0    0    0    0 -0.00000000000E+00 -0.00000000000E+00 -0.45593999997E+02  0.45594000000E+02  0.51100000000E-03 0.  1.
    9900012    2    1    2    0    0 -0.43334715852E+02 -0.19116590136E+01 -0.14390011357E+01  0.47787276937E+02  0.20000026867E+02 0.  0.
         12    1    1    2    0    0  0.43334715852E+02  0.19116590136E+01  0.14390011357E+01  0.43400723063E+02  0.00000000000E+00 0. -1.
         11    1    3    3    0    0 -0.49526132304E+01  0.36631559293E+01 -0.59777698464E+01  0.85837533614E+01  0.51100000000E-03 0. -1.
        -11    1    3    3    0    0 -0.33936603944E+02 -0.47777815125E+01  0.51137163378E+01  0.34650690880E+02  0.51100000000E-03 0.  1.
         12    1    3    3    0    0 -0.44454986771E+01 -0.79703343034E+00 -0.57494762704E+00  0.45528326953E+01  0.00000000000E+00 0. -1.
</event>
<event>
 7    1  0.5317846E-010  0.4778724E+02  0.7816164E-02  0.1312668E+00
        -11   -1    0    0    0    0  0.00000000000E+00  0.00000000000E+00  0.45593999997E+02  0.45594000000E+02  0.51100000000E-03 0.  1.
         11   -1    0    0    0    0 -0.00000000000E+00 -0.00000000000E+00 -0.45593999997E+02  0.45594000000E+02  0.51100000000E-03 0. -1.
    9900012    2    1    2    0    0 -0.13779197864E+02 -0.24991299234E+02  0.32698535924E+02  0.47787244445E+02  0.19999878724E+02 0.  0.
         12    1    1    2    0    0  0.13779197864E+02  0.24991299234E+02 -0.32698535924E+02  0.43400755555E+02  0.00000000000E+00 0. -1.
         11    1    3    3    0    0  0.18492686663E+01 -0.61417388278E+00  0.44746953278E+00  0.19993082310E+01  0.51100000000E-03 0. -1.
        -11    1    3    3    0    0 -0.12619221425E+02 -0.26128934063E+02  0.28578756497E+02  0.40727279160E+02  0.51100000000E-03 0.  1.
        -12    1    3    3    0    0 -0.30092451049E+01  0.17518087118E+01  0.36723098938E+01  0.50606570542E+01  0.00000000000E+00 0.  1.
</event>
<event>
 7    1  0.5317846E-010  0.4778727E+02  0.7816164E-02  0.1312668E+00
        -11   -1    0    0    0    0  0.00000000000E+00  0.00000000000E+00  0.45593999997E+02  0.45594000000E+02  0.51100000000E-03 0.  1.
         11   -1    0    0    0    0 -0.00000000000E+00 -0.00000000000E+00 -0.45593999997E+02  0.45594000000E+02  0.51100000000E-03 0. -1.
    9900012    2    1    2    0    0  0.33071553593E+02  0.87909407683E+01  0.26694848443E+02  0.47787271550E+02  0.20000002304E+02 0.  0.
         12    1    1    2    0    0 -0.33071553593E+02 -0.87909407683E+01 -0.26694848443E+02  0.43400728450E+02  0.00000000000E+00 0. -1.
         11    1    3    3    0    0  0.81853928492E+01  0.34865002121E+01  0.37470556464E+01  0.96538472177E+01  0.51100000000E-03 0. -1.
        -11    1    3    3    0    0  0.82501395898E+01  0.32946943575E+01 -0.96269226752E+00  0.89356919611E+01  0.51100000000E-03 0.  1.
        -12    1    3    3    0    0  0.16636021154E+02  0.20097461987E+01  0.23910485064E+02  0.29197732371E+02  0.00000000000E+00 0.  1.
</event>
<event>
 7    1  0.5317846E-010  0.4778727E+02  0.7816164E-02  0.1312668E+00
        -11   -1    0    0    0    0  0.00000000000E+00  0.00000000000E+00  0.45593999997E+02  0.45594000000E+02  0.51100000000E-03 0. -1.
         11   -1    0    0    0    0 -0.00000000000E+00 -0.00000000000E+00 -0.45593999997E+02  0.45594000000E+02  0.51100000000E-03 0.  1.
    9900012    2    1    2    0    0 -0.37918674241E+02 -0.21052833338E+02  0.16048226199E+01  0.47787273008E+02  0.20000008953E+02 0.  0.
         12    1    1    2    0    0  0.37918674241E+02  0.21052833338E+02 -0.16048226199E+01  0.43400726992E+02  0.00000000000E+00 0. -1.
         11    1    3    3    0    0 -0.12284631360E+02  0.66242364304E+00  0.31366993782E+01  0.12696056710E+02  0.51100000000E-03 0. -1.
        -11    1    3    3    0    0 -0.45487066296E+01 -0.98067069988E+01  0.21574618327E+00  0.10812436397E+02  0.51100000000E-03 0.  1.
        -12    1    3    3    0    0 -0.21085336252E+02 -0.11908549983E+02 -0.17476229415E+01  0.24278779901E+02  0.00000000000E+00 0.  1.
</event>
<event>
 7    1  0.5317846E-010  0.4778727E+02  0.7816164E-02  0.1312668E+00
        -11   -1    0    0    0    0  0.00000000000E+00  0.00000000000E+00  0.45593999997E+02  0.45594000000E+02  0.51100000000E-03 0. -1.
         11   -1    0    0    0    0 -0.00000000000E+00 -0.00000000000E+00 -0.45593999997E+02  0.45594000000E+02  0.51100000000E-03 0.  1.
    9900012    2    1    2    0    0 -0.17847675165E+02  0.38936649892E+02  0.70015072771E+01  0.47787270539E+02  0.19999997695E+02 0.  0.
         12    1    1    2    0    0  0.17847675165E+02 -0.38936649892E+02 -0.70015072771E+01  0.43400729461E+02  0.00000000000E+00 0. -1.
         11    1    3    3    0    0 -0.12126927401E+02  0.75527144249E+01  0.35095468425E+01  0.14711314784E+02  0.51100000000E-03 0. -1.
        -11    1    3    3    0    0 -0.45975244370E+01  0.31422687404E+02  0.35199003204E+01  0.31951716905E+02  0.51100000000E-03 0.  1.
        -12    1    3    3    0    0 -0.11232233271E+01 -0.38751936895E-01 -0.27939885805E-01  0.11242388502E+01  0.00000000000E+00 0.  1.
</event>
<event>
 7    1  0.5317846E-010  0.4778728E+02  0.7816164E-02  0.1312668E+00
        -11   -1    0    0    0    0  0.00000000000E+00  0.00000000000E+00  0.45593999997E+02  0.45594000000E+02  0.51100000000E-03 0.  1.
         11   -1    0    0    0    0 -0.00000000000E+00 -0.00000000000E+00 -0.45593999997E+02  0.45594000000E+02  0.51100000000E-03 0. -1.
    9900012    2    1    2    0    0 -0.40321967392E+02 -0.12890930727E+02  0.95700389014E+01  0.47787276574E+02  0.20000025209E+02 0.  0.
         12    1    1    2    0    0  0.40321967392E+02  0.12890930727E+02 -0.95700389014E+01  0.43400723426E+02  0.00000000000E+00 0. -1.
         11    1    3    3    0    0 -0.14688190554E+02 -0.13131742769E+02  0.79804675879E+01  0.21257315755E+02  0.51100000000E-03 0. -1.
        -11    1    3    3    0    0 -0.19107669069E+02  0.39416016399E+00  0.40813156379E+01  0.19542658905E+02  0.51100000000E-03 0.  1.
         12    1    3    3    0    0 -0.65261077693E+01 -0.15334812194E+00 -0.24917443244E+01  0.69873019143E+01  0.00000000000E+00 0. -1.
</event>
<event>
 7    1  0.5317846E-010  0.4778727E+02  0.7816164E-02  0.1312668E+00
        -11   -1    0    0    0    0  0.00000000000E+00  0.00000000000E+00  0.45593999997E+02  0.45594000000E+02  0.51100000000E-03 0.  1.
         11   -1    0    0    0    0 -0.00000000000E+00 -0.00000000000E+00 -0.45593999997E+02  0.45594000000E+02  0.51100000000E-03 0. -1.
    9900012    2    1    2    0    0 -0.28835985365E+02 -0.11206255020E+01  0.32416865891E+02  0.47787273650E+02  0.20000011880E+02 0.  0.
         12    1    1    2    0    0  0.28835985365E+02  0.11206255020E+01 -0.32416865891E+02  0.43400726350E+02  0.00000000000E+00 0. -1.
         11    1    3    3    0    0 -0.35490750015E+01 -0.26618462584E+01  0.19025940779E+01  0.48271340727E+01  0.51100000000E-03 0. -1.
        -11    1    3    3    0    0 -0.24776246227E+02 -0.20887874038E+01  0.20269388292E+02  0.32079175673E+02  0.51100000000E-03 0.  1.
        -12    1    3    3    0    0 -0.51066413709E+00  0.36300081602E+01  0.10244883522E+02  0.10880963904E+02  0.00000000000E+00 0.  1.
</event>
<event>
 7    1  0.5317846E-010  0.4778727E+02  0.7816164E-02  0.1312668E+00
        -11   -1    0    0    0    0  0.00000000000E+00  0.00000000000E+00  0.45593999997E+02  0.45594000000E+02  0.51100000000E-03 0. -1.
         11   -1    0    0    0    0 -0.00000000000E+00 -0.00000000000E+00 -0.45593999997E+02  0.45594000000E+02  0.51100000000E-03 0.  1.
    9900012    2    1    2    0    0  0.15766283627E+02  0.26920741937E+02 -0.30171528421E+02  0.47787272205E+02  0.20000005293E+02 0.  0.
         12    1    1    2    0    0 -0.15766283627E+02 -0.26920741937E+02  0.30171528421E+02  0.43400727795E+02  0.00000000000E+00 0. -1.
         11    1    3    3    0    0  0.40655725526E+01  0.68621765320E+01 -0.29793585707E+01  0.85143951453E+01  0.51100000000E-03 0. -1.
        -11    1    3    3    0    0  0.45348498884E+01  0.63612818961E+01 -0.21371921148E+02  0.22754994720E+02  0.51100000000E-03 0.  1.
        -12    1    3    3    0    0  0.71658611859E+01  0.13697283509E+02 -0.58202487023E+01  0.16517882340E+02  0.00000000000E+00 0.  1.
</event>
<event>
 7    1  0.5317846E-010  0.4778727E+02  0.7816164E-02  0.1312668E+00
        -11   -1    0    0    0    0  0.00000000000E+00  0.00000000000E+00  0.45593999997E+02  0.45594000000E+02  0.51100000000E-03 0.  1.
         11   -1    0    0    0    0 -0.00000000000E+00 -0.00000000000E+00 -0.45593999997E+02  0.45594000000E+02  0.51100000000E-03 0. -1.
    9900012    2    1    2    0    0 -0.15257454247E+02 -0.18491863289E+02  0.36178506520E+02  0.47787271296E+02  0.20000001148E+02 0.  0.
         12    1    1    2    0    0  0.15257454247E+02  0.18491863289E+02 -0.36178506520E+02  0.43400728704E+02  0.00000000000E+00 0. -1.
         11    1    3    3    0    0 -0.84296209234E+01 -0.44424053460E+01  0.93826582262E+01  0.13372649320E+02  0.51100000000E-03 0. -1.
        -11    1    3    3    0    0 -0.20714527334E+01 -0.11162986026E+02  0.59084833942E+01  0.12798958931E+02  0.51100000000E-03 0.  1.
        -12    1    3    3    0    0 -0.47563805898E+01 -0.28864719169E+01  0.20887364900E+02  0.21615663045E+02  0.00000000000E+00 0.  1.
</event>
<event>
 7    1  0.5317846E-010  0.4778727E+02  0.7816164E-02  0.1312668E+00
        -11   -1    0    0    0    0  0.00000000000E+00  0.00000000000E+00  0.45593999997E+02  0.45594000000E+02  0.51100000000E-03 0.  1.
         11   -1    0    0    0    0 -0.00000000000E+00 -0.00000000000E+00 -0.45593999997E+02  0.45594000000E+02  0.51100000000E-03 0. -1.
    9900012    2    1    2    0    0  0.11930511596E+02 -0.32790978960E+01  0.41599684923E+02  0.47787269872E+02  0.19999994654E+02 0.  0.
         12    1    1    2    0    0 -0.11930511596E+02  0.32790978960E+01 -0.41599684923E+02  0.43400730128E+02  0.00000000000E+00 0. -1.
         11    1    3    3    0    0  0.79909513703E+01 -0.46941285104E+01  0.98617292616E+01  0.13533065084E+02  0.51100000000E-03 0. -1.
        -11    1    3    3    0    0 -0.40253114006E+01  0.54741676425E+00  0.56165960307E+01  0.69317348636E+01  0.51100000000E-03 0.  1.
        -12    1    3    3    0    0  0.79648716262E+01  0.86761385013E+00  0.26121359631E+02  0.27322469924E+02  0.00000000000E+00 0.  1.
</event>
<event>
 7    1  0.5317846E-010  0.4778727E+02  0.7816164E-02  0.1312668E+00
        -11   -1    0    0    0    0  0.00000000000E+00  0.00000000000E+00  0.45593999997E+02  0.45594000000E+02  0.51100000000E-03 0. -1.
         11   -1    0    0    0    0 -0.00000000000E+00 -0.00000000000E+00 -0.45593999997E+02  0.45594000000E+02  0.51100000000E-03 0.  1.
    9900012    2    1    2    0    0  0.64794123012E+01  0.15604282856E+02 -0.39976828745E+02  0.47787271161E+02  0.20000000531E+02 0.  0.
         12    1    1    2    0    0 -0.64794123012E+01 -0.15604282856E+02  0.39976828745E+02  0.43400728839E+02  0.00000000000E+00 0. -1.
         11    1    3    3    0    0  0.17430915923E+01 -0.42112606754E+01 -0.41264640009E+01  0.61482347213E+01  0.51100000000E-03 0. -1.
        -11    1    3    3    0    0  0.59035166591E+01  0.18264662470E+02 -0.31727743948E+02  0.37082329220E+02  0.51100000000E-03 0.  1.
         12    1    3    3    0    0 -0.11671959502E+01  0.15508810621E+01 -0.41226207966E+01  0.45567072198E+01  0.00000000000E+00 0. -1.
</event>
<event>
 7    1  0.5317846E-010  0.4778731E+02  0.7816164E-02  0.1312668E+00
        -11   -1    0    0    0    0  0.00000000000E+00  0.00000000000E+00  0.45593999997E+02  0.45594000000E+02  0.51100000000E-03 0.  1.
         11   -1    0    0    0    0 -0.00000000000E+00 -0.00000000000E+00 -0.45593999997E+02  0.45594000000E+02  0.51100000000E-03 0. -1.
    9900012    2    1    2    0    0 -0.19117588428E+02  0.43408452082E+01  0.38720732337E+02  0.47787306030E+02  0.20000159511E+02 0.  0.
         12    1    1    2    0    0  0.19117588428E+02 -0.43408452082E+01 -0.38720732337E+02  0.43400693970E+02  0.00000000000E+00 0. -1.
         11    1    3    3    0    0  0.25009169052E+01 -0.24063214703E+01  0.71233676372E+01  0.79238459816E+01  0.51100000000E-03 0. -1.
        -11    1    3    3    0    0 -0.14050581972E+02  0.46689895246E+01  0.26931608910E+02  0.30733204774E+02  0.51100000000E-03 0.  1.
         12    1    3    3    0    0 -0.75679233606E+01  0.20781771539E+01  0.46657557892E+01  0.91302552735E+01  0.00000000000E+00 0. -1.
</event>
<event>
 7    1  0.5317846E-010  0.4778727E+02  0.7816164E-02  0.1312668E+00
        -11   -1    0    0    0    0  0.00000000000E+00  0.00000000000E+00  0.45593999997E+02  0.45594000000E+02  0.51100000000E-03 0. -1.
         11   -1    0    0    0    0 -0.00000000000E+00 -0.00000000000E+00 -0.45593999997E+02  0.45594000000E+02  0.51100000000E-03 0.  1.
    9900012    2    1    2    0    0  0.26711745113E+02  0.28364061917E+02 -0.19120295045E+02  0.47787273992E+02  0.20000013438E+02 0.  0.
         12    1    1    2    0    0 -0.26711745113E+02 -0.28364061917E+02  0.19120295045E+02  0.43400726008E+02  0.00000000000E+00 0. -1.
         11    1    3    3    0    0  0.15047345069E+02  0.21891198241E+02 -0.66521645201E+01  0.27384273719E+02  0.51100000000E-03 0. -1.
        -11    1    3    3    0    0  0.35102517827E+01  0.69943826741E+01 -0.46990419139E+01  0.91282118588E+01  0.51100000000E-03 0.  1.
         12    1    3    3    0    0  0.81541482613E+01 -0.52151899774E+00 -0.77690886116E+01  0.11274788414E+02  0.00000000000E+00 0. -1.
</event>
<event>
 7    1  0.5317846E-010  0.4778726E+02  0.7816164E-02  0.1312668E+00
        -11   -1    0    0    0    0  0.00000000000E+00  0.00000000000E+00  0.45593999997E+02  0.45594000000E+02  0.51100000000E-03 0.  1.
         11   -1    0    0    0    0 -0.00000000000E+00 -0.00000000000E+00 -0.45593999997E+02  0.45594000000E+02  0.51100000000E-03 0. -1.
    9900012    2    1    2    0    0  0.35034433637E+02  0.25086364860E+02  0.51852843862E+01  0.47787257883E+02  0.19999939991E+02 0.  0.
         12    1    1    2    0    0 -0.35034433637E+02 -0.25086364860E+02 -0.51852843862E+01  0.43400742117E+02  0.00000000000E+00 0. -1.
         11    1    3    3    0    0 -0.42335941767E+00  0.54993420491E+01  0.12352938450E+01  0.56522515261E+01  0.51100000000E-03 0. -1.
        -11    1    3    3    0    0  0.32759322058E+02  0.16421019424E+02  0.65556967041E+01  0.37226337721E+02  0.51100000000E-03 0.  1.
        -12    1    3    3    0    0  0.26984709973E+01  0.31660033862E+01 -0.26057061630E+01  0.49086686355E+01  0.00000000000E+00 0.  1.
</event>
<event>
 7    1  0.5317846E-010  0.4778726E+02  0.7816164E-02  0.1312668E+00
        -11   -1    0    0    0    0  0.00000000000E+00  0.00000000000E+00  0.45593999997E+02  0.45594000000E+02  0.51100000000E-03 0. -1.
         11   -1    0    0    0    0 -0.00000000000E+00 -0.00000000000E+00 -0.45593999997E+02  0.45594000000E+02  0.51100000000E-03 0.  1.
    9900012    2    1    2    0    0  0.31596457884E+02  0.12896690608E+02 -0.26813486626E+02  0.47787264470E+02  0.19999970026E+02 0.  0.
         12    1    1    2    0    0 -0.31596457884E+02 -0.12896690608E+02  0.26813486626E+02  0.43400735530E+02  0.00000000000E+00 0. -1.
         11    1    3    3    0    0  0.77348451490E+01 -0.22950150307E+01 -0.29861222105E+01  0.86030139827E+01  0.51100000000E-03 0. -1.
        -11    1    3    3    0    0  0.89117688744E+01  0.11882098898E+02 -0.69569464057E+01  0.16401310992E+02  0.51100000000E-03 0.  1.
        -12    1    3    3    0    0  0.14949843861E+02  0.33096067404E+01 -0.16870418010E+02  0.22782939496E+02  0.00000000000E+00 0.  1.
</event>
<event>
 7    1  0.5317846E-010  0.4778727E+02  0.7816164E-02  0.1312668E+00
        -11   -1    0    0    0    0  0.00000000000E+00  0.00000000000E+00  0.45593999997E+02  0.45594000000E+02  0.51100000000E-03 0.  1.
         11   -1    0    0    0    0 -0.00000000000E+00 -0.00000000000E+00 -0.45593999997E+02  0.45594000000E+02  0.51100000000E-03 0. -1.
    9900012    2    1    2    0    0 -0.30007580096E+01 -0.26623159640E+02  0.34144197422E+02  0.47787269644E+02  0.19999993615E+02 0.  0.
         12    1    1    2    0    0  0.30007580096E+01  0.26623159640E+02 -0.34144197422E+02  0.43400730356E+02  0.00000000000E+00 0. -1.
         11    1    3    3    0    0 -0.30238287049E+01 -0.21333606267E+02  0.15337058528E+02  0.26447904661E+02  0.51100000000E-03 0. -1.
        -11    1    3    3    0    0 -0.97522736228E+00  0.21631083425E+01  0.29187170661E+01  0.37615177366E+01  0.51100000000E-03 0.  1.
        -12    1    3    3    0    0  0.99829805764E+00 -0.74526617159E+01  0.15888421827E+02  0.17577847247E+02  0.00000000000E+00 0.  1.
</event>
<event>
 7    1  0.5317846E-010  0.4778727E+02  0.7816164E-02  0.1312668E+00
        -11   -1    0    0    0    0  0.00000000000E+00  0.00000000000E+00  0.45593999997E+02  0.45594000000E+02  0.51100000000E-03 0.  1.
         11   -1    0    0    0    0 -0.00000000000E+00 -0.00000000000E+00 -0.45593999997E+02  0.45594000000E+02  0.51100000000E-03 0. -1.
    9900012    2    1    2    0    0 -0.12434888223E+02  0.41563012763E+02  0.12299508004E+01  0.47787271273E+02  0.20000001043E+02 0.  0.
         12    1    1    2    0    0  0.12434888223E+02 -0.41563012763E+02 -0.12299508004E+01  0.43400728727E+02  0.00000000000E+00 0. -1.
         11    1    3    3    0    0 -0.31243016380E+00  0.71906503631E+01 -0.50965602946E+01  0.88191832020E+01  0.51100000000E-03 0. -1.
        -11    1    3    3    0    0 -0.58670217794E+01  0.30090057214E+02  0.34106498316E+01  0.30845842836E+02  0.51100000000E-03 0.  1.
        -12    1    3    3    0    0 -0.62554362802E+01  0.42823051854E+01  0.29158612634E+01  0.81222452354E+01  0.00000000000E+00 0.  1.
</event>
<event>
 7    1  0.5317846E-010  0.4778727E+02  0.7816164E-02  0.1312668E+00
        -11   -1    0    0    0    0  0.00000000000E+00  0.00000000000E+00  0.45593999997E+02  0.45594000000E+02  0.51100000000E-03 0.  1.
         11   -1    0    0    0    0 -0.00000000000E+00 -0.00000000000E+00 -0.45593999997E+02  0.45594000000E+02  0.51100000000E-03 0. -1.
    9900012    2    1    2    0    0  0.24059047004E+02  0.35606326646E+02  0.60807032593E+01  0.47787271987E+02  0.20000004297E+02 0.  0.
         12    1    1    2    0    0 -0.24059047004E+02 -0.35606326646E+02 -0.60807032593E+01  0.43400728013E+02  0.00000000000E+00 0. -1.
         11    1    3    3    0    0  0.18871547642E+02  0.16451609976E+02  0.78906113074E+01  0.26249810062E+02  0.51100000000E-03 0. -1.
        -11    1    3    3    0    0  0.24744811710E+01  0.18383247540E+02 -0.22417879794E+01  0.18684016185E+02  0.51100000000E-03 0.  1.
        -12    1    3    3    0    0  0.27130181903E+01  0.77146913027E+00  0.43187993132E+00  0.28534457407E+01  0.00000000000E+00 0.  1.
</event>
<event>
 7    1  0.5317846E-010  0.4778727E+02  0.7816164E-02  0.1312668E+00
        -11   -1    0    0    0    0  0.00000000000E+00  0.00000000000E+00  0.45593999997E+02  0.45594000000E+02  0.51100000000E-03 0.  1.
         11   -1    0    0    0    0 -0.00000000000E+00 -0.00000000000E+00 -0.45593999997E+02  0.45594000000E+02  0.51100000000E-03 0. -1.
    9900012    2    1    2    0    0 -0.32186675931E+02 -0.12116281278E+02  0.26473321324E+02  0.47787272801E+02  0.20000008010E+02 0.  0.
         12    1    1    2    0    0  0.32186675931E+02  0.12116281278E+02 -0.26473321324E+02  0.43400727199E+02  0.00000000000E+00 0. -1.
         11    1    3    3    0    0 -0.70113071075E+01 -0.50848174554E+01 -0.12367096717E+01  0.87488997584E+01  0.51100000000E-03 0. -1.
        -11    1    3    3    0    0 -0.13522657093E+02 -0.20789443867E+00  0.10270604495E+02  0.16982072662E+02  0.51100000000E-03 0.  1.
         12    1    3    3    0    0 -0.11652711730E+02 -0.68235693839E+01  0.17439426501E+02  0.22056300381E+02  0.00000000000E+00 0. -1.
</event>
<event>
 7    1  0.5317846E-010  0.4778727E+02  0.7816164E-02  0.1312668E+00
        -11   -1    0    0    0    0  0.00000000000E+00  0.00000000000E+00  0.45593999997E+02  0.45594000000E+02  0.51100000000E-03 0. -1.
         11   -1    0    0    0    0 -0.00000000000E+00 -0.00000000000E+00 -0.45593999997E+02  0.45594000000E+02  0.51100000000E-03 0.  1.
    9900012    2    1    2    0    0 -0.11587007427E+02 -0.40989586596E+02  0.83197559208E+01  0.47787270871E+02  0.19999999207E+02 0.  0.
         12    1    1    2    0    0  0.11587007427E+02  0.40989586596E+02 -0.83197559208E+01  0.43400729129E+02  0.00000000000E+00 0. -1.
         11    1    3    3    0    0  0.17733970707E+00 -0.69634574752E+00 -0.55391206231E+00  0.90728474344E+00  0.51100000000E-03 0. -1.
        -11    1    3    3    0    0 -0.68116349606E+01 -0.38379837568E+02  0.32019711280E+01  0.39110905409E+02  0.51100000000E-03 0.  1.
        -12    1    3    3    0    0 -0.49527121733E+01 -0.19134032804E+01  0.56716968551E+01  0.77690807179E+01  0.00000000000E+00 0.  1.
</event>
<event>
 7    1  0.5317846E-010  0.4778727E+02  0.7816164E-02  0.1312668E+00
        -11   -1    0    0    0    0  0.00000000000E+00  0.00000000000E+00  0.45593999997E+02  0.45594000000E+02  0.51100000000E-03 0. -1.
         11   -1    0    0    0    0 -0.00000000000E+00 -0.00000000000E+00 -0.45593999997E+02  0.45594000000E+02  0.51100000000E-03 0.  1.
    9900012    2    1    2    0    0 -0.32567594704E+02 -0.19758864407E+02 -0.20798131191E+02  0.47787271797E+02  0.20000003432E+02 0.  0.
         12    1    1    2    0    0  0.32567594704E+02  0.19758864407E+02  0.20798131191E+02  0.43400728203E+02  0.00000000000E+00 0. -1.
         11    1    3    3    0    0 -0.72858695949E+01 -0.90978408473E+01 -0.60575429112E+01  0.13135769114E+02  0.51100000000E-03 0.  1.
        -11    1    3    3    0    0 -0.27154279116E+02 -0.83994325510E+01 -0.13357515327E+02  0.31405868201E+02  0.51100000000E-03 0. -1.
        -12    1    3    3    0    0  0.18725540065E+01 -0.22615910087E+01 -0.13830729536E+01  0.32456344823E+01  0.00000000000E+00 0.  1.
</event>
<event>
 7    1  0.5317846E-010  0.4778727E+02  0.7816164E-02  0.1312668E+00
        -11   -1    0    0    0    0  0.00000000000E+00  0.00000000000E+00  0.45593999997E+02  0.45594000000E+02  0.51100000000E-03 0.  1.
         11   -1    0    0    0    0 -0.00000000000E+00 -0.00000000000E+00 -0.45593999997E+02  0.45594000000E+02  0.51100000000E-03 0. -1.
    9900012    2    1    2    0    0 -0.29570207181E+02  0.12848811361E+02  0.29053982685E+02  0.47787274016E+02  0.20000013549E+02 0.  0.
         12    1    1    2    0    0  0.29570207181E+02 -0.12848811361E+02 -0.29053982685E+02  0.43400725984E+02  0.00000000000E+00 0. -1.
         11    1    3    3    0    0 -0.10837934104E+02  0.44760810952E+00  0.52959987834E+01  0.12070988859E+02  0.51100000000E-03 0. -1.
        -11    1    3    3    0    0 -0.12647444161E+02  0.15209697485E+02  0.19497896193E+02  0.27775181325E+02  0.51100000000E-03 0.  1.
        -12    1    3    3    0    0 -0.60848289157E+01 -0.28084942341E+01  0.42600877080E+01  0.79411038324E+01  0.00000000000E+00 0.  1.
</event>
<event>
 7    1  0.5317846E-010  0.4778727E+02  0.7816164E-02  0.1312668E+00
        -11   -1    0    0    0    0  0.00000000000E+00  0.00000000000E+00  0.45593999997E+02  0.45594000000E+02  0.51100000000E-03 0. -1.
         11   -1    0    0    0    0 -0.00000000000E+00 -0.00000000000E+00 -0.45593999997E+02  0.45594000000E+02  0.51100000000E-03 0.  1.
    9900012    2    1    2    0    0  0.10464367164E+02  0.32292678795E+02 -0.27042613453E+02  0.47787273897E+02  0.20000013005E+02 0.  0.
         12    1    1    2    0    0 -0.10464367164E+02 -0.32292678795E+02  0.27042613453E+02  0.43400726103E+02  0.00000000000E+00 0. -1.
         11    1    3    3    0    0  0.10940311055E+01  0.91235588225E+01 -0.18266906911E+02  0.20447887861E+02  0.51100000000E-03 0. -1.
        -11    1    3    3    0    0  0.41511693197E+01  0.77782574951E+01  0.10955156861E+00  0.88173407663E+01  0.51100000000E-03 0.  1.
         12    1    3    3    0    0  0.52191667391E+01  0.15390862478E+02 -0.88852581104E+01  0.18522045269E+02  0.00000000000E+00 0. -1.
</event>
<event>
 7    1  0.5317846E-010  0.4778727E+02  0.7816164E-02  0.1312668E+00
        -11   -1    0    0    0    0  0.00000000000E+00  0.00000000000E+00  0.45593999997E+02  0.45594000000E+02  0.51100000000E-03 0.  1.
         11   -1    0    0    0    0 -0.00000000000E+00 -0.00000000000E+00 -0.45593999997E+02  0.45594000000E+02  0.51100000000E-03 0. -1.
    9900012    2    1    2    0    0  0.18021210360E+02 -0.39440513355E+02 -0.18179602904E+01  0.47787273091E+02  0.20000009333E+02 0.  0.
         12    1    1    2    0    0 -0.18021210360E+02  0.39440513355E+02  0.18179602904E+01  0.43400726909E+02  0.00000000000E+00 0. -1.
         11    1    3    3    0    0  0.16306653287E+02 -0.16957093551E+02 -0.36185307278E+01  0.23802179060E+02  0.51100000000E-03 0. -1.
        -11    1    3    3    0    0  0.44895938388E+00 -0.20237405467E+02 -0.88585905093E+00  0.20261759328E+02  0.51100000000E-03 0.  1.
        -12    1    3    3    0    0  0.12655976890E+01 -0.22460143374E+01  0.26864294883E+01  0.37233347029E+01  0.00000000000E+00 0.  1.
</event>
<event>
 7    1  0.5317846E-010  0.4778727E+02  0.7816164E-02  0.1312668E+00
        -11   -1    0    0    0    0  0.00000000000E+00  0.00000000000E+00  0.45593999997E+02  0.45594000000E+02  0.51100000000E-03 0.  1.
         11   -1    0    0    0    0 -0.00000000000E+00 -0.00000000000E+00 -0.45593999997E+02  0.45594000000E+02  0.51100000000E-03 0. -1.
    9900012    2    1    2    0    0  0.23253701892E+02 -0.35812966785E+02 -0.77665863675E+01  0.47787272984E+02  0.20000008845E+02 0.  0.
         12    1    1    2    0    0 -0.23253701892E+02  0.35812966785E+02  0.77665863675E+01  0.43400727016E+02  0.00000000000E+00 0. -1.
         11    1    3    3    0    0 -0.29307554737E+01 -0.28757523534E+01  0.15684007646E+01  0.43953566936E+01  0.51100000000E-03 0. -1.
        -11    1    3    3    0    0  0.20185188789E+02 -0.22121249850E+02 -0.55414897025E+01  0.30454878916E+02  0.51100000000E-03 0.  1.
         12    1    3    3    0    0  0.59992685770E+01 -0.10815964582E+02 -0.37934974295E+01  0.12937037375E+02  0.00000000000E+00 0. -1.
</event>
<event>
 7    1  0.5317846E-010  0.4778727E+02  0.7816164E-02  0.1312668E+00
        -11   -1    0    0    0    0  0.00000000000E+00  0.00000000000E+00  0.45593999997E+02  0.45594000000E+02  0.51100000000E-03 0.  1.
         11   -1    0    0    0    0 -0.00000000000E+00 -0.00000000000E+00 -0.45593999997E+02  0.45594000000E+02  0.51100000000E-03 0. -1.
    9900012    2    1    2    0    0  0.34934497539E+02 -0.10752373026E+02  0.23400659596E+02  0.47787268283E+02  0.19999987412E+02 0.  0.
         12    1    1    2    0    0 -0.34934497539E+02  0.10752373026E+02 -0.23400659596E+02  0.43400731717E+02  0.00000000000E+00 0. -1.
         11    1    3    3    0    0  0.16351091310E+02 -0.18585051077E+01  0.30842801322E+01  0.16742909319E+02  0.51100000000E-03 0. -1.
        -11    1    3    3    0    0  0.15197630954E+01 -0.59099662836E+01  0.61886139288E+01  0.86911635562E+01  0.51100000000E-03 0.  1.
        -12    1    3    3    0    0  0.17063643134E+02 -0.29839016345E+01  0.14127765535E+02  0.22353195409E+02  0.00000000000E+00 0.  1.
</event>
<event>
 7    1  0.5317846E-010  0.4778727E+02  0.7816164E-02  0.1312668E+00
        -11   -1    0    0    0    0  0.00000000000E+00  0.00000000000E+00  0.45593999997E+02  0.45594000000E+02  0.51100000000E-03 0. -1.
         11   -1    0    0    0    0 -0.00000000000E+00 -0.00000000000E+00 -0.45593999997E+02  0.45594000000E+02  0.51100000000E-03 0.  1.
    9900012    2    1    2    0    0  0.39676815310E+02 -0.87365933134E+01 -0.15265835341E+02  0.47787268848E+02  0.19999989987E+02 0.  0.
         12    1    1    2    0    0 -0.39676815310E+02  0.87365933134E+01  0.15265835341E+02  0.43400731152E+02  0.00000000000E+00 0. -1.
         11    1    3    3    0    0  0.16892155297E+02 -0.61239778683E+01 -0.19015434723E+01  0.18068311579E+02  0.51100000000E-03 0. -1.
        -11    1    3    3    0    0  0.21100869522E+02  0.32442368512E+00 -0.15066411989E+02  0.25929687923E+02  0.51100000000E-03 0.  1.
        -12    1    3    3    0    0  0.16837904908E+01 -0.29370391302E+01  0.17021201199E+01  0.37892693454E+01  0.00000000000E+00 0.  1.
</event>
<event>
 7    1  0.5317846E-010  0.4778727E+02  0.7816164E-02  0.1312668E+00
        -11   -1    0    0    0    0  0.00000000000E+00  0.00000000000E+00  0.45593999997E+02  0.45594000000E+02  0.51100000000E-03 0.  1.
         11   -1    0    0    0    0 -0.00000000000E+00 -0.00000000000E+00 -0.45593999997E+02  0.45594000000E+02  0.51100000000E-03 0. -1.
    9900012    2    1    2    0    0  0.91634528970E+01 -0.40982505803E+02  0.10958500845E+02  0.47787269687E+02  0.19999993811E+02 0.  0.
         12    1    1    2    0    0 -0.91634528970E+01  0.40982505803E+02 -0.10958500845E+02  0.43400730313E+02  0.00000000000E+00 0. -1.
         11    1    3    3    0    0  0.10565518994E+01 -0.39051169175E+00 -0.19609110905E+01  0.22614097071E+01  0.51100000000E-03 0. -1.
        -11    1    3    3    0    0  0.84533746307E+01 -0.40232354816E+02  0.14712778363E+02  0.43664261864E+02  0.51100000000E-03 0.  1.
        -12    1    3    3    0    0 -0.34647363316E+00 -0.35963929539E+00 -0.17933664276E+01  0.18615981158E+01  0.00000000000E+00 0.  1.
</event>
<event>
 7    1  0.5898225E-010  0.4778727E+02  0.7816164E-02  0.1312668E+00
        -11   -1    0    0    0    0  0.00000000000E+00  0.00000000000E+00  0.45593999997E+02  0.45594000000E+02  0.51100000000E-03 0. -1.
         11   -1    0    0    0    0 -0.00000000000E+00 -0.00000000000E+00 -0.45593999997E+02  0.45594000000E+02  0.51100000000E-03 0.  1.
    9900012    2    1    2    0    0 -0.46212100946E-01 -0.29414774241E+02 -0.31912257115E+02  0.47787271511E+02  0.20000002128E+02 0.  0.
         12    1    1    2    0    0  0.46212100946E-01  0.29414774241E+02  0.31912257115E+02  0.43400728489E+02  0.00000000000E+00 0. -1.
         11    1    3    3    0    0  0.41762974339E+01 -0.23184704152E+02 -0.21876652321E+02  0.32149026174E+02  0.51100000000E-03 0. -1.
        -11    1    3    3    0    0 -0.28967943500E+01 -0.73494023386E+01 -0.11084006763E+02  0.13611037375E+02  0.51100000000E-03 0.  1.
         12    1    3    3    0    0 -0.13257151849E+01  0.11193322494E+01  0.10484019691E+01  0.20272079629E+01  0.00000000000E+00 0. -1.
</event>
<event>
 7    1  0.6509277E-010  0.4778727E+02  0.7816164E-02  0.1312668E+00
        -11   -1    0    0    0    0  0.00000000000E+00  0.00000000000E+00  0.45593999997E+02  0.45594000000E+02  0.51100000000E-03 0. -1.
         11   -1    0    0    0    0 -0.00000000000E+00 -0.00000000000E+00 -0.45593999997E+02  0.45594000000E+02  0.51100000000E-03 0.  1.
    9900012    2    1    2    0    0 -0.24694080856E+02 -0.34420239515E+02 -0.94378345246E+01  0.47787271456E+02  0.20000001878E+02 0.  0.
         12    1    1    2    0    0  0.24694080856E+02  0.34420239515E+02  0.94378345246E+01  0.43400728544E+02  0.00000000000E+00 0. -1.
         11    1    3    3    0    0 -0.82456877245E+00 -0.14724414817E+01  0.35215888521E+01  0.39050718152E+01  0.51100000000E-03 0. -1.
        -11    1    3    3    0    0 -0.20804378446E+02 -0.20912029442E+02 -0.94837585928E+01  0.30985106345E+02  0.51100000000E-03 0.  1.
         12    1    3    3    0    0 -0.30651336380E+01 -0.12035768591E+02 -0.34756647839E+01  0.12897093296E+02  0.00000000000E+00 0. -1.
</event>
<event>
 7    1  0.5317846E-010  0.4778727E+02  0.7816164E-02  0.1312668E+00
        -11   -1    0    0    0    0  0.00000000000E+00  0.00000000000E+00  0.45593999997E+02  0.45594000000E+02  0.51100000000E-03 0.  1.
         11   -1    0    0    0    0 -0.00000000000E+00 -0.00000000000E+00 -0.45593999997E+02  0.45594000000E+02  0.51100000000E-03 0. -1.
    9900012    2    1    2    0    0  0.42734927601E+02 -0.19451089608E+01 -0.73188501707E+01  0.47787273580E+02  0.20000011561E+02 0.  0.
         12    1    1    2    0    0 -0.42734927601E+02  0.19451089608E+01  0.73188501707E+01  0.43400726420E+02  0.00000000000E+00 0. -1.
         11    1    3    3    0    0  0.17068817643E+02  0.52003415788E+01 -0.13359168268E+01  0.17893372021E+02  0.51100000000E-03 0. -1.
        -11    1    3    3    0    0  0.10318538171E+02 -0.55634694245E+01 -0.82006111155E+01  0.14306447671E+02  0.51100000000E-03 0.  1.
        -12    1    3    3    0    0  0.15347571787E+02 -0.15819811150E+01  0.22176777716E+01  0.15587453888E+02  0.00000000000E+00 0.  1.
</event>
<event>
 7    1  0.5317846E-010  0.4778727E+02  0.7816164E-02  0.1312668E+00
        -11   -1    0    0    0    0  0.00000000000E+00  0.00000000000E+00  0.45593999997E+02  0.45594000000E+02  0.51100000000E-03 0.  1.
         11   -1    0    0    0    0 -0.00000000000E+00 -0.00000000000E+00 -0.45593999997E+02  0.45594000000E+02  0.51100000000E-03 0. -1.
    9900012    2    1    2    0    0  0.19889736555E+02  0.38221421599E+02 -0.52100726068E+01  0.47787267911E+02  0.19999985715E+02 0.  0.
         12    1    1    2    0    0 -0.19889736555E+02 -0.38221421599E+02  0.52100726068E+01  0.43400732089E+02  0.00000000000E+00 0. -1.
         11    1    3    3    0    0  0.36916767762E+01 -0.63628664537E+00 -0.38943052667E+01  0.54036054525E+01  0.51100000000E-03 0. -1.
        -11    1    3    3    0    0  0.12006617808E+02  0.22808208199E+02 -0.78655798249E+00  0.25787436983E+02  0.51100000000E-03 0.  1.
         12    1    3    3    0    0  0.41914419710E+01  0.16049500045E+02 -0.52920935763E+00  0.16596225476E+02  0.00000000000E+00 0. -1.
</event>
<event>
 7    1  0.5317846E-010  0.4778727E+02  0.7816164E-02  0.1312668E+00
        -11   -1    0    0    0    0  0.00000000000E+00  0.00000000000E+00  0.45593999997E+02  0.45594000000E+02  0.51100000000E-03 0. -1.
         11   -1    0    0    0    0 -0.00000000000E+00 -0.00000000000E+00 -0.45593999997E+02  0.45594000000E+02  0.51100000000E-03 0.  1.
    9900012    2    1    2    0    0  0.12249620547E+02 -0.41458769960E+02  0.38393325024E+01  0.47787270925E+02  0.19999999457E+02 0.  0.
         12    1    1    2    0    0 -0.12249620547E+02  0.41458769960E+02 -0.38393325024E+01  0.43400729075E+02  0.00000000000E+00 0. -1.
         11    1    3    3    0    0 -0.95928439218E+00 -0.21002130777E+02  0.84008224183E+01  0.22640307889E+02  0.51100000000E-03 0. -1.
        -11    1    3    3    0    0  0.77106820991E+01 -0.15198541726E+02 -0.22173360696E+01  0.17186240675E+02  0.51100000000E-03 0.  1.
         12    1    3    3    0    0  0.54982228400E+01 -0.52580974566E+01 -0.23441538463E+01  0.79607223615E+01  0.00000000000E+00 0. -1.
</event>
<event>
 7    1  0.5317846E-010  0.4778727E+02  0.7816164E-02  0.1312668E+00
        -11   -1    0    0    0    0  0.00000000000E+00  0.00000000000E+00  0.45593999997E+02  0.45594000000E+02  0.51100000000E-03 0.  1.
         11   -1    0    0    0    0 -0.00000000000E+00 -0.00000000000E+00 -0.45593999997E+02  0.45594000000E+02  0.51100000000E-03 0. -1.
    9900012    2    1    2    0    0 -0.40446581722E+02  0.74006474008E+01  0.13889834428E+02  0.47787273561E+02  0.20000011476E+02 0.  0.
         12    1    1    2    0    0  0.40446581722E+02 -0.74006474008E+01 -0.13889834428E+02  0.43400726439E+02  0.00000000000E+00 0. -1.
         11    1    3    3    0    0 -0.90970994212E+01 -0.17662860891E+01 -0.27001645083E+01  0.96523506495E+01  0.51100000000E-03 0. -1.
        -11    1    3    3    0    0 -0.21190689145E+02  0.35556054772E+01  0.15467786985E+02  0.26475272826E+02  0.51100000000E-03 0.  1.
        -12    1    3    3    0    0 -0.10158793157E+02  0.56113280127E+01  0.11222119510E+01  0.11659650086E+02  0.00000000000E+00 0.  1.
</event>
<event>
 7    1  0.5317846E-010  0.4778727E+02  0.7816164E-02  0.1312668E+00
        -11   -1    0    0    0    0  0.00000000000E+00  0.00000000000E+00  0.45593999997E+02  0.45594000000E+02  0.51100000000E-03 0. -1.
         11   -1    0    0    0    0 -0.00000000000E+00 -0.00000000000E+00 -0.45593999997E+02  0.45594000000E+02  0.51100000000E-03 0.  1.
    9900012    2    1    2    0    0 -0.19781706990E+02 -0.38275670668E+02 -0.52230395794E+01  0.47787273751E+02  0.20000012341E+02 0.  0.
         12    1    1    2    0    0  0.19781706990E+02  0.38275670668E+02  0.52230395794E+01  0.43400726249E+02  0.00000000000E+00 0. -1.
         11    1    3    3    0    0  0.90743446076E+00 -0.14328994635E+02 -0.46037485621E+01  0.15077732775E+02  0.51100000000E-03 0. -1.
        -11    1    3    3    0    0 -0.18533650396E+02 -0.24223507098E+02 -0.92807584152E+00  0.30514518154E+02  0.51100000000E-03 0.  1.
        -12    1    3    3    0    0 -0.21554910540E+01  0.27683106530E+00  0.30878482423E+00  0.21950228223E+01  0.00000000000E+00 0.  1.
</event>
<event>
 7    1  0.5317846E-010  0.4778728E+02  0.7816164E-02  0.1312668E+00
        -11   -1    0    0    0    0  0.00000000000E+00  0.00000000000E+00  0.45593999997E+02  0.45594000000E+02  0.51100000000E-03 0.  1.
         11   -1    0    0    0    0 -0.00000000000E+00 -0.00000000000E+00 -0.45593999997E+02  0.45594000000E+02  0.51100000000E-03 0. -1.
    9900012    2    1    2    0    0 -0.18146642564E+02 -0.15766568646E+02  0.36134988938E+02  0.47787277093E+02  0.20000027580E+02 0.  0.
         12    1    1    2    0    0  0.18146642564E+02  0.15766568646E+02 -0.36134988938E+02  0.43400722907E+02  0.00000000000E+00 0. -1.
         11    1    3    3    0    0 -0.36118949556E+01 -0.14421098234E+01  0.19567130019E+02  0.19949888304E+02  0.51100000000E-03 0. -1.
        -11    1    3    3    0    0 -0.13684851368E+02 -0.82312817099E+01  0.10020412071E+02  0.18853058476E+02  0.51100000000E-03 0.  1.
         12    1    3    3    0    0 -0.84989624041E+00 -0.60931771129E+01  0.65474468485E+01  0.89843303136E+01  0.00000000000E+00 0. -1.
</event>
<event>
 7    1  0.5317846E-010  0.4778727E+02  0.7816164E-02  0.1312668E+00
        -11   -1    0    0    0    0  0.00000000000E+00  0.00000000000E+00  0.45593999997E+02  0.45594000000E+02  0.51100000000E-03 0. -1.
         11   -1    0    0    0    0 -0.00000000000E+00 -0.00000000000E+00 -0.45593999997E+02  0.45594000000E+02  0.51100000000E-03 0.  1.
    9900012    2    1    2    0    0 -0.18001871753E+02 -0.37788484934E+02 -0.11471102879E+02  0.47787272108E+02  0.20000004851E+02 0.  0.
         12    1    1    2    0    0  0.18001871753E+02  0.37788484934E+02  0.11471102879E+02  0.43400727892E+02  0.00000000000E+00 0. -1.
         11    1    3    3    0    0 -0.11250163902E+02 -0.28447858516E+02 -0.64185924168E+01  0.31257721780E+02  0.51100000000E-03 0. -1.
        -11    1    3    3    0    0 -0.88429779233E+01 -0.39756019226E+01 -0.46619051178E+01  0.10758114555E+02  0.51100000000E-03 0.  1.
         12    1    3    3    0    0  0.20912700719E+01 -0.53650244955E+01 -0.39060534464E+00  0.57714357734E+01  0.00000000000E+00 0. -1.
</event>
<event>
 7    1  0.5317846E-010  0.4778727E+02  0.7816164E-02  0.1312668E+00
        -11   -1    0    0    0    0  0.00000000000E+00  0.00000000000E+00  0.45593999997E+02  0.45594000000E+02  0.51100000000E-03 0. -1.
         11   -1    0    0    0    0 -0.00000000000E+00 -0.00000000000E+00 -0.45593999997E+02  0.45594000000E+02  0.51100000000E-03 0.  1.
    9900012    2    1    2    0    0  0.27534686557E+02 -0.33371076157E+02  0.34403225424E+01  0.47787268360E+02  0.19999987761E+02 0.  0.
         12    1    1    2    0    0 -0.27534686557E+02  0.33371076157E+02 -0.34403225424E+01  0.43400731640E+02  0.00000000000E+00 0. -1.
         11    1    3    3    0    0  0.37392045485E+01 -0.32544903297E+01  0.60262482067E+01  0.78031420385E+01  0.51100000000E-03 0. -1.
        -11    1    3    3    0    0  0.18325068626E+02 -0.20129565976E+02 -0.64211191973E+01  0.27968524068E+02  0.51100000000E-03 0.  1.
         12    1    3    3    0    0  0.54704133822E+01 -0.99870198511E+01  0.38351935330E+01  0.12015602253E+02  0.00000000000E+00 0. -1.
</event>
<event>
 7    1  0.5317846E-010  0.4778727E+02  0.7816164E-02  0.1312668E+00
        -11   -1    0    0    0    0  0.00000000000E+00  0.00000000000E+00  0.45593999997E+02  0.45594000000E+02  0.51100000000E-03 0. -1.
         11   -1    0    0    0    0 -0.00000000000E+00 -0.00000000000E+00 -0.45593999997E+02  0.45594000000E+02  0.51100000000E-03 0.  1.
    9900012    2    1    2    0    0  0.27257599278E+02  0.23116106789E+02 -0.24623000659E+02  0.47787271055E+02  0.20000000050E+02 0.  0.
         12    1    1    2    0    0 -0.27257599278E+02 -0.23116106789E+02  0.24623000659E+02  0.43400728945E+02  0.00000000000E+00 0. -1.
         11    1    3    3    0    0  0.25416882591E+01  0.22347776331E+00 -0.20824897066E+01  0.32934609693E+01  0.51100000000E-03 0. -1.
        -11    1    3    3    0    0  0.42955733387E+01 -0.75470907949E+00 -0.98472277833E+01  0.10769838967E+02  0.51100000000E-03 0.  1.
        -12    1    3    3    0    0  0.20420337680E+02  0.23647338105E+02 -0.12693283169E+02  0.33723971119E+02  0.00000000000E+00 0.  1.
</event>
<event>
 7    1  0.5317846E-010  0.4778728E+02  0.7816164E-02  0.1312668E+00
        -11   -1    0    0    0    0  0.00000000000E+00  0.00000000000E+00  0.45593999997E+02  0.45594000000E+02  0.51100000000E-03 0.  1.
         11   -1    0    0    0    0 -0.00000000000E+00 -0.00000000000E+00 -0.45593999997E+02  0.45594000000E+02  0.51100000000E-03 0. -1.
    9900012    2    1    2    0    0 -0.26556410240E+02  0.15397613597E+02  0.30680504243E+02  0.47787276850E+02  0.20000026470E+02 0.  0.
         12    1    1    2    0    0  0.26556410240E+02 -0.15397613597E+02 -0.30680504243E+02  0.43400723150E+02  0.00000000000E+00 0. -1.
         11    1    3    3    0    0  0.44267865810E+00 -0.24857708434E+01  0.22628692503E+01  0.33905159763E+01  0.51100000000E-03 0. -1.
        -11    1    3    3    0    0 -0.21266597048E+02  0.83685930311E+01  0.17140184640E+02  0.28567243988E+02  0.51100000000E-03 0.  1.
         12    1    3    3    0    0 -0.57324918507E+01  0.95147914089E+01  0.11277450353E+02  0.15829516886E+02  0.00000000000E+00 0. -1.
</event>
<event>
 7    1  0.5317846E-010  0.4778727E+02  0.7816164E-02  0.1312668E+00
        -11   -1    0    0    0    0  0.00000000000E+00  0.00000000000E+00  0.45593999997E+02  0.45594000000E+02  0.51100000000E-03 0.  1.
         11   -1    0    0    0    0 -0.00000000000E+00 -0.00000000000E+00 -0.45593999997E+02  0.45594000000E+02  0.51100000000E-03 0. -1.
    9900012    2    1    2    0    0  0.28561644132E+02 -0.28811345509E+02  0.15419538347E+02  0.47787270647E+02  0.19999998187E+02 0.  0.
         12    1    1    2    0    0 -0.28561644132E+02  0.28811345509E+02 -0.15419538347E+02  0.43400729353E+02  0.00000000000E+00 0. -1.
         11    1    3    3    0    0 -0.90223259322E+00 -0.21441572820E+01 -0.10370356224E+00  0.23285593813E+01  0.51100000000E-03 0. -1.
        -11    1    3    3    0    0  0.19695610467E+02 -0.18150665178E+02  0.17992530824E+02  0.32266001981E+02  0.51100000000E-03 0.  1.
        -12    1    3    3    0    0  0.97682662582E+01 -0.85165230488E+01 -0.24692889149E+01  0.13192709285E+02  0.00000000000E+00 0.  1.
</event>
<event>
 7    1  0.5317846E-010  0.4778727E+02  0.7816164E-02  0.1312668E+00
        -11   -1    0    0    0    0  0.00000000000E+00  0.00000000000E+00  0.45593999997E+02  0.45594000000E+02  0.51100000000E-03 0.  1.
         11   -1    0    0    0    0 -0.00000000000E+00 -0.00000000000E+00 -0.45593999997E+02  0.45594000000E+02  0.51100000000E-03 0. -1.
    9900012    2    1    2    0    0 -0.17373876419E+02 -0.20523282335E+02  0.34067090515E+02  0.47787270101E+02  0.19999995699E+02 0.  0.
         12    1    1    2    0    0  0.17373876419E+02  0.20523282335E+02 -0.34067090515E+02  0.43400729899E+02  0.00000000000E+00 0. -1.
         11    1    3    3    0    0 -0.27504336941E+01  0.31868496679E+00 -0.18729014812E+01  0.33427841439E+01  0.51100000000E-03 0. -1.
        -11    1    3    3    0    0 -0.93242018192E+01 -0.15175446120E+02  0.20441154718E+02  0.27112279708E+02  0.51100000000E-03 0.  1.
         12    1    3    3    0    0 -0.52992409055E+01 -0.56665211811E+01  0.15498837279E+02  0.17332206249E+02  0.00000000000E+00 0. -1.
</event>
<event>
 7    1  0.5317846E-010  0.4778724E+02  0.7816164E-02  0.1312668E+00
        -11   -1    0    0    0    0  0.00000000000E+00  0.00000000000E+00  0.45593999997E+02  0.45594000000E+02  0.51100000000E-03 0.  1.
         11   -1    0    0    0    0 -0.00000000000E+00 -0.00000000000E+00 -0.45593999997E+02  0.45594000000E+02  0.51100000000E-03 0. -1.
    9900012    2    1    2    0    0 -0.23254762644E+02  0.32170372900E+02  0.17547334608E+02  0.47787241597E+02  0.19999865737E+02 0.  0.
         12    1    1    2    0    0  0.23254762644E+02 -0.32170372900E+02 -0.17547334608E+02  0.43400758403E+02  0.00000000000E+00 0. -1.
         11    1    3    3    0    0  0.49173545409E+00  0.12922325854E+02  0.50958652501E+01  0.13899501867E+02  0.51100000000E-03 0. -1.
        -11    1    3    3    0    0 -0.26986029103E+01  0.59714814144E+01  0.35887412913E+01  0.74712858510E+01  0.51100000000E-03 0.  1.
         12    1    3    3    0    0 -0.21047895187E+02  0.13276565631E+02  0.88627280668E+01  0.26416453879E+02  0.00000000000E+00 0. -1.
</event>
<event>
 7    1  0.5317846E-010  0.4778727E+02  0.7816164E-02  0.1312668E+00
        -11   -1    0    0    0    0  0.00000000000E+00  0.00000000000E+00  0.45593999997E+02  0.45594000000E+02  0.51100000000E-03 0.  1.
         11   -1    0    0    0    0 -0.00000000000E+00 -0.00000000000E+00 -0.45593999997E+02  0.45594000000E+02  0.51100000000E-03 0. -1.
    9900012    2    1    2    0    0  0.29985710616E+02 -0.28461561801E+02  0.13206817901E+02  0.47787269818E+02  0.19999994409E+02 0.  0.
         12    1    1    2    0    0 -0.29985710616E+02  0.28461561801E+02 -0.13206817901E+02  0.43400730182E+02  0.00000000000E+00 0. -1.
         11    1    3    3    0    0  0.85112978005E+00 -0.53271727308E+01 -0.16279442455E+00  0.53971931124E+01  0.51100000000E-03 0. -1.
        -11    1    3    3    0    0  0.25621794911E+02 -0.20954997533E+02  0.55733498844E+01  0.33565615222E+02  0.51100000000E-03 0.  1.
        -12    1    3    3    0    0  0.35127859247E+01 -0.21793915371E+01  0.77962624410E+01  0.88244614835E+01  0.00000000000E+00 0.  1.
</event>
<event>
 7    1  0.5317846E-010  0.4778727E+02  0.7816164E-02  0.1312668E+00
        -11   -1    0    0    0    0  0.00000000000E+00  0.00000000000E+00  0.45593999997E+02  0.45594000000E+02  0.51100000000E-03 0.  1.
         11   -1    0    0    0    0 -0.00000000000E+00 -0.00000000000E+00 -0.45593999997E+02  0.45594000000E+02  0.51100000000E-03 0. -1.
    9900012    2    1    2    0    0  0.38806509562E+02 -0.14763635345E+02  0.12637754173E+02  0.47787274851E+02  0.20000017354E+02 0.  0.
         12    1    1    2    0    0 -0.38806509562E+02  0.14763635345E+02 -0.12637754173E+02  0.43400725149E+02  0.00000000000E+00 0. -1.
         11    1    3    3    0    0  0.57427522649E+01 -0.99013027888E+01  0.23170793089E+01  0.11678349938E+02  0.51100000000E-03 0. -1.
        -11    1    3    3    0    0  0.98090980999E+01 -0.17306143462E+01  0.75143159112E+01  0.12477114066E+02  0.51100000000E-03 0.  1.
         12    1    3    3    0    0  0.23254659197E+02 -0.31317182101E+01  0.28063589530E+01  0.23631810846E+02  0.00000000000E+00 0. -1.
</event>
<event>
 7    1  0.5317846E-010  0.4778727E+02  0.7816164E-02  0.1312668E+00
        -11   -1    0    0    0    0  0.00000000000E+00  0.00000000000E+00  0.45593999997E+02  0.45594000000E+02  0.51100000000E-03 0.  1.
         11   -1    0    0    0    0 -0.00000000000E+00 -0.00000000000E+00 -0.45593999997E+02  0.45594000000E+02  0.51100000000E-03 0. -1.
    9900012    2    1    2    0    0  0.99803352856E+01  0.91791383481E+01  0.41228142731E+02  0.47787269289E+02  0.19999991996E+02 0.  0.
         12    1    1    2    0    0 -0.99803352856E+01 -0.91791383481E+01 -0.41228142731E+02  0.43400730711E+02  0.00000000000E+00 0. -1.
         11    1    3    3    0    0  0.22086682378E+01 -0.52522573452E+01  0.76467085033E+01  0.95360669985E+01  0.51100000000E-03 0. -1.
        -11    1    3    3    0    0  0.32965057748E+01  0.10006061273E+02  0.13021606412E+02  0.16749640185E+02  0.51100000000E-03 0.  1.
         12    1    3    3    0    0  0.44751612731E+01  0.44253344198E+01  0.20559827816E+02  0.21501562105E+02  0.00000000000E+00 0. -1.
</event>
<event>
 7    1  0.5317846E-010  0.4778727E+02  0.7816164E-02  0.1312668E+00
        -11   -1    0    0    0    0  0.00000000000E+00  0.00000000000E+00  0.45593999997E+02  0.45594000000E+02  0.51100000000E-03 0.  1.
         11   -1    0    0    0    0 -0.00000000000E+00 -0.00000000000E+00 -0.45593999997E+02  0.45594000000E+02  0.51100000000E-03 0. -1.
    9900012    2    1    2    0    0  0.36139369338E+01  0.27418407629E+02  0.33448371539E+02  0.47787272176E+02  0.20000005159E+02 0.  0.
         12    1    1    2    0    0 -0.36139369338E+01 -0.27418407629E+02 -0.33448371539E+02  0.43400727824E+02  0.00000000000E+00 0. -1.
         11    1    3    3    0    0  0.71795773390E+00  0.12237041617E+00 -0.21866169887E+01  0.23047194933E+01  0.51100000000E-03 0. -1.
        -11    1    3    3    0    0 -0.16430135068E+01  0.92018246498E+01  0.14915771491E+02  0.17602650645E+02  0.51100000000E-03 0.  1.
         12    1    3    3    0    0  0.45389927066E+01  0.18094212563E+02  0.20719217036E+02  0.27879902038E+02  0.00000000000E+00 0. -1.
</event>
<event>
 7    1  0.5317846E-010  0.4778727E+02  0.7816164E-02  0.1312668E+00
        -11   -1    0    0    0    0  0.00000000000E+00  0.00000000000E+00  0.45593999997E+02  0.45594000000E+02  0.51100000000E-03 0.  1.
         11   -1    0    0    0    0 -0.00000000000E+00 -0.00000000000E+00 -0.45593999997E+02  0.45594000000E+02  0.51100000000E-03 0. -1.
    9900012    2    1    2    0    0  0.34450004717E+02  0.70316179481E+01  0.25443600087E+02  0.47787271189E+02  0.20000000657E+02 0.  0.
         12    1    1    2    0    0 -0.34450004717E+02 -0.70316179481E+01 -0.25443600087E+02  0.43400728811E+02  0.00000000000E+00 0. -1.
         11    1    3    3    0    0 -0.74691397991E+00  0.10921267000E+01 -0.15552092828E+01  0.20418857453E+01  0.51100000000E-03 0. -1.
        -11    1    3    3    0    0  0.26194283735E+02  0.23087625022E+01  0.23957480000E+02  0.35572907288E+02  0.51100000000E-03 0.  1.
        -12    1    3    3    0    0  0.90026349624E+01  0.36307287458E+01  0.30413293690E+01  0.10172478155E+02  0.00000000000E+00 0.  1.
</event>
<event>
 7    1  0.5317846E-010  0.4778727E+02  0.7816164E-02  0.1312668E+00
        -11   -1    0    0    0    0  0.00000000000E+00  0.00000000000E+00  0.45593999997E+02  0.45594000000E+02  0.51100000000E-03 0. -1.
         11   -1    0    0    0    0 -0.00000000000E+00 -0.00000000000E+00 -0.45593999997E+02  0.45594000000E+02  0.51100000000E-03 0.  1.
    9900012    2    1    2    0    0  0.10715394200E+02  0.41440618992E+02  0.71748615613E+01  0.47787271737E+02  0.20000003158E+02 0.  0.
         12    1    1    2    0    0 -0.10715394200E+02 -0.41440618992E+02 -0.71748615613E+01  0.43400728263E+02  0.00000000000E+00 0. -1.
         11    1    3    3    0    0 -0.14314714106E+01  0.70786796440E+01  0.78316800871E+01  0.10653263779E+02  0.51100000000E-03 0. -1.
        -11    1    3    3    0    0  0.11007823234E+02  0.26776102400E+02  0.19912924587E+01  0.29018908974E+02  0.51100000000E-03 0.  1.
        -12    1    3    3    0    0  0.11390423764E+01  0.75858369478E+01 -0.26481109845E+01  0.81150989840E+01  0.00000000000E+00 0.  1.
</event>
<event>
 7    1  0.5317846E-010  0.4778727E+02  0.7816164E-02  0.1312668E+00
        -11   -1    0    0    0    0  0.00000000000E+00  0.00000000000E+00  0.45593999997E+02  0.45594000000E+02  0.51100000000E-03 0. -1.
         11   -1    0    0    0    0 -0.00000000000E+00 -0.00000000000E+00 -0.45593999997E+02  0.45594000000E+02  0.51100000000E-03 0.  1.
    9900012    2    1    2    0    0  0.18031174321E+02 -0.37922417597E+02 -0.10972251612E+02  0.47787270637E+02  0.19999998142E+02 0.  0.
         12    1    1    2    0    0 -0.18031174321E+02  0.37922417597E+02  0.10972251612E+02  0.43400729363E+02  0.00000000000E+00 0. -1.
         11    1    3    3    0    0  0.29669504162E+01 -0.14384816106E+01  0.42907551338E+01  0.54113403141E+01  0.51100000000E-03 0. -1.
        -11    1    3    3    0    0  0.95745655819E+01 -0.22838411314E+02 -0.10690625723E+02  0.26973224057E+02  0.51100000000E-03 0.  1.
         12    1    3    3    0    0  0.54896583232E+01 -0.13645524672E+02 -0.45723810222E+01  0.15402706266E+02  0.00000000000E+00 0. -1.
</event>
<event>
 7    1  0.5317846E-010  0.4778727E+02  0.7816164E-02  0.1312668E+00
        -11   -1    0    0    0    0  0.00000000000E+00  0.00000000000E+00  0.45593999997E+02  0.45594000000E+02  0.51100000000E-03 0. -1.
         11   -1    0    0    0    0 -0.00000000000E+00 -0.00000000000E+00 -0.45593999997E+02  0.45594000000E+02  0.51100000000E-03 0.  1.
    9900012    2    1    2    0    0 -0.41379131099E+02  0.12793614834E+02 -0.27774476962E+01  0.47787270897E+02  0.19999999327E+02 0.  0.
         12    1    1    2    0    0  0.41379131099E+02 -0.12793614834E+02  0.27774476962E+01  0.43400729103E+02  0.00000000000E+00 0. -1.
         11    1    3    3    0    0 -0.29105614447E+02  0.62105520604E+01  0.13362770285E+01  0.29790827209E+02  0.51100000000E-03 0. -1.
        -11    1    3    3    0    0  0.32827970753E+00  0.45781086502E+01 -0.22124920317E+01  0.50952887681E+01  0.51100000000E-03 0.  1.
        -12    1    3    3    0    0 -0.12601796359E+02  0.20049541232E+01 -0.19012326930E+01  0.12901154919E+02  0.00000000000E+00 0.  1.
</event>
<event>
 7    1  0.5317846E-010  0.4778727E+02  0.7816164E-02  0.1312668E+00
        -11   -1    0    0    0    0  0.00000000000E+00  0.00000000000E+00  0.45593999997E+02  0.45594000000E+02  0.51100000000E-03 0. -1.
         11   -1    0    0    0    0 -0.00000000000E+00 -0.00000000000E+00 -0.45593999997E+02  0.45594000000E+02  0.51100000000E-03 0.  1.
    9900012    2    1    2    0    0  0.43157773951E+02 -0.45294072841E+01 -0.71710638840E+00  0.47787271616E+02  0.20000002604E+02 0.  0.
         12    1    1    2    0    0 -0.43157773951E+02  0.45294072841E+01  0.71710638840E+00  0.43400728384E+02  0.00000000000E+00 0. -1.
         11    1    3    3    0    0  0.13340313516E+02  0.18120444605E+01  0.33270924217E+01  0.13867841003E+02  0.51100000000E-03 0. -1.
        -11    1    3    3    0    0  0.75963594125E+01  0.43768653485E+01 -0.28531905153E+01  0.92196704378E+01  0.51100000000E-03 0.  1.
        -12    1    3    3    0    0  0.22221101022E+02 -0.10718317093E+02 -0.11910082948E+01  0.24699760175E+02  0.00000000000E+00 0.  1.
</event>
<event>
 7    1  0.5317846E-010  0.4778728E+02  0.7816164E-02  0.1312668E+00
        -11   -1    0    0    0    0  0.00000000000E+00  0.00000000000E+00  0.45593999997E+02  0.45594000000E+02  0.51100000000E-03 0.  1.
         11   -1    0    0    0    0 -0.00000000000E+00 -0.00000000000E+00 -0.45593999997E+02  0.45594000000E+02  0.51100000000E-03 0. -1.
    9900012    2    1    2    0    0  0.30027808717E+01  0.18931477606E+02  0.38938471768E+02  0.47787284327E+02  0.20000060560E+02 0.  0.
         12    1    1    2    0    0 -0.30027808717E+01 -0.18931477606E+02 -0.38938471768E+02  0.43400715673E+02  0.00000000000E+00 0. -1.
         11    1    3    3    0    0 -0.14380343319E+01  0.17523639778E+01  0.62138619213E+01  0.66144389398E+01  0.51100000000E-03 0. -1.
        -11    1    3    3    0    0 -0.44817664113E+01  0.11008913254E+02  0.84476863330E+01  0.14582379979E+02  0.51100000000E-03 0.  1.
        -12    1    3    3    0    0  0.89225816149E+01  0.61702003742E+01  0.24276923514E+02  0.26590465408E+02  0.00000000000E+00 0.  1.
</event>
<event>
 7    1  0.5317846E-010  0.4778728E+02  0.7816164E-02  0.1312668E+00
        -11   -1    0    0    0    0  0.00000000000E+00  0.00000000000E+00  0.45593999997E+02  0.45594000000E+02  0.51100000000E-03 0.  1.
         11   -1    0    0    0    0 -0.00000000000E+00 -0.00000000000E+00 -0.45593999997E+02  0.45594000000E+02  0.51100000000E-03 0. -1.
    9900012    2    1    2    0    0  0.25173374610E+02  0.30923640010E+02  0.17136294044E+02  0.47787275648E+02  0.20000020989E+02 0.  0.
         12    1    1    2    0    0 -0.25173374610E+02 -0.30923640010E+02 -0.17136294044E+02  0.43400724352E+02  0.00000000000E+00 0. -1.
         11    1    3    3    0    0  0.75183170925E+01  0.11397029479E+02 -0.10332295412E+01  0.13692513882E+02  0.51100000000E-03 0. -1.
        -11    1    3    3    0    0  0.18620121774E+02  0.18652171734E+02  0.19052871180E+02  0.32521136907E+02  0.51100000000E-03 0.  1.
        -12    1    3    3    0    0 -0.96506425564E+00  0.87443879596E+00 -0.88334759410E+00  0.15736248592E+01  0.00000000000E+00 0.  1.
</event>
<event>
 7    1  0.5317846E-010  0.4778727E+02  0.7816164E-02  0.1312668E+00
        -11   -1    0    0    0    0  0.00000000000E+00  0.00000000000E+00  0.45593999997E+02  0.45594000000E+02  0.51100000000E-03 0.  1.
         11   -1    0    0    0    0 -0.00000000000E+00 -0.00000000000E+00 -0.45593999997E+02  0.45594000000E+02  0.51100000000E-03 0. -1.
    9900012    2    1    2    0    0 -0.42334996229E+02  0.88027294857E+01  0.37260405724E+01  0.47787270392E+02  0.19999997026E+02 0.  0.
         12    1    1    2    0    0  0.42334996229E+02 -0.88027294857E+01 -0.37260405724E+01  0.43400729608E+02  0.00000000000E+00 0. -1.
         11    1    3    3    0    0 -0.15436916626E+02  0.36700353177E+01 -0.63504765369E+01  0.17090819368E+02  0.51100000000E-03 0. -1.
        -11    1    3    3    0    0 -0.26691681663E+02  0.39161510053E+01  0.11021754263E+02  0.29142085992E+02  0.51100000000E-03 0.  1.
        -12    1    3    3    0    0 -0.20639794028E+00  0.12165431627E+01 -0.94523715348E+00  0.15543650320E+01  0.00000000000E+00 0.  1.
</event>
<event>
 7    1  0.5317846E-010  0.4778729E+02  0.7816164E-02  0.1312668E+00
        -11   -1    0    0    0    0  0.00000000000E+00  0.00000000000E+00  0.45593999997E+02  0.45594000000E+02  0.51100000000E-03 0.  1.
         11   -1    0    0    0    0 -0.00000000000E+00 -0.00000000000E+00 -0.45593999997E+02  0.45594000000E+02  0.51100000000E-03 0. -1.
    9900012    2    1    2    0    0  0.33277878979E+02  0.14617463771E+02 -0.23717806384E+02  0.47787287839E+02  0.20000076571E+02 0.  0.
         12    1    1    2    0    0 -0.33277878979E+02 -0.14617463771E+02  0.23717806384E+02  0.43400712161E+02  0.00000000000E+00 0. -1.
         11    1    3    3    0    0  0.26552977718E+02  0.14460941142E+02 -0.25345983849E+02  0.39453749403E+02  0.51100000000E-03 0. -1.
        -11    1    3    3    0    0  0.54154301939E+01  0.15807467979E+00  0.31964899933E+01  0.62904229053E+01  0.51100000000E-03 0.  1.
        -12    1    3    3    0    0  0.13094710674E+01 -0.15520503350E-02 -0.15683125282E+01  0.20431155306E+01  0.00000000000E+00 0.  1.
</event>
<event>
 7    1  0.5317846E-010  0.4778727E+02  0.7816164E-02  0.1312668E+00
        -11   -1    0    0    0    0  0.00000000000E+00  0.00000000000E+00  0.45593999997E+02  0.45594000000E+02  0.51100000000E-03 0.  1.
         11   -1    0    0    0    0 -0.00000000000E+00 -0.00000000000E+00 -0.45593999997E+02  0.45594000000E+02  0.51100000000E-03 0. -1.
    9900012    2    1    2    0    0  0.20435060111E+02 -0.30216920992E+02  0.23515298142E+02  0.47787271404E+02  0.20000001639E+02 0.  0.
         12    1    1    2    0    0 -0.20435060111E+02  0.30216920992E+02 -0.23515298142E+02  0.43400728596E+02  0.00000000000E+00 0. -1.
         11    1    3    3    0    0  0.19796407657E+01 -0.51388796327E+01 -0.27215355035E+01  0.61427857848E+01  0.51100000000E-03 0. -1.
        -11    1    3    3    0    0  0.14390159623E+02 -0.23722657362E+02  0.24520436862E+02  0.37028272853E+02  0.51100000000E-03 0.  1.
        -12    1    3    3    0    0  0.40652597220E+01 -0.13553839974E+01  0.17163967831E+01  0.46162127664E+01  0.00000000000E+00 0.  1.
</event>
<event>
 7    1  0.5317846E-010  0.4778727E+02  0.7816164E-02  0.1312668E+00
        -11   -1    0    0    0    0  0.00000000000E+00  0.00000000000E+00  0.45593999997E+02  0.45594000000E+02  0.51100000000E-03 0.  1.
         11   -1    0    0    0    0 -0.00000000000E+00 -0.00000000000E+00 -0.45593999997E+02  0.45594000000E+02  0.51100000000E-03 0. -1.
    9900012    2    1    2    0    0 -0.38354032056E+02  0.20312333870E+02 -0.28870086343E-01  0.47787268259E+02  0.19999987299E+02 0.  0.
         12    1    1    2    0    0  0.38354032056E+02 -0.20312333870E+02  0.28870086343E-01  0.43400731741E+02  0.00000000000E+00 0. -1.
         11    1    3    3    0    0 -0.32908503754E+02  0.23272566007E+02 -0.15308626533E+01  0.40335164417E+02  0.51100000000E-03 0. -1.
        -11    1    3    3    0    0 -0.54291077237E+00 -0.66407953990E+00  0.18376933293E+01  0.20280213943E+01  0.51100000000E-03 0.  1.
         12    1    3    3    0    0 -0.49026175298E+01 -0.22961525970E+01 -0.33570076239E+00  0.54240824472E+01  0.00000000000E+00 0. -1.
</event>
<event>
 7    1  0.5317846E-010  0.4778727E+02  0.7816164E-02  0.1312668E+00
        -11   -1    0    0    0    0  0.00000000000E+00  0.00000000000E+00  0.45593999997E+02  0.45594000000E+02  0.51100000000E-03 0. -1.
         11   -1    0    0    0    0 -0.00000000000E+00 -0.00000000000E+00 -0.45593999997E+02  0.45594000000E+02  0.51100000000E-03 0.  1.
    9900012    2    1    2    0    0  0.16713978857E+02 -0.16962520511E+02 -0.36284144062E+02  0.47787270725E+02  0.19999998542E+02 0.  0.
         12    1    1    2    0    0 -0.16713978857E+02  0.16962520511E+02  0.36284144062E+02  0.43400729275E+02  0.00000000000E+00 0. -1.
         11    1    3    3    0    0  0.19433435667E+01 -0.10699301408E+02 -0.78039861301E+01  0.13384835995E+02  0.51100000000E-03 0. -1.
        -11    1    3    3    0    0  0.13945193097E+02 -0.73214508123E+01 -0.28969191702E+02  0.32974021905E+02  0.51100000000E-03 0.  1.
         12    1    3    3    0    0  0.82544219371E+00  0.10582317098E+01  0.48903377007E+00  0.14284128238E+01  0.00000000000E+00 0. -1.
</event>
<event>
 7    1  0.5317846E-010  0.4778727E+02  0.7816164E-02  0.1312668E+00
        -11   -1    0    0    0    0  0.00000000000E+00  0.00000000000E+00  0.45593999997E+02  0.45594000000E+02  0.51100000000E-03 0.  1.
         11   -1    0    0    0    0 -0.00000000000E+00 -0.00000000000E+00 -0.45593999997E+02  0.45594000000E+02  0.51100000000E-03 0. -1.
    9900012    2    1    2    0    0 -0.27968340308E+02  0.31819709051E+02  0.94287457359E+01  0.47787272013E+02  0.20000004415E+02 0.  0.
         12    1    1    2    0    0  0.27968340308E+02 -0.31819709051E+02 -0.94287457359E+01  0.43400727987E+02  0.00000000000E+00 0. -1.
         11    1    3    3    0    0  0.26967354990E+01  0.82793070271E+00  0.92348630845E+00  0.29682787644E+01  0.51100000000E-03 0. -1.
        -11    1    3    3    0    0 -0.28128631801E+02  0.28973578377E+02  0.62318328790E+01  0.40859808031E+02  0.51100000000E-03 0.  1.
        -12    1    3    3    0    0 -0.25364440056E+01  0.20181999710E+01  0.22734265485E+01  0.39591852176E+01  0.00000000000E+00 0.  1.
</event>
<event>
 7    1  0.5317846E-010  0.4778726E+02  0.7816164E-02  0.1312668E+00
        -11   -1    0    0    0    0  0.00000000000E+00  0.00000000000E+00  0.45593999997E+02  0.45594000000E+02  0.51100000000E-03 0.  1.
         11   -1    0    0    0    0 -0.00000000000E+00 -0.00000000000E+00 -0.45593999997E+02  0.45594000000E+02  0.51100000000E-03 0. -1.
    9900012    2    1    2    0    0  0.25204348936E+01 -0.22731122478E+02  0.36885868261E+02  0.47787265000E+02  0.19999972441E+02 0.  0.
         12    1    1    2    0    0 -0.25204348936E+01  0.22731122478E+02 -0.36885868261E+02  0.43400735000E+02  0.00000000000E+00 0. -1.
         11    1    3    3    0    0 -0.52393809866E+01 -0.33434498656E+01  0.23903805492E+01  0.66591057626E+01  0.51100000000E-03 0. -1.
        -11    1    3    3    0    0  0.93142293091E+01 -0.18178061631E+02  0.31343254795E+02  0.37411180330E+02  0.51100000000E-03 0.  1.
        -12    1    3    3    0    0 -0.15544134290E+01 -0.12096109816E+01  0.31522329169E+01  0.37169789073E+01  0.00000000000E+00 0.  1.
</event>
<event>
 7    1  0.5317846E-010  0.4778727E+02  0.7816164E-02  0.1312668E+00
        -11   -1    0    0    0    0  0.00000000000E+00  0.00000000000E+00  0.45593999997E+02  0.45594000000E+02  0.51100000000E-03 0.  1.
         11   -1    0    0    0    0 -0.00000000000E+00 -0.00000000000E+00 -0.45593999997E+02  0.45594000000E+02  0.51100000000E-03 0. -1.
    9900012    2    1    2    0    0  0.42372380594E+02 -0.60299475178E+01 -0.72003094336E+01  0.47787270049E+02  0.19999995464E+02 0.  0.
         12    1    1    2    0    0 -0.42372380594E+02  0.60299475178E+01  0.72003094336E+01  0.43400729951E+02  0.00000000000E+00 0. -1.
         11    1    3    3    0    0  0.70731579254E+01  0.19830749636E+01 -0.65508699625E+01  0.98425630237E+01  0.51100000000E-03 0. -1.
        -11    1    3    3    0    0  0.19855615833E+02 -0.45211020357E+01  0.52803278737E+01  0.21037293230E+02  0.51100000000E-03 0.  1.
        -12    1    3    3    0    0  0.15443606836E+02 -0.34919204456E+01 -0.59297673449E+01  0.16907413796E+02  0.00000000000E+00 0.  1.
</event>
<event>
 7    1  0.5317846E-010  0.4778727E+02  0.7816164E-02  0.1312668E+00
        -11   -1    0    0    0    0  0.00000000000E+00  0.00000000000E+00  0.45593999997E+02  0.45594000000E+02  0.51100000000E-03 0. -1.
         11   -1    0    0    0    0 -0.00000000000E+00 -0.00000000000E+00 -0.45593999997E+02  0.45594000000E+02  0.51100000000E-03 0.  1.
    9900012    2    1    2    0    0 -0.25706127318E+02 -0.11308351092E+02 -0.33089865279E+02  0.47787274542E+02  0.20000015946E+02 0.  0.
         12    1    1    2    0    0  0.25706127318E+02  0.11308351092E+02  0.33089865279E+02  0.43400725458E+02  0.00000000000E+00 0. -1.
         11    1    3    3    0    0 -0.12510339064E+02 -0.70441702853E+01 -0.14451902012E+02  0.20371214754E+02  0.51100000000E-03 0. -1.
        -11    1    3    3    0    0 -0.14633529884E+02  0.31580747494E+00 -0.10667800682E+02  0.18111927089E+02  0.51100000000E-03 0.  1.
        -12    1    3    3    0    0  0.14377416301E+01 -0.45799882814E+01 -0.79701625847E+01  0.93041326989E+01  0.00000000000E+00 0.  1.
</event>
<event>
 7    1  0.5317846E-010  0.4778727E+02  0.7816164E-02  0.1312668E+00
        -11   -1    0    0    0    0  0.00000000000E+00  0.00000000000E+00  0.45593999997E+02  0.45594000000E+02  0.51100000000E-03 0.  1.
         11   -1    0    0    0    0 -0.00000000000E+00 -0.00000000000E+00 -0.45593999997E+02  0.45594000000E+02  0.51100000000E-03 0. -1.
    9900012    2    1    2    0    0  0.16022312544E+02  0.25704138276E+02  0.31083855064E+02  0.47787271096E+02  0.20000000234E+02 0.  0.
         12    1    1    2    0    0 -0.16022312544E+02 -0.25704138276E+02 -0.31083855064E+02  0.43400728904E+02  0.00000000000E+00 0. -1.
         11    1    3    3    0    0 -0.96369376183E-01  0.87464911934E+00 -0.96991997847E+00  0.13095965655E+01  0.51100000000E-03 0. -1.
        -11    1    3    3    0    0  0.46935695162E+01 -0.11006606627E+01  0.78494286258E+01  0.92116545045E+01  0.51100000000E-03 0.  1.
        -12    1    3    3    0    0  0.11425112404E+02  0.25930149820E+02  0.24204346416E+02  0.37266020026E+02  0.00000000000E+00 0.  1.
</event>
<event>
 7    1  0.5317846E-010  0.4778728E+02  0.7816164E-02  0.1312668E+00
        -11   -1    0    0    0    0  0.00000000000E+00  0.00000000000E+00  0.45593999997E+02  0.45594000000E+02  0.51100000000E-03 0.  1.
         11   -1    0    0    0    0 -0.00000000000E+00 -0.00000000000E+00 -0.45593999997E+02  0.45594000000E+02  0.51100000000E-03 0. -1.
    9900012    2    1    2    0    0 -0.13019776435E+02  0.33120235597E+02  0.24842660949E+02  0.47787281257E+02  0.20000046562E+02 0.  0.
         12    1    1    2    0    0  0.13019776435E+02 -0.33120235597E+02 -0.24842660949E+02  0.43400718743E+02  0.00000000000E+00 0. -1.
         11    1    3    3    0    0 -0.28122761078E+01  0.15662574372E+02  0.19930285009E+02  0.25503752541E+02  0.51100000000E-03 0.  1.
        -11    1    3    3    0    0 -0.15060072293E+01  0.73463211925E-01  0.21821761164E+01  0.26524229456E+01  0.51100000000E-03 0. -1.
         12    1    3    3    0    0 -0.87014930975E+01  0.17384198013E+02  0.27301998235E+01  0.19631105770E+02  0.00000000000E+00 0. -1.
</event>
<event>
 7    1  0.5317846E-010  0.4778727E+02  0.7816164E-02  0.1312668E+00
        -11   -1    0    0    0    0  0.00000000000E+00  0.00000000000E+00  0.45593999997E+02  0.45594000000E+02  0.51100000000E-03 0.  1.
         11   -1    0    0    0    0 -0.00000000000E+00 -0.00000000000E+00 -0.45593999997E+02  0.45594000000E+02  0.51100000000E-03 0. -1.
    9900012    2    1    2    0    0  0.33425468806E+02  0.21649698378E+02  0.17252587615E+02  0.47787272078E+02  0.20000004711E+02 0.  0.
         12    1    1    2    0    0 -0.33425468806E+02 -0.21649698378E+02 -0.17252587615E+02  0.43400727922E+02  0.00000000000E+00 0. -1.
         11    1    3    3    0    0  0.16473155442E+02  0.59784154614E+01  0.61646046395E+01  0.18577100212E+02  0.51100000000E-03 0. -1.
        -11    1    3    3    0    0  0.87028574425E+01  0.16256526458E+02  0.96634882608E+01  0.20818198427E+02  0.51100000000E-03 0.  1.
        -12    1    3    3    0    0  0.82494559214E+01 -0.58524354120E+00  0.14244947152E+01  0.83919734387E+01  0.00000000000E+00 0.  1.
</event>
<event>
 7    1  0.5317846E-010  0.4778724E+02  0.7816164E-02  0.1312668E+00
        -11   -1    0    0    0    0  0.00000000000E+00  0.00000000000E+00  0.45593999997E+02  0.45594000000E+02  0.51100000000E-03 0.  1.
         11   -1    0    0    0    0 -0.00000000000E+00 -0.00000000000E+00 -0.45593999997E+02  0.45594000000E+02  0.51100000000E-03 0. -1.
    9900012    2    1    2    0    0  0.24663052329E+02 -0.28938621251E+02  0.20926436565E+02  0.47787243124E+02  0.19999872700E+02 0.  0.
         12    1    1    2    0    0 -0.24663052329E+02  0.28938621251E+02 -0.20926436565E+02  0.43400756876E+02  0.00000000000E+00 0. -1.
         11    1    3    3    0    0  0.17487915454E+02 -0.60043106633E+01  0.12084901166E+02  0.22088996581E+02  0.51100000000E-03 0. -1.
        -11    1    3    3    0    0  0.54742380095E+01 -0.18540785094E+02  0.79524413714E+01  0.20903811081E+02  0.51100000000E-03 0.  1.
         12    1    3    3    0    0  0.17008988650E+01 -0.43935254941E+01  0.88909402705E+00  0.47944354626E+01  0.00000000000E+00 0. -1.
</event>
<event>
 7    1  0.5317846E-010  0.4778728E+02  0.7816164E-02  0.1312668E+00
        -11   -1    0    0    0    0  0.00000000000E+00  0.00000000000E+00  0.45593999997E+02  0.45594000000E+02  0.51100000000E-03 0. -1.
         11   -1    0    0    0    0 -0.00000000000E+00 -0.00000000000E+00 -0.45593999997E+02  0.45594000000E+02  0.51100000000E-03 0.  1.
    9900012    2    1    2    0    0 -0.26077923237E+02 -0.25213675824E+02 -0.23829296294E+02  0.47787275458E+02  0.20000020123E+02 0.  0.
         12    1    1    2    0    0  0.26077923237E+02  0.25213675824E+02  0.23829296294E+02  0.43400724542E+02  0.00000000000E+00 0. -1.
         11    1    3    3    0    0 -0.10942410300E+02 -0.18803478189E+02 -0.44391137224E+01  0.22203893039E+02  0.51100000000E-03 0. -1.
        -11    1    3    3    0    0 -0.10706423998E+02 -0.31212961331E+01 -0.12369377894E+02  0.16654474297E+02  0.51100000000E-03 0.  1.
         12    1    3    3    0    0 -0.44290889389E+01 -0.32889015012E+01 -0.70208046778E+01  0.89289081213E+01  0.00000000000E+00 0. -1.
</event>
<event>
 7    1  0.5317846E-010  0.4778728E+02  0.7816164E-02  0.1312668E+00
        -11   -1    0    0    0    0  0.00000000000E+00  0.00000000000E+00  0.45593999997E+02  0.45594000000E+02  0.51100000000E-03 0.  1.
         11   -1    0    0    0    0 -0.00000000000E+00 -0.00000000000E+00 -0.45593999997E+02  0.45594000000E+02  0.51100000000E-03 0. -1.
    9900012    2    1    2    0    0  0.15195622268E+02 -0.40176134156E+02  0.62124199936E+01  0.47787275882E+02  0.20000022054E+02 0.  0.
         12    1    1    2    0    0 -0.15195622268E+02  0.40176134156E+02 -0.62124199936E+01  0.43400724118E+02  0.00000000000E+00 0. -1.
         11    1    3    3    0    0  0.92832659735E+00  0.19288204534E+01  0.12942383427E+01  0.25014379388E+01  0.51100000000E-03 0. -1.
        -11    1    3    3    0    0  0.12869674269E+02 -0.32573171002E+02  0.61976116551E+01  0.35567546660E+02  0.51100000000E-03 0.  1.
        -12    1    3    3    0    0  0.13976214013E+01 -0.95317836076E+01 -0.12794300042E+01  0.97182912829E+01  0.00000000000E+00 0.  1.
</event>
<event>
 7    1  0.5317846E-010  0.4778727E+02  0.7816164E-02  0.1312668E+00
        -11   -1    0    0    0    0  0.00000000000E+00  0.00000000000E+00  0.45593999997E+02  0.45594000000E+02  0.51100000000E-03 0.  1.
         11   -1    0    0    0    0 -0.00000000000E+00 -0.00000000000E+00 -0.45593999997E+02  0.45594000000E+02  0.51100000000E-03 0. -1.
    9900012    2    1    2    0    0 -0.83555364022E+01 -0.42221301806E+02  0.55830222411E+01  0.47787268992E+02  0.19999990640E+02 0.  0.
         12    1    1    2    0    0  0.83555364022E+01  0.42221301806E+02 -0.55830222411E+01  0.43400731008E+02  0.00000000000E+00 0. -1.
         11    1    3    3    0    0 -0.30183964346E+01 -0.11787928531E+02 -0.22469545334E+01  0.12373955755E+02  0.51100000000E-03 0. -1.
        -11    1    3    3    0    0 -0.23435480041E+01 -0.17653010046E+00 -0.23755608624E+01  0.33416567442E+01  0.51100000000E-03 0.  1.
        -12    1    3    3    0    0 -0.29935919635E+01 -0.30256843174E+02  0.10205537637E+02  0.32071656492E+02  0.00000000000E+00 0.  1.
</event>
<event>
 7    1  0.5317846E-010  0.4778727E+02  0.7816164E-02  0.1312668E+00
        -11   -1    0    0    0    0  0.00000000000E+00  0.00000000000E+00  0.45593999997E+02  0.45594000000E+02  0.51100000000E-03 0.  1.
         11   -1    0    0    0    0 -0.00000000000E+00 -0.00000000000E+00 -0.45593999997E+02  0.45594000000E+02  0.51100000000E-03 0. -1.
    9900012    2    1    2    0    0  0.73038961981E+01  0.38874322894E+02  0.17862352309E+02  0.47787268322E+02  0.19999987588E+02 0.  0.
         12    1    1    2    0    0 -0.73038961981E+01 -0.38874322894E+02 -0.17862352309E+02  0.43400731678E+02  0.00000000000E+00 0. -1.
         11    1    3    3    0    0  0.49844116243E+01  0.99229307276E+01 -0.26642266166E+01  0.11419589187E+02  0.51100000000E-03 0. -1.
        -11    1    3    3    0    0 -0.14717469290E+01  0.22298514260E+02  0.15812757604E+02  0.27375775433E+02  0.51100000000E-03 0.  1.
        -12    1    3    3    0    0  0.37912315029E+01  0.66528779066E+01  0.47138213217E+01  0.89919037029E+01  0.00000000000E+00 0.  1.
</event>
<event>
 7    1  0.5317846E-010  0.4778727E+02  0.7816164E-02  0.1312668E+00
        -11   -1    0    0    0    0  0.00000000000E+00  0.00000000000E+00  0.45593999997E+02  0.45594000000E+02  0.51100000000E-03 0. -1.
         11   -1    0    0    0    0 -0.00000000000E+00 -0.00000000000E+00 -0.45593999997E+02  0.45594000000E+02  0.51100000000E-03 0.  1.
    9900012    2    1    2    0    0  0.17304018420E+02  0.38313862036E+02  0.10781574991E+02  0.47787269167E+02  0.19999991440E+02 0.  0.
         12    1    1    2    0    0 -0.17304018420E+02 -0.38313862036E+02 -0.10781574991E+02  0.43400730833E+02  0.00000000000E+00 0. -1.
         11    1    3    3    0    0  0.30914347243E+01  0.91454919567E+01 -0.52810653633E+00  0.96682929496E+01  0.51100000000E-03 0. -1.
        -11    1    3    3    0    0  0.10762666033E+02  0.14777842464E+02 -0.17722361967E+01  0.18367374048E+02  0.51100000000E-03 0.  1.
        -12    1    3    3    0    0  0.34499176624E+01  0.14390527615E+02  0.13081917724E+02  0.19751602169E+02  0.00000000000E+00 0.  1.
</event>
<event>
 7    1  0.5317846E-010  0.4778727E+02  0.7816164E-02  0.1312668E+00
        -11   -1    0    0    0    0  0.00000000000E+00  0.00000000000E+00  0.45593999997E+02  0.45594000000E+02  0.51100000000E-03 0.  1.
         11   -1    0    0    0    0 -0.00000000000E+00 -0.00000000000E+00 -0.45593999997E+02  0.45594000000E+02  0.51100000000E-03 0. -1.
    9900012    2    1    2    0    0 -0.80493693345E+01 -0.19591154929E+01  0.42602732573E+02  0.47787270710E+02  0.19999998474E+02 0.  0.
         12    1    1    2    0    0  0.80493693345E+01  0.19591154929E+01 -0.42602732573E+02  0.43400729290E+02  0.00000000000E+00 0. -1.
         11    1    3    3    0    0 -0.37999609443E+01 -0.28698725663E+01  0.26374420535E+02  0.26800856900E+02  0.51100000000E-03 0.  1.
        -11    1    3    3    0    0 -0.39607926298E+01 -0.43632784255E+01  0.27359881754E+01  0.64970538270E+01  0.51100000000E-03 0. -1.
        -12    1    3    3    0    0 -0.28861576048E+00  0.52740354989E+01  0.13492323863E+02  0.14489359983E+02  0.00000000000E+00 0.  1.
</event>
<event>
 7    1  0.5317846E-010  0.4778727E+02  0.7816164E-02  0.1312668E+00
        -11   -1    0    0    0    0  0.00000000000E+00  0.00000000000E+00  0.45593999997E+02  0.45594000000E+02  0.51100000000E-03 0.  1.
         11   -1    0    0    0    0 -0.00000000000E+00 -0.00000000000E+00 -0.45593999997E+02  0.45594000000E+02  0.51100000000E-03 0. -1.
    9900012    2    1    2    0    0 -0.37817110762E+02  0.65140909921E+01  0.20274513130E+02  0.47787272697E+02  0.20000007533E+02 0.  0.
         12    1    1    2    0    0  0.37817110762E+02 -0.65140909921E+01 -0.20274513130E+02  0.43400727303E+02  0.00000000000E+00 0. -1.
         11    1    3    3    0    0 -0.60819155938E+01  0.52399155065E+01 -0.15382199028E+01  0.81738933523E+01  0.51100000000E-03 0. -1.
        -11    1    3    3    0    0 -0.81860565241E+01 -0.34887019312E+01  0.43048044050E+01  0.98850343352E+01  0.51100000000E-03 0.  1.
         12    1    3    3    0    0 -0.23549138644E+02  0.47628774168E+01  0.17507928627E+02  0.29728345009E+02  0.00000000000E+00 0. -1.
</event>
<event>
 7    1  0.5317846E-010  0.4778726E+02  0.7816164E-02  0.1312668E+00
        -11   -1    0    0    0    0  0.00000000000E+00  0.00000000000E+00  0.45593999997E+02  0.45594000000E+02  0.51100000000E-03 0.  1.
         11   -1    0    0    0    0 -0.00000000000E+00 -0.00000000000E+00 -0.45593999997E+02  0.45594000000E+02  0.51100000000E-03 0. -1.
    9900012    2    1    2    0    0 -0.39176844622E+02  0.18587742205E+02 -0.18151602884E+01  0.47787261277E+02  0.19999955467E+02 0.  0.
         12    1    1    2    0    0  0.39176844622E+02 -0.18587742205E+02  0.18151602884E+01  0.43400738723E+02  0.00000000000E+00 0. -1.
         11    1    3    3    0    0 -0.16820827508E+02  0.43065503098E+01 -0.56749718033E+01  0.18267236212E+02  0.51100000000E-03 0. -1.
        -11    1    3    3    0    0 -0.14660128868E+02  0.10220809126E+02  0.83530001537E+01  0.19727060841E+02  0.51100000000E-03 0.  1.
        -12    1    3    3    0    0 -0.76958882466E+01  0.40603827690E+01 -0.44931886389E+01  0.97929642234E+01  0.00000000000E+00 0.  1.
</event>
<event>
 7    1  0.5317846E-010  0.4778727E+02  0.7816164E-02  0.1312668E+00
        -11   -1    0    0    0    0  0.00000000000E+00  0.00000000000E+00  0.45593999997E+02  0.45594000000E+02  0.51100000000E-03 0.  1.
         11   -1    0    0    0    0 -0.00000000000E+00 -0.00000000000E+00 -0.45593999997E+02  0.45594000000E+02  0.51100000000E-03 0. -1.
    9900012    2    1    2    0    0  0.33342096018E+01  0.26642285949E+02  0.34098313143E+02  0.47787270588E+02  0.19999997919E+02 0.  0.
         12    1    1    2    0    0 -0.33342096018E+01 -0.26642285949E+02 -0.34098313143E+02  0.43400729412E+02  0.00000000000E+00 0. -1.
         11    1    3    3    0    0 -0.15378430059E+01  0.16982470866E+01 -0.13787017735E+01  0.26739153164E+01  0.51100000000E-03 0. -1.
        -11    1    3    3    0    0  0.40056853054E+01  0.20033374246E+02  0.34404003112E+02  0.40012710841E+02  0.51100000000E-03 0.  1.
        -12    1    3    3    0    0  0.86636730229E+00  0.49106646163E+01  0.10730118052E+01  0.51006444309E+01  0.00000000000E+00 0.  1.
</event>
<event>
 7    1  0.5317846E-010  0.4778728E+02  0.7816164E-02  0.1312668E+00
        -11   -1    0    0    0    0  0.00000000000E+00  0.00000000000E+00  0.45593999997E+02  0.45594000000E+02  0.51100000000E-03 0. -1.
         11   -1    0    0    0    0 -0.00000000000E+00 -0.00000000000E+00 -0.45593999997E+02  0.45594000000E+02  0.51100000000E-03 0.  1.
    9900012    2    1    2    0    0 -0.37509830283E+02  0.99576677182E+01  0.19428845634E+02  0.47787279305E+02  0.20000037662E+02 0.  0.
         12    1    1    2    0    0  0.37509830283E+02 -0.99576677182E+01 -0.19428845634E+02  0.43400720695E+02  0.00000000000E+00 0. -1.
         11    1    3    3    0    0 -0.18561241571E+02  0.11425256974E+02  0.66053077302E+01  0.22774684983E+02  0.51100000000E-03 0. -1.
        -11    1    3    3    0    0 -0.21325114702E+00  0.19758749495E+01 -0.10559547842E+00  0.19901528921E+01  0.51100000000E-03 0.  1.
         12    1    3    3    0    0 -0.18735337564E+02 -0.34434642053E+01  0.12929133382E+02  0.23022441430E+02  0.00000000000E+00 0. -1.
</event>
<event>
 7    1  0.5317846E-010  0.4778727E+02  0.7816164E-02  0.1312668E+00
        -11   -1    0    0    0    0  0.00000000000E+00  0.00000000000E+00  0.45593999997E+02  0.45594000000E+02  0.51100000000E-03 0.  1.
         11   -1    0    0    0    0 -0.00000000000E+00 -0.00000000000E+00 -0.45593999997E+02  0.45594000000E+02  0.51100000000E-03 0. -1.
    9900012    2    1    2    0    0  0.31914662138E+02  0.16933212554E+02  0.24048782910E+02  0.47787270672E+02  0.19999998302E+02 0.  0.
         12    1    1    2    0    0 -0.31914662138E+02 -0.16933212554E+02 -0.24048782910E+02  0.43400729328E+02  0.00000000000E+00 0. -1.
         11    1    3    3    0    0  0.83704212918E+01  0.36453971695E+01  0.12159506989E+02  0.15205475448E+02  0.51100000000E-03 0. -1.
        -11    1    3    3    0    0  0.15169637628E+02  0.96604834289E+01  0.50589395357E+00  0.17991630688E+02  0.51100000000E-03 0.  1.
        -12    1    3    3    0    0  0.83746032176E+01  0.36273319551E+01  0.11383381968E+02  0.14590164536E+02  0.00000000000E+00 0.  1.
</event>
<event>
 7    1  0.5317846E-010  0.4778727E+02  0.7816164E-02  0.1312668E+00
        -11   -1    0    0    0    0  0.00000000000E+00  0.00000000000E+00  0.45593999997E+02  0.45594000000E+02  0.51100000000E-03 0.  1.
         11   -1    0    0    0    0 -0.00000000000E+00 -0.00000000000E+00 -0.45593999997E+02  0.45594000000E+02  0.51100000000E-03 0. -1.
    9900012    2    1    2    0    0  0.16106609052E+02  0.27803438006E+02  0.29174803577E+02  0.47787272081E+02  0.20000004727E+02 0.  0.
         12    1    1    2    0    0 -0.16106609052E+02 -0.27803438006E+02 -0.29174803577E+02  0.43400727919E+02  0.00000000000E+00 0. -1.
         11    1    3    3    0    0  0.21592136509E+01  0.81996233090E+01  0.68777060275E+01  0.10917823339E+02  0.51100000000E-03 0. -1.
        -11    1    3    3    0    0  0.14810799097E+02  0.21290723172E+02  0.16424914856E+02  0.30699063363E+02  0.51100000000E-03 0.  1.
        -12    1    3    3    0    0 -0.86340369557E+00 -0.16869084750E+01  0.58721826934E+01  0.61703853793E+01  0.00000000000E+00 0.  1.
</event>
<event>
 7    1  0.5317846E-010  0.4778727E+02  0.7816164E-02  0.1312668E+00
        -11   -1    0    0    0    0  0.00000000000E+00  0.00000000000E+00  0.45593999997E+02  0.45594000000E+02  0.51100000000E-03 0.  1.
         11   -1    0    0    0    0 -0.00000000000E+00 -0.00000000000E+00 -0.45593999997E+02  0.45594000000E+02  0.51100000000E-03 0. -1.
    9900012    2    1    2    0    0 -0.18761415410E+02  0.42588110673E+01  0.38903666414E+02  0.47787269126E+02  0.19999991254E+02 0.  0.
         12    1    1    2    0    0  0.18761415410E+02 -0.42588110673E+01 -0.38903666414E+02  0.43400730874E+02  0.00000000000E+00 0. -1.
         11    1    3    3    0    0 -0.15681043143E+02 -0.91508476755E+00  0.12497740590E+02  0.20073017070E+02  0.51100000000E-03 0. -1.
        -11    1    3    3    0    0 -0.17542915001E+01  0.19351148950E+01  0.21662963220E+02  0.21819857562E+02  0.51100000000E-03 0.  1.
         12    1    3    3    0    0 -0.13260807676E+01  0.32387809398E+01  0.47429626047E+01  0.58943944938E+01  0.00000000000E+00 0. -1.
</event>
<event>
 7    1  0.5317846E-010  0.4778728E+02  0.7816164E-02  0.1312668E+00
        -11   -1    0    0    0    0  0.00000000000E+00  0.00000000000E+00  0.45593999997E+02  0.45594000000E+02  0.51100000000E-03 0.  1.
         11   -1    0    0    0    0 -0.00000000000E+00 -0.00000000000E+00 -0.45593999997E+02  0.45594000000E+02  0.51100000000E-03 0. -1.
    9900012    2    1    2    0    0  0.24180521791E+02  0.21533648533E+02  0.28900298009E+02  0.47787275602E+02  0.20000020782E+02 0.  0.
         12    1    1    2    0    0 -0.24180521791E+02 -0.21533648533E+02 -0.28900298009E+02  0.43400724398E+02  0.00000000000E+00 0. -1.
         11    1    3    3    0    0  0.49657126579E+01 -0.11273266385E+01 -0.71292021065E+00  0.51417334663E+01  0.51100000000E-03 0. -1.
        -11    1    3    3    0    0  0.17294722328E+02  0.18295850831E+02  0.27896009651E+02  0.37577026662E+02  0.51100000000E-03 0.  1.
        -12    1    3    3    0    0  0.19200868049E+01  0.43651243398E+01  0.17172085687E+01  0.50685154739E+01  0.00000000000E+00 0.  1.
</event>
<event>
 7    1  0.5317846E-010  0.4778727E+02  0.7816164E-02  0.1312668E+00
        -11   -1    0    0    0    0  0.00000000000E+00  0.00000000000E+00  0.45593999997E+02  0.45594000000E+02  0.51100000000E-03 0.  1.
         11   -1    0    0    0    0 -0.00000000000E+00 -0.00000000000E+00 -0.45593999997E+02  0.45594000000E+02  0.51100000000E-03 0. -1.
    9900012    2    1    2    0    0  0.17247109078E+01  0.26234251382E+02  0.34531328659E+02  0.47787271524E+02  0.20000002186E+02 0.  0.
         12    1    1    2    0    0 -0.17247109078E+01 -0.26234251382E+02 -0.34531328659E+02  0.43400728476E+02  0.00000000000E+00 0. -1.
         11    1    3    3    0    0  0.40455663799E+01  0.22084342491E+02  0.15273027267E+02  0.27154192176E+02  0.51100000000E-03 0. -1.
        -11    1    3    3    0    0 -0.40937690484E+01  0.29410998315E+01  0.15574163567E+02  0.16369593285E+02  0.51100000000E-03 0.  1.
         12    1    3    3    0    0  0.17729135763E+01  0.12088090596E+01  0.36841378252E+01  0.42634860627E+01  0.00000000000E+00 0. -1.
</event>
<event>
 7    1  0.5317846E-010  0.4778727E+02  0.7816164E-02  0.1312668E+00
        -11   -1    0    0    0    0  0.00000000000E+00  0.00000000000E+00  0.45593999997E+02  0.45594000000E+02  0.51100000000E-03 0.  1.
         11   -1    0    0    0    0 -0.00000000000E+00 -0.00000000000E+00 -0.45593999997E+02  0.45594000000E+02  0.51100000000E-03 0. -1.
    9900012    2    1    2    0    0 -0.24429488087E+01 -0.27711714975E+02  0.33312402637E+02  0.47787270568E+02  0.19999997829E+02 0.  0.
         12    1    1    2    0    0  0.24429488087E+01  0.27711714975E+02 -0.33312402637E+02  0.43400729432E+02  0.00000000000E+00 0. -1.
         11    1    3    3    0    0  0.99396274382E+00 -0.37925833021E+01 -0.10419244750E+01  0.40567544801E+01  0.51100000000E-03 0. -1.
        -11    1    3    3    0    0 -0.11146511073E+01 -0.24438182153E+02  0.32674483256E+02  0.40817754107E+02  0.51100000000E-03 0.  1.
        -12    1    3    3    0    0 -0.23222604452E+01  0.51905048004E+00  0.16798438557E+01  0.29127619806E+01  0.00000000000E+00 0.  1.
</event>
<event>
 7    1  0.5317846E-010  0.4778727E+02  0.7816164E-02  0.1312668E+00
        -11   -1    0    0    0    0  0.00000000000E+00  0.00000000000E+00  0.45593999997E+02  0.45594000000E+02  0.51100000000E-03 0. -1.
         11   -1    0    0    0    0 -0.00000000000E+00 -0.00000000000E+00 -0.45593999997E+02  0.45594000000E+02  0.51100000000E-03 0.  1.
    9900012    2    1    2    0    0  0.28541163987E+02  0.32695795788E+02  0.10246479125E+00  0.47787267253E+02  0.19999982712E+02 0.  0.
         12    1    1    2    0    0 -0.28541163987E+02 -0.32695795788E+02 -0.10246479125E+00  0.43400732747E+02  0.00000000000E+00 0. -1.
         11    1    3    3    0    0  0.38093977757E+01  0.59691786984E+01 -0.71242591232E+01  0.10044783425E+02  0.51100000000E-03 0. -1.
        -11    1    3    3    0    0  0.24509907724E+02  0.27048494650E+02  0.67405236741E+01  0.37118611224E+02  0.51100000000E-03 0.  1.
         12    1    3    3    0    0  0.22185848710E+00 -0.32187756035E+00  0.48620024029E+00  0.62387260383E+00  0.00000000000E+00 0. -1.
</event>
<event>
 7    1  0.5317846E-010  0.4778728E+02  0.7816164E-02  0.1312668E+00
        -11   -1    0    0    0    0  0.00000000000E+00  0.00000000000E+00  0.45593999997E+02  0.45594000000E+02  0.51100000000E-03 0. -1.
         11   -1    0    0    0    0 -0.00000000000E+00 -0.00000000000E+00 -0.45593999997E+02  0.45594000000E+02  0.51100000000E-03 0.  1.
    9900012    2    1    2    0    0 -0.24091200239E+02 -0.24354701476E+00 -0.36099551381E+02  0.47787275882E+02  0.20000022055E+02 0.  0.
         12    1    1    2    0    0  0.24091200239E+02  0.24354701476E+00  0.36099551381E+02  0.43400724118E+02  0.00000000000E+00 0. -1.
         11    1    3    3    0    0 -0.24613499357E+01 -0.12322417272E+01 -0.16795506932E+02  0.17019568635E+02  0.51100000000E-03 0. -1.
        -11    1    3    3    0    0 -0.86210934450E+01  0.87778768069E+00 -0.16228888558E+01  0.88163219031E+01  0.51100000000E-03 0.  1.
        -12    1    3    3    0    0 -0.13008756858E+02  0.11090703176E+00 -0.17681155594E+02  0.21951385343E+02  0.00000000000E+00 0.  1.
</event>
<event>
 7    1  0.5317846E-010  0.4778727E+02  0.7816164E-02  0.1312668E+00
        -11   -1    0    0    0    0  0.00000000000E+00  0.00000000000E+00  0.45593999997E+02  0.45594000000E+02  0.51100000000E-03 0.  1.
         11   -1    0    0    0    0 -0.00000000000E+00 -0.00000000000E+00 -0.45593999997E+02  0.45594000000E+02  0.51100000000E-03 0. -1.
    9900012    2    1    2    0    0  0.11236487090E+02  0.34676090154E+02  0.23557022526E+02  0.47787272117E+02  0.20000004888E+02 0.  0.
         12    1    1    2    0    0 -0.11236487090E+02 -0.34676090154E+02 -0.23557022526E+02  0.43400727883E+02  0.00000000000E+00 0. -1.
         11    1    3    3    0    0 -0.25445189244E+01  0.57534145256E+01  0.63873676552E+01  0.89652005601E+01  0.51100000000E-03 0. -1.
        -11    1    3    3    0    0  0.14953148198E+02  0.29748471814E+02  0.15857906832E+02  0.36878739480E+02  0.51100000000E-03 0.  1.
        -12    1    3    3    0    0 -0.11721421842E+01 -0.82579618524E+00  0.13117480390E+01  0.19433320760E+01  0.00000000000E+00 0.  1.
</event>
<event>
 7    1  0.5317846E-010  0.4778728E+02  0.7816164E-02  0.1312668E+00
        -11   -1    0    0    0    0  0.00000000000E+00  0.00000000000E+00  0.45593999997E+02  0.45594000000E+02  0.51100000000E-03 0.  1.
         11   -1    0    0    0    0 -0.00000000000E+00 -0.00000000000E+00 -0.45593999997E+02  0.45594000000E+02  0.51100000000E-03 0. -1.
    9900012    2    1    2    0    0  0.26457454037E+02 -0.11858047411E+02  0.32295700602E+02  0.47787280653E+02  0.20000043808E+02 0.  0.
         12    1    1    2    0    0 -0.26457454037E+02  0.11858047411E+02 -0.32295700602E+02  0.43400719347E+02  0.00000000000E+00 0. -1.
         11    1    3    3    0    0  0.22944876002E+02 -0.60117055153E+01  0.19411899895E+02  0.30650119017E+02  0.51100000000E-03 0. -1.
        -11    1    3    3    0    0 -0.40448289535E+00  0.20398918775E+01  0.89968273305E+00  0.22658761144E+01  0.51100000000E-03 0.  1.
        -12    1    3    3    0    0  0.39170609305E+01 -0.78862337735E+01  0.11984117974E+02  0.14871285522E+02  0.00000000000E+00 0.  1.
</event>
<event>
 7    1  0.5317846E-010  0.4778727E+02  0.7816164E-02  0.1312668E+00
        -11   -1    0    0    0    0  0.00000000000E+00  0.00000000000E+00  0.45593999997E+02  0.45594000000E+02  0.51100000000E-03 0.  1.
         11   -1    0    0    0    0 -0.00000000000E+00 -0.00000000000E+00 -0.45593999997E+02  0.45594000000E+02  0.51100000000E-03 0. -1.
    9900012    2    1    2    0    0 -0.22103085963E+02 -0.15186190618E+02  0.34124139137E+02  0.47787266522E+02  0.19999979380E+02 0.  0.
         12    1    1    2    0    0  0.22103085963E+02  0.15186190618E+02 -0.34124139137E+02  0.43400733478E+02  0.00000000000E+00 0. -1.
         11    1    3    3    0    0  0.14678351068E+01 -0.15643925054E+01  0.21586294712E+01  0.30432787035E+01  0.51100000000E-03 0. -1.
        -11    1    3    3    0    0 -0.10492497686E+02 -0.22249309676E+01  0.32713718946E+01  0.11213594421E+02  0.51100000000E-03 0.  1.
        -12    1    3    3    0    0 -0.13078423384E+02 -0.11396867145E+02  0.28694137771E+02  0.33530393397E+02  0.00000000000E+00 0.  1.
</event>
<event>
 7    1  0.5317846E-010  0.4778727E+02  0.7816164E-02  0.1312668E+00
        -11   -1    0    0    0    0  0.00000000000E+00  0.00000000000E+00  0.45593999997E+02  0.45594000000E+02  0.51100000000E-03 0. -1.
         11   -1    0    0    0    0 -0.00000000000E+00 -0.00000000000E+00 -0.45593999997E+02  0.45594000000E+02  0.51100000000E-03 0.  1.
    9900012    2    1    2    0    0 -0.40946856260E+02 -0.14115071327E+02 -0.27826424294E+01  0.47787269879E+02  0.19999994688E+02 0.  0.
         12    1    1    2    0    0  0.40946856260E+02  0.14115071327E+02  0.27826424294E+01  0.43400730121E+02  0.00000000000E+00 0. -1.
         11    1    3    3    0    0 -0.61486032129E+01 -0.83867842024E-01  0.63707506711E+01  0.88543107952E+01  0.51100000000E-03 0. -1.
        -11    1    3    3    0    0 -0.23912294124E+02 -0.11797193771E+02 -0.74922306596E+01  0.27696662464E+02  0.51100000000E-03 0.  1.
         12    1    3    3    0    0 -0.10885958923E+02 -0.22340097142E+01 -0.16611624408E+01  0.11236296620E+02  0.00000000000E+00 0. -1.
</event>
<event>
 7    1  0.5317846E-010  0.4778726E+02  0.7816164E-02  0.1312668E+00
        -11   -1    0    0    0    0  0.00000000000E+00  0.00000000000E+00  0.45593999997E+02  0.45594000000E+02  0.51100000000E-03 0.  1.
         11   -1    0    0    0    0 -0.00000000000E+00 -0.00000000000E+00 -0.45593999997E+02  0.45594000000E+02  0.51100000000E-03 0. -1.
    9900012    2    1    2    0    0  0.24343988183E+02 -0.62040892057E+01  0.35390724192E+02  0.47787264495E+02  0.19999970139E+02 0.  0.
         12    1    1    2    0    0 -0.24343988183E+02  0.62040892057E+01 -0.35390724192E+02  0.43400735505E+02  0.00000000000E+00 0. -1.
         11    1    3    3    0    0  0.15076546871E+02 -0.95492363283E+01  0.19009061010E+02  0.26073637659E+02  0.51100000000E-03 0. -1.
        -11    1    3    3    0    0  0.66182243715E+01  0.67560650883E+01  0.84510885849E+01  0.12683304295E+02  0.51100000000E-03 0.  1.
        -12    1    3    3    0    0  0.26492169407E+01 -0.34109179657E+01  0.79305745968E+01  0.90303225415E+01  0.00000000000E+00 0.  1.
</event>
<event>
 7    1  0.5317846E-010  0.4778727E+02  0.7816164E-02  0.1312668E+00
        -11   -1    0    0    0    0  0.00000000000E+00  0.00000000000E+00  0.45593999997E+02  0.45594000000E+02  0.51100000000E-03 0. -1.
         11   -1    0    0    0    0 -0.00000000000E+00 -0.00000000000E+00 -0.45593999997E+02  0.45594000000E+02  0.51100000000E-03 0.  1.
    9900012    2    1    2    0    0  0.42248423286E+02 -0.96063385450E+01 -0.25322889687E+01  0.47787268464E+02  0.19999988235E+02 0.  0.
         12    1    1    2    0    0 -0.42248423286E+02  0.96063385450E+01  0.25322889687E+01  0.43400731536E+02  0.00000000000E+00 0. -1.
         11    1    3    3    0    0  0.63643255911E+01  0.98396051254E+00  0.28434460284E+01  0.70397446045E+01  0.51100000000E-03 0. -1.
        -11    1    3    3    0    0  0.17014207369E+02  0.16568545156E+01 -0.63360752457E+01  0.18231134607E+02  0.51100000000E-03 0.  1.
        -12    1    3    3    0    0  0.18869890326E+02 -0.12247153573E+02  0.96034024860E+00  0.22516389252E+02  0.00000000000E+00 0.  1.
</event>
<event>
 7    1  0.5317846E-010  0.4778727E+02  0.7816164E-02  0.1312668E+00
        -11   -1    0    0    0    0  0.00000000000E+00  0.00000000000E+00  0.45593999997E+02  0.45594000000E+02  0.51100000000E-03 0.  1.
         11   -1    0    0    0    0 -0.00000000000E+00 -0.00000000000E+00 -0.45593999997E+02  0.45594000000E+02  0.51100000000E-03 0. -1.
    9900012    2    1    2    0    0 -0.31775736895E+02  0.68845646940E+01  0.28749412074E+02  0.47787269812E+02  0.19999994382E+02 0.  0.
         12    1    1    2    0    0  0.31775736895E+02 -0.68845646940E+01 -0.28749412074E+02  0.43400730188E+02  0.00000000000E+00 0. -1.
         11    1    3    3    0    0 -0.17467003703E+01  0.49000229427E+01  0.88095197340E+01  0.10230778329E+02  0.51100000000E-03 0. -1.
        -11    1    3    3    0    0 -0.10728205377E+02  0.52893006460E+01  0.10029899729E+02  0.15609932119E+02  0.51100000000E-03 0.  1.
         12    1    3    3    0    0 -0.19300831148E+02 -0.33047588948E+01  0.99099926113E+01  0.21946559364E+02  0.00000000000E+00 0. -1.
</event>
<event>
 7    1  0.5317846E-010  0.4778727E+02  0.7816164E-02  0.1312668E+00
        -11   -1    0    0    0    0  0.00000000000E+00  0.00000000000E+00  0.45593999997E+02  0.45594000000E+02  0.51100000000E-03 0.  1.
         11   -1    0    0    0    0 -0.00000000000E+00 -0.00000000000E+00 -0.45593999997E+02  0.45594000000E+02  0.51100000000E-03 0. -1.
    9900012    2    1    2    0    0 -0.25652874083E+02  0.56356483623E+01  0.34551310375E+02  0.47787268096E+02  0.19999986556E+02 0.  0.
         12    1    1    2    0    0  0.25652874083E+02 -0.56356483623E+01 -0.34551310375E+02  0.43400731904E+02  0.00000000000E+00 0. -1.
         11    1    3    3    0    0 -0.20168953589E+02  0.48113534438E+01  0.30885760555E+02  0.37200349677E+02  0.51100000000E-03 0. -1.
        -11    1    3    3    0    0 -0.36848960065E+01  0.23297361570E+01  0.59075448726E+01  0.73420171494E+01  0.51100000000E-03 0.  1.
         12    1    3    3    0    0 -0.17990244883E+01 -0.15054412385E+01 -0.22419950522E+01  0.32449012691E+01  0.00000000000E+00 0. -1.
</event>
<event>
 7    1  0.5317846E-010  0.4778725E+02  0.7816164E-02  0.1312668E+00
        -11   -1    0    0    0    0  0.00000000000E+00  0.00000000000E+00  0.45593999997E+02  0.45594000000E+02  0.51100000000E-03 0. -1.
         11   -1    0    0    0    0 -0.00000000000E+00 -0.00000000000E+00 -0.45593999997E+02  0.45594000000E+02  0.51100000000E-03 0.  1.
    9900012    2    1    2    0    0  0.22528936032E+02  0.33526841743E+02 -0.15875226810E+02  0.47787252284E+02  0.19999914465E+02 0.  0.
         12    1    1    2    0    0 -0.22528936032E+02 -0.33526841743E+02  0.15875226810E+02  0.43400747716E+02  0.00000000000E+00 0. -1.
         11    1    3    3    0    0  0.41567115086E+00  0.55374258502E+00  0.31175951110E+01  0.31935580303E+01  0.51100000000E-03 0. -1.
        -11    1    3    3    0    0  0.18831958875E+02  0.31184748404E+02 -0.15923857558E+02  0.39758023692E+02  0.51100000000E-03 0.  1.
        -12    1    3    3    0    0  0.32813060067E+01  0.17883507542E+01 -0.30689643627E+01  0.48356705626E+01  0.00000000000E+00 0.  1.
</event>
<event>
 7    1  0.5317846E-010  0.4778727E+02  0.7816164E-02  0.1312668E+00
        -11   -1    0    0    0    0  0.00000000000E+00  0.00000000000E+00  0.45593999997E+02  0.45594000000E+02  0.51100000000E-03 0.  1.
         11   -1    0    0    0    0 -0.00000000000E+00 -0.00000000000E+00 -0.45593999997E+02  0.45594000000E+02  0.51100000000E-03 0. -1.
    9900012    2    1    2    0    0 -0.34429782533E+02 -0.22777513656E+02  0.13393981570E+02  0.47787265030E+02  0.19999972576E+02 0.  0.
         12    1    1    2    0    0  0.34429782533E+02  0.22777513656E+02 -0.13393981570E+02  0.43400734970E+02  0.00000000000E+00 0. -1.
         11    1    3    3    0    0  0.19491093206E+01 -0.46419952305E+01  0.44882142544E+00  0.50545610884E+01  0.51100000000E-03 0. -1.
        -11    1    3    3    0    0 -0.18309027297E+02 -0.87142035091E+01  0.52106112809E+01  0.20935813658E+02  0.51100000000E-03 0.  1.
         12    1    3    3    0    0 -0.18069864557E+02 -0.94213149167E+01  0.77345488641E+01  0.21796890283E+02  0.00000000000E+00 0. -1.
</event>
<event>
 7    1  0.5317846E-010  0.4778727E+02  0.7816164E-02  0.1312668E+00
        -11   -1    0    0    0    0  0.00000000000E+00  0.00000000000E+00  0.45593999997E+02  0.45594000000E+02  0.51100000000E-03 0. -1.
         11   -1    0    0    0    0 -0.00000000000E+00 -0.00000000000E+00 -0.45593999997E+02  0.45594000000E+02  0.51100000000E-03 0.  1.
    9900012    2    1    2    0    0  0.95466416888E+01  0.41798461940E+02  0.67359966938E+01  0.47787269135E+02  0.19999991296E+02 0.  0.
         12    1    1    2    0    0 -0.95466416888E+01 -0.41798461940E+02 -0.67359966938E+01  0.43400730865E+02  0.00000000000E+00 0. -1.
         11    1    3    3    0    0  0.37490218080E+00  0.80785259237E+01  0.77081882129E+01  0.11172255750E+02  0.51100000000E-03 0. -1.
        -11    1    3    3    0    0  0.11532337992E+02  0.30497061296E+02 -0.99956338748E+00  0.32620004514E+02  0.51100000000E-03 0.  1.
        -12    1    3    3    0    0 -0.23605984840E+01  0.32228747204E+01  0.27371868413E-01  0.39950088717E+01  0.00000000000E+00 0.  1.
</event>
